 Gaussian 16, Revision A.03,

 -----------------------------------------------------------
 # opt freq B3LYP/6-31G(d) empiricaldispersion=gd3bj scf=xqc
 -----------------------------------------------------------

 -------------------------------
 CID_142548542_JID_2901_neutraal
 -------------------------------
 Symbolic Z-matrix:
 Charge =  0 Multiplicity = 1

 SCF Done:  E(RB3LYP) =  -529.865640564     A.U. after   14 cycles
 SCF Done:  E(RB3LYP) =  -529.872035849     A.U. after   12 cycles
 SCF Done:  E(RB3LYP) =  -529.875380355     A.U. after   12 cycles
 SCF Done:  E(RB3LYP) =  -529.877845700     A.U. after   12 cycles
 SCF Done:  E(RB3LYP) =  -529.878603645     A.U. after   12 cycles
 SCF Done:  E(RB3LYP) =  -529.878854224     A.U. after   11 cycles
 SCF Done:  E(RB3LYP) =  -529.878924100     A.U. after    9 cycles
 SCF Done:  E(RB3LYP) =  -529.879010474     A.U. after   10 cycles
 SCF Done:  E(RB3LYP) =  -529.879067111     A.U. after   10 cycles
 SCF Done:  E(RB3LYP) =  -529.879151681     A.U. after   10 cycles
 SCF Done:  E(RB3LYP) =  -529.879254262     A.U. after   11 cycles
 SCF Done:  E(RB3LYP) =  -529.879290267     A.U. after   10 cycles
 SCF Done:  E(RB3LYP) =  -529.879294358     A.U. after    9 cycles
 SCF Done:  E(RB3LYP) =  -529.879296894     A.U. after    9 cycles
 SCF Done:  E(RB3LYP) =  -529.879297264     A.U. after    8 cycles
 Optimization completed.
    -- Stationary point found.

 1\1\GINC-NODE211\FOpt\RB3LYP\6-31G(d)\C8H10N4\VSC10255\09-Dec-2020\0\\
 # opt freq B3LYP/6-31G(d) empiricaldispersion=gd3bj scf=xqc\\CID_14254
 8542_JID_2901_neutraal\\0,1\C,0.4387081167,0.3736743238,0.6876926873\C
 ,0.3370335481,1.5926291537,-0.1632229912\N,-0.4723489294,1.7941137332,
 -1.1793996294\C,-0.2065811986,3.0697483866,-1.6450692814\C,0.779082153
 ,3.6651805101,-0.9080470371\N,1.1266938099,2.7081346664,0.0375109858\N
 ,2.0531938362,2.8630614375,1.037843739\C,3.3997774725,2.5287590511,0.9
 616891584\C,3.8901263913,2.8156999016,2.2052715195\N,2.893068063,3.304

 Normal termination of Gaussian 16 at Wed Dec  9 17:58:14 2020.

 --------------------------------------------------------------------
 #N Geom=AllCheck Guess=TCheck SCRF=Check GenChk RB3LYP/6-31G(d) Freq
 --------------------------------------------------------------------

 Structure from the checkpoint file:  "JID_2901.chk"
 -------------------------------
 CID_142548542_JID_2901_neutraal
 -------------------------------
 Charge =  0 Multiplicity = 1

 SCF Done:  E(RB3LYP) =  -529.879297264     A.U. after    1 cycles

  Exact polarizability: 125.690  -7.705  86.582  -0.002   0.000  85.063
 Approx polarizability: 194.285  -8.443 131.773  -0.007   0.001 132.301

                      1                      2                      3
                      A                      A                      A
 Frequencies --     48.6151                71.6875                77.3421
 Red. masses --      2.8535                 2.6672                 3.7375
 Frc consts  --      0.0040                 0.0081                 0.0132
 IR Inten    --      0.0186                 2.3975                 2.3898

                      4                      5                      6
                      A                      A                      A
 Frequencies --     97.0725               102.3619               233.3695
 Red. masses --      1.1903                 1.2499                 3.1378
 Frc consts  --      0.0066                 0.0077                 0.1007
 IR Inten    --      0.0539                 0.1921                 3.3179

                      7                      8                      9
                      A                      A                      A
 Frequencies --    233.7104               278.1073               291.0860
 Red. masses --      3.1984                 3.3984                 3.3944
 Frc consts  --      0.1029                 0.1549                 0.1695
 IR Inten    --      3.0090                 1.2409                 4.3771

                     10                     11                     12
                      A                      A                      A
 Frequencies --    401.6678               462.8423               485.6769
 Red. masses --      5.1849                 3.6442                 3.9774
 Frc consts  --      0.4929                 0.4600                 0.5528
 IR Inten    --      1.8162                 7.8490                 1.0482

                     13                     14                     15
                      A                      A                      A
 Frequencies --    620.3513               625.4203               672.4679
 Red. masses --      4.4925                 4.5475                 3.7927
 Frc consts  --      1.0186                 1.0480                 1.0105
 IR Inten    --      0.2358                 0.9539                20.0977

                     16                     17                     18
                      A                      A                      A
 Frequencies --    681.6907               698.7364               714.5620
 Red. masses --      3.8213                 4.6080                 1.3322
 Frc consts  --      1.0462                 1.3255                 0.4008
 IR Inten    --     16.3947                 8.5824                20.7603

                     19                     20                     21
                      A                      A                      A
 Frequencies --    717.6397               718.9172               851.0665
 Red. masses --      3.3911                 1.4464                 1.3041
 Frc consts  --      1.0290                 0.4404                 0.5565
 IR Inten    --      0.6250                18.7753                 5.1530

                     22                     23                     24
                      A                      A                      A
 Frequencies --    851.2613               926.0676               928.1830
 Red. masses --      1.2946                 5.8120                 5.6148
 Frc consts  --      0.5527                 2.9367                 2.8501
 IR Inten    --      5.4983                 0.9347                 0.9972

                     25                     26                     27
                      A                      A                      A
 Frequencies --    986.9043              1008.9483              1010.5527
 Red. masses --      1.9239                 1.6088                 2.1888
 Frc consts  --      1.1040                 0.9649                 1.3169
 IR Inten    --      7.3827                 5.6481                17.7701

                     28                     29                     30
                      A                      A                      A
 Frequencies --   1075.1597              1078.1215              1098.8405
 Red. masses --      1.4582                 1.4670                 1.3872
 Frc consts  --      0.9931                 1.0046                 0.9869
 IR Inten    --      1.6255                 2.8248                 1.9257

                     31                     32                     33
                      A                      A                      A
 Frequencies --   1137.1997              1170.6877              1180.8147
 Red. masses --      1.8398                 2.1330                 2.0101
 Frc consts  --      1.4018                 1.7223                 1.6513
 IR Inten    --     16.3541                 9.8388                11.7792

                     34                     35                     36
                      A                      A                      A
 Frequencies --   1205.6243              1225.2753              1342.7724
 Red. masses --      4.2339                 3.6550                 2.3394
 Frc consts  --      3.6259                 3.2330                 2.4852
 IR Inten    --      1.0089                59.1103                 1.2739

                     37                     38                     39
                      A                      A                      A
 Frequencies --   1364.3872              1381.5078              1417.7009
 Red. masses --      5.1703                 5.6441                 2.0673
 Frc consts  --      5.6708                 6.3467                 2.4480
 IR Inten    --     31.4709                 1.1048                43.2854

                     40                     41                     42
                      A                      A                      A
 Frequencies --   1440.2762              1440.3455              1503.8625
 Red. masses --      1.2628                 1.4442                 1.0482
 Frc consts  --      1.5434                 1.7653                 1.3967
 IR Inten    --      1.0658                34.0491                11.9294

                     43                     44                     45
                      A                      A                      A
 Frequencies --   1504.6251              1510.1587              1514.2641
 Red. masses --      1.3935                 1.0592                 1.2657
 Frc consts  --      1.8587                 1.4232                 1.7099
 IR Inten    --      4.6879                10.7168                 3.7137

                     46                     47                     48
                      A                      A                      A
 Frequencies --   1524.0356              1538.1980              1542.3781
 Red. masses --      5.1507                 2.9175                 3.4638
 Frc consts  --      7.0486                 4.0671                 4.8549
 IR Inten    --      1.8529                 0.3238                 3.1812

                     49                     50                     51
                      A                      A                      A
 Frequencies --   1602.2309              1603.0829              3054.1755
 Red. masses --      6.2688                 6.3554                 1.0398
 Frc consts  --      9.4817                 9.6228                 5.7149
 IR Inten    --     43.4127                10.0427                14.5607

                     52                     53                     54
                      A                      A                      A
 Frequencies --   3054.3983              3104.7660              3105.6220
 Red. masses --      1.0400                 1.1002                 1.1002
 Frc consts  --      5.7166                 6.2487                 6.2522
 IR Inten    --     17.9939                14.0841                 8.8189

                     55                     56                     57
                      A                      A                      A
 Frequencies --   3169.6894              3169.8009              3266.2702
 Red. masses --      1.0993                 1.0992                 1.0934
 Frc consts  --      6.5070                 6.5071                 6.8727
 IR Inten    --      8.4587                 0.7445                10.2668

                     58                     59                     60
                      A                      A                      A
 Frequencies --   3266.3151              3304.0460              3304.5438
 Red. masses --      1.0934                 1.1034                 1.1037
 Frc consts  --      6.8732                 7.0971                 7.1009
 IR Inten    --      4.9810                 2.4933                 0.0113

 - Thermochemistry -
 -------------------
 Temperature   298.150 Kelvin.  Pressure   1.00000 Atm.
 Atom     1 has atomic number  6 and mass  12.00000

 Molecular mass:   162.09055 amu.
 Principal axes and moments of inertia in atomic units:
                           1         2         3
     Eigenvalues --   986.103002548.587832581.80472
           X            1.00000   0.00010  -0.00000
           Y           -0.00010   1.00000  -0.00001
           Z            0.00000   0.00001   1.00000
 This molecule is an asymmetric top.
 Rotational symmetry number  1.
 Warning -- assumption of classical behavior for rotation
           may cause significant error
 Rotational temperatures (Kelvin)      0.08783     0.03399     0.03355
 Rotational constants (GHZ):           1.83018     0.70813     0.69902
 Zero-point vibrational energy     466528.6 (Joules/Mol)
                                  111.50300 (Kcal/Mol)
 Warning -- explicit consideration of  13 degrees of freedom as
           vibrations may cause significant error
 Vibrational temperatures:     69.95   103.14   111.28   139.67   147.28
          (Kelvin)            335.77   336.26   400.13   418.81   577.91
                              665.93   698.78   892.55   899.84   967.53
                              980.80  1005.33  1028.10  1032.52  1034.36
                             1224.49  1224.78  1332.40  1335.45  1419.94
                             1451.65  1453.96  1546.91  1551.18  1580.99
                             1636.18  1684.36  1698.93  1734.62  1762.90
                             1931.95  1963.05  1987.68  2039.76  2072.24
                             2072.34  2163.72  2164.82  2172.78  2178.69
                             2192.75  2213.12  2219.14  2305.25  2306.48
                             4394.28  4394.60  4467.07  4468.30  4560.48
                             4560.64  4699.43  4699.50  4753.79  4754.50

 Zero-point correction=                           0.177691 (Hartree/Particle)
 Thermal correction to Energy=                    0.188658
 Thermal correction to Enthalpy=                  0.189602
 Thermal correction to Gibbs Free Energy=         0.139930
 Sum of electronic and zero-point Energies=           -529.701606
 Sum of electronic and thermal Energies=              -529.690639
 Sum of electronic and thermal Enthalpies=            -529.689695
 Sum of electronic and thermal Free Energies=         -529.739367

                     E (Thermal)             CV                S
                      KCal/Mol        Cal/Mol-Kelvin    Cal/Mol-Kelvin
 Total                  118.385             40.169            104.544
 Electronic               0.000              0.000              0.000
 Translational            0.889              2.981             41.158
 Rotational               0.889              2.981             30.252
 Vibrational            116.607             34.208             33.135
 Vibration     1          0.595              1.978              4.873
 Vibration     2          0.598              1.968              4.106
 Vibration     3          0.599              1.964              3.957
 Vibration     4          0.603              1.951              3.512
 Vibration     5          0.604              1.947              3.409
 Vibration     6          0.654              1.790              1.853
 Vibration     7          0.654              1.789              1.850
 Vibration     8          0.679              1.714              1.545
 Vibration     9          0.687              1.690              1.468
 Vibration    10          0.767              1.467              0.957
 Vibration    11          0.820              1.332              0.758
 Vibration    12          0.842              1.282              0.695
 Vibration    13          0.980              0.989              0.416

                           ! Non-Optimized Parameters !

 1\1\GINC-NODE211\Freq\RB3LYP\6-31G(d)\C8H10N4\VSC10255\09-Dec-2020\0\\
 #N Geom=AllCheck Guess=TCheck SCRF=Check GenChk RB3LYP/6-31G(d) Freq\\
 CID_142548542_JID_2901_neutraal\\0,1\C,0.4387081167,0.3736743238,0.687
 6926873\C,0.3370335481,1.5926291537,-0.1632229912\N,-0.4723489294,1.79
 41137332,-1.1793996294\C,-0.2065811986,3.0697483866,-1.6450692814\C,0.
 779082153,3.6651805101,-0.9080470371\N,1.1266938099,2.7081346664,0.037
 5109858\N,2.0531938362,2.8630614375,1.037843739\C,3.3997774725,2.52875
 90511,0.9616891584\C,3.8901263913,2.8156999016,2.2052715195\N,2.893068

 Normal termination of Gaussian 16 at Wed Dec  9 18:03:38 2020.

 ----------------------------------------------------------------------
 # B3LYP/6-311++G(d,p) empiricaldispersion=gd3bj scf=xqc pop=npa geom=c
 heck
 ----------------------------------------------------------------------

 ---------------------------------------
 CID_142548542_JID_2901_Energie_neutraal
 ---------------------------------------
 Structure from the checkpoint file:  "JID_2901.chk"
 Charge =  0 Multiplicity = 1

 SCF Done:  E(RB3LYP) =  -530.020405599     A.U. after   14 cycles
 Normal termination of Gaussian 16 at Wed Dec  9 18:06:03 2020.

 ----------------------------------------------------------------------
 # B3LYP/6-311++G(d,p) empiricaldispersion=gd3bj scf=xqc pop=npa geom=c
 heck
 ----------------------------------------------------------------------

 -------------------------------------
 CID_142548542_JID_2901_Energie_kation
 -------------------------------------
 Structure from the checkpoint file:  "JID_2901.chk"
 Charge =  1 Multiplicity = 2

 SCF Done:  E(UB3LYP) =  -529.708301388     A.U. after   21 cycles
 Normal termination of Gaussian 16 at Wed Dec  9 18:10:41 2020.
 Gaussian 16:  ES64L-G16RevA.03 25-Dec-2016

 ------------------------------------
 CID_142548542_JID_2901_Energie_anion
 ------------------------------------
 Structure from the checkpoint file:  "JID_2901.chk"
 Charge = -1 Multiplicity = 2

                         Standard orientation:
 ---------------------------------------------------------------------
 Center     Atomic      Atomic             Coordinates (Angstroms)
 Number     Number       Type             X           Y           Z
 ---------------------------------------------------------------------
      1          6           0       -1.110148   -1.640966    1.410868
      2          6           0       -1.560756   -0.612751    0.431086
      3          7           0       -2.791020   -0.209259    0.203146
      4          6           0       -2.709659    0.758796   -0.782234
      5          6           0       -1.413296    0.957104   -1.168742
      6          7           0       -0.682671    0.068646   -0.389203
      7          7           0        0.682685   -0.068735   -0.389148
      8          6           0        1.413325   -0.957479   -1.168342
      9          6           0        2.709716   -0.758783   -0.782124
     10          7           0        2.791050    0.209560    0.202976
     11          6           0        1.560731    0.612784    0.431086
     12          6           0        1.110062    1.641076    1.410759
     13          1           0       -1.992310   -2.075658    1.883627
     14          1           0       -0.471639   -1.208160    2.190498
     15          1           0       -0.535616   -2.437805    0.925224
     16          1           0       -3.597075    1.252333   -1.153351
     17          1           0       -0.929253    1.596110   -1.890429
     18          1           0        0.929294   -1.596772   -1.889783
     19          1           0        3.597168   -1.252243   -1.153253
     20          1           0        1.992209    2.076063    1.883275
     21          1           0        0.535256    2.437686    0.925068
     22          1           0        0.471798    1.208273    2.190593
 ---------------------------------------------------------------------

 SCF Done:  E(UB3LYP) =  -530.005195621     A.U. after   28 cycles

 The electronic state is 2-A.
 Alpha  occ. eigenvalues --  -14.31539 -14.31521 -14.20357 -14.20356 -10.14468
 Alpha  occ. eigenvalues --  -10.14468 -10.10968 -10.10968 -10.09499 -10.09498
 Alpha  occ. eigenvalues --  -10.08187 -10.08187  -0.98938  -0.90758  -0.83062
 Alpha  occ. eigenvalues --   -0.73300  -0.69214  -0.68578  -0.61618  -0.60089
 Alpha  occ. eigenvalues --   -0.55349  -0.51926  -0.51868  -0.45140  -0.44320
 Alpha  occ. eigenvalues --   -0.38682  -0.37388  -0.37211  -0.35995  -0.34499
 Alpha  occ. eigenvalues --   -0.34143  -0.31610  -0.31569  -0.30801  -0.30263
 Alpha  occ. eigenvalues --   -0.29889  -0.29611  -0.20718  -0.20321  -0.17945
 Alpha  occ. eigenvalues --   -0.17655  -0.14170  -0.13930   0.04560
 Alpha virt. eigenvalues --    0.06894   0.07135   0.08001   0.09068   0.09144
 Alpha virt. eigenvalues --    0.09360   0.10068   0.11013   0.11272   0.11753
 Alpha virt. eigenvalues --    0.13014   0.13225   0.13824   0.14145   0.15078

  Beta  occ. eigenvalues --  -14.31538 -14.31520 -14.20351 -14.20351 -10.14467
  Beta  occ. eigenvalues --  -10.14467 -10.10944 -10.10943 -10.09492 -10.09492
  Beta  occ. eigenvalues --  -10.08142 -10.08142  -0.98932  -0.90747  -0.83054
  Beta  occ. eigenvalues --   -0.73288  -0.69183  -0.68547  -0.61564  -0.60028
  Beta  occ. eigenvalues --   -0.55330  -0.51904  -0.51846  -0.45083  -0.44255
  Beta  occ. eigenvalues --   -0.38645  -0.37352  -0.37165  -0.35957  -0.34463
  Beta  occ. eigenvalues --   -0.34105  -0.31569  -0.31527  -0.30761  -0.30221
  Beta  occ. eigenvalues --   -0.29848  -0.29577  -0.20708  -0.20315  -0.17933
  Beta  occ. eigenvalues --   -0.17642  -0.14149  -0.13907
  Beta virt. eigenvalues --    0.07003   0.07920   0.08129   0.08560   0.09360
  Beta virt. eigenvalues --    0.09836   0.10088   0.10395   0.11504   0.11703
  Beta virt. eigenvalues --    0.12225   0.13476   0.13572   0.13923   0.14149

 Mulliken charges and spin densities:
               1          2
     1  C    3.424645  -4.035347
     2  C   -2.164276   1.999393
     3  N   -0.175222   0.111017
     4  C    0.047427  -0.129312
     5  C    0.263405  -0.316598
     6  N    0.027491   0.074360
     7  N    0.027909   0.074132
     8  C    0.263181  -0.316458
     9  C    0.047936  -0.129754
    10  N   -0.175210   0.110997
    11  C   -2.163412   1.998490
    12  C    3.423474  -4.034174
    13  H   -0.110556   0.289733
    14  H   -0.204021   0.365909
    15  H   -0.270274   0.448789
    16  H   -0.371288   0.543516
    17  H   -0.967552   1.148698
    18  H   -0.967865   1.149021
    19  H   -0.371335   0.543559
    20  H   -0.110438   0.289613
    21  H   -0.270084   0.448588
    22  H   -0.203936   0.365827
 Sum of Mulliken charges =  -1.00000   1.00000

 Dipole moment (field-independent basis, Debye):
    X=             -0.0000    Y=              0.0021    Z=              0.9438  Tot=              0.9438
 Quadrupole moment (field-independent basis, Debye-Ang):
   XX=           -122.2745   YY=           -115.7619   ZZ=           -114.1661
   XY=              0.0275   XZ=              0.0012   YZ=             -0.0004

 Summary of Natural Population Analysis:

                                       Natural Population
                Natural  -----------------------------------------------
    Atom  No    Charge         Core      Valence    Rydberg      Total
 -----------------------------------------------------------------------
      C    1   -0.30967      0.99963     2.30461    0.00543     3.30967
      C    2    0.20241      0.99960     1.78143    0.01656     2.79759
      N    3   -0.25710      0.99969     2.74628    0.01112     3.75710
      C    4   -0.02896      0.99957     2.01668    0.01271     3.02896
      C    5   -0.03014      0.99953     2.01844    0.01217     3.03014
      N    6   -0.12518      0.99959     2.61023    0.01536     3.62518
      N    7   -0.12518      0.99959     2.61023    0.01536     3.62518
      C    8   -0.03014      0.99953     2.01844    0.01217     3.03014
      C    9   -0.02896      0.99957     2.01668    0.01271     3.02896
      N   10   -0.25710      0.99969     2.74628    0.01112     3.75710
      C   11    0.20241      0.99960     1.78143    0.01656     2.79759
      C   12   -0.30967      0.99963     2.30461    0.00543     3.30967
      H   13    0.11572      0.00000     0.38303    0.00126     0.38428
      H   14    0.10987      0.00000     0.38839    0.00175     0.39013
      H   15    0.11264      0.00000     0.38532    0.00204     0.38736
      H   16    0.09830      0.00000     0.40061    0.00108     0.40170
      H   17    0.11211      0.00000     0.38481    0.00307     0.38789
      H   18    0.11211      0.00000     0.38481    0.00308     0.38789
      H   19    0.09830      0.00000     0.40061    0.00108     0.40170
      H   20    0.11571      0.00000     0.38303    0.00126     0.38429
      H   21    0.11264      0.00000     0.38532    0.00204     0.38736
      H   22    0.10987      0.00000     0.38839    0.00174     0.39013
 =======================================================================
   * Total *    0.00000     11.99520    30.83968    0.16512    43.00000

 Normal termination of Gaussian 16 at Wed Dec  9 18:16:35 2020.
