 Gaussian 16, Revision A.03,

 -----------------------------------------------------------
 # opt freq B3LYP/6-31G(d) empiricaldispersion=gd3bj scf=xqc
 -----------------------------------------------------------

 -------------------------------
 CID_150769935_JID_3903_neutraal
 -------------------------------
 Symbolic Z-matrix:
 Charge =  0 Multiplicity = 1

 SCF Done:  E(RB3LYP) =  -1016.98056387     A.U. after   18 cycles
 SCF Done:  E(RB3LYP) =  -1016.99590659     A.U. after   16 cycles
 SCF Done:  E(RB3LYP) =  -1017.00322727     A.U. after   17 cycles
 SCF Done:  E(RB3LYP) =  -1017.00647263     A.U. after   15 cycles
 SCF Done:  E(RB3LYP) =  -1017.00727264     A.U. after   15 cycles
 SCF Done:  E(RB3LYP) =  -1017.00850659     A.U. after   15 cycles
 SCF Done:  E(RB3LYP) =  -1017.00919473     A.U. after   14 cycles
 SCF Done:  E(RB3LYP) =  -1017.00961500     A.U. after   16 cycles
 SCF Done:  E(RB3LYP) =  -1017.00985321     A.U. after   16 cycles
 SCF Done:  E(RB3LYP) =  -1017.01002015     A.U. after   15 cycles
 SCF Done:  E(RB3LYP) =  -1017.02686068     A.U. after    9 cycles
 SCF Done:  E(RB3LYP) =  -1017.02686094     A.U. after    9 cycles
 SCF Done:  E(RB3LYP) =  -1017.02686106     A.U. after    9 cycles
 SCF Done:  E(RB3LYP) =  -1017.02686113     A.U. after    8 cycles
 SCF Done:  E(RB3LYP) =  -1017.02686116     A.U. after    8 cycles
 Optimization completed.
    -- Stationary point found.
 Normal termination of Gaussian 16 at Mon Dec 14 16:52:42 2020.

 --------------------------------------------------------------------
 #N Geom=AllCheck Guess=TCheck SCRF=Check GenChk RB3LYP/6-31G(d) Freq
 --------------------------------------------------------------------

 Structure from the checkpoint file:  "JID_3903.chk"
 -------------------------------
 CID_150769935_JID_3903_neutraal
 -------------------------------
 Charge =  0 Multiplicity = 1

 SCF Done:  E(RB3LYP) =  -1017.02686116     A.U. after    1 cycles

  Exact polarizability: 161.131   3.416 109.598 -13.032   2.555  85.771
 Approx polarizability: 264.316 -11.560 248.298 -46.624   7.755 167.169

                      1                      2                      3
                      A                      A                      A
 Frequencies --     37.6314                49.0243                74.2893
 Red. masses --      6.9695                 3.6712                 7.9534
 Frc consts  --      0.0058                 0.0052                 0.0259
 IR Inten    --      1.6918                 0.5328                 0.8069

                      4                      5                      6
                      A                      A                      A
 Frequencies --     82.5455                90.5041               115.6428
 Red. masses --      7.7096                 6.4893                 6.6101
 Frc consts  --      0.0310                 0.0313                 0.0521
 IR Inten    --      0.2956                 0.7383                 0.0569

                      7                      8                      9
                      A                      A                      A
 Frequencies --    129.5150               157.9901               222.8055
 Red. masses --      4.0037                 6.4056                 3.3149
 Frc consts  --      0.0396                 0.0942                 0.0970
 IR Inten    --      2.1968                 6.4442                10.6949

                     10                     11                     12
                      A                      A                      A
 Frequencies --    232.5511               243.6144               301.5409
 Red. masses --      1.9283                 6.1676                 7.5646
 Frc consts  --      0.0614                 0.2157                 0.4053
 IR Inten    --     30.9419                18.7525                 6.4990

                     13                     14                     15
                      A                      A                      A
 Frequencies --    330.6374               440.0307               447.5599
 Red. masses --      2.6708                 6.5328                 4.7049
 Frc consts  --      0.1720                 0.7453                 0.5553
 IR Inten    --     14.7433                18.7693                 2.0569

                     16                     17                     18
                      A                      A                      A
 Frequencies --    475.3346               544.2076               592.6203
 Red. masses --      6.2666                 3.3485                 1.3127
 Frc consts  --      0.8342                 0.5843                 0.2716
 IR Inten    --      5.4539                51.9481                55.5674

                     19                     20                     21
                      A                      A                      A
 Frequencies --    628.5707               646.1508               695.6812
 Red. masses --     13.2778                13.1947                 9.6535
 Frc consts  --      3.0909                 3.2458                 2.7527
 IR Inten    --      9.4386                 8.9852                22.9453

                     22                     23                     24
                      A                      A                      A
 Frequencies --    746.1207               762.4372               786.4446
 Red. masses --      7.8642                 7.2807                 1.8188
 Frc consts  --      2.5794                 2.4936                 0.6628
 IR Inten    --     27.0189                18.0939                11.7596

                     25                     26                     27
                      A                      A                      A
 Frequencies --    837.8037               860.6937               870.8470
 Red. masses --      2.3287                 1.4010                 3.2322
 Frc consts  --      0.9631                 0.6115                 1.4442
 IR Inten    --     12.9498                 6.2914                10.7836

                     28                     29                     30
                      A                      A                      A
 Frequencies --    897.1589              1019.4548              1068.1733
 Red. masses --      4.5334                 3.1738                 2.3910
 Frc consts  --      2.1499                 1.9434                 1.6074
 IR Inten    --     11.8715                 7.3293                14.8409

                     31                     32                     33
                      A                      A                      A
 Frequencies --   1116.8519              1133.8382              1210.7714
 Red. masses --      4.1555                 2.4842                 1.7690
 Frc consts  --      3.0539                 1.8816                 1.5279
 IR Inten    --    105.4524               163.9008                21.9944

                     34                     35                     36
                      A                      A                      A
 Frequencies --   1228.8537              1290.7640              1343.4443
 Red. masses --      2.0057                 3.0211                 1.1264
 Frc consts  --      1.7845                 2.9656                 1.1978
 IR Inten    --    123.2124               171.9961                 6.1870

                     37                     38                     39
                      A                      A                      A
 Frequencies --   1356.9995              1375.5541              1422.6401
 Red. masses --      2.8710                13.7342                 1.3520
 Frc consts  --      3.1149                15.3112                 1.6121
 IR Inten    --    404.6379                 9.3603                41.0575

                     40                     41                     42
                      A                      A                      A
 Frequencies --   1445.4389              1506.4543              1515.7766
 Red. masses --      1.3437                 2.0725                 1.0535
 Frc consts  --      1.6540                 2.7711                 1.4261
 IR Inten    --      7.8185                91.6161                10.4157

                     43                     44                     45
                      A                      A                      A
 Frequencies --   1519.7524              1537.4070              1574.3574
 Red. masses --      1.0815                 1.0599                 4.7849
 Frc consts  --      1.4717                 1.4760                 6.9876
 IR Inten    --      6.5263                 6.1456                91.3912

                     46                     47                     48
                      A                      A                      A
 Frequencies --   1793.7331              2074.0954              3063.9217
 Red. masses --     11.7118                13.9978                 1.0360
 Frc consts  --     22.2018                35.4788                 5.7302
 IR Inten    --    220.3678               335.6708                16.4057

                     49                     50                     51
                      A                      A                      A
 Frequencies --   3102.3833              3130.9871              3145.1294
 Red. masses --      1.0596                 1.1012                 1.1037
 Frc consts  --      6.0086                 6.3606                 6.4322
 IR Inten    --     20.6617                24.1240                 5.4796

                     52                     53                     54
                      A                      A                      A
 Frequencies --   3165.6721              3288.6529              3626.5037
 Red. masses --      1.1091                 1.0975                 1.0808
 Frc consts  --      6.5489                 6.9937                 8.3744
 IR Inten    --     23.0426                 4.8441               136.9383

 - Thermochemistry -
 -------------------
 Temperature   298.150 Kelvin.  Pressure   1.00000 Atm.
 Atom     1 has atomic number  6 and mass  12.00000

 Molecular mass:   201.03205 amu.
 Principal axes and moments of inertia in atomic units:
                           1         2         3
     Eigenvalues --  1174.345234487.485744807.83513
           X            0.99998  -0.00616   0.00308
           Y            0.00607   0.99954   0.02968
           Z           -0.00326  -0.02967   0.99955
 This molecule is an asymmetric top.
 Rotational symmetry number  1.
 Warning -- assumption of classical behavior for rotation
           may cause significant error
 Rotational temperatures (Kelvin)      0.07376     0.01930     0.01802
 Rotational constants (GHZ):           1.53681     0.40217     0.37538
 Zero-point vibrational energy     366999.7 (Joules/Mol)
                                   87.71504 (Kcal/Mol)
 Warning -- explicit consideration of  18 degrees of freedom as
           vibrations may cause significant error
 Vibrational temperatures:     54.14    70.54   106.89   118.76   130.22
          (Kelvin)            166.38   186.34   227.31   320.57   334.59
                              350.51   433.85   475.71   633.11   643.94
                              683.90   782.99   852.65   904.37   929.67
                             1000.93  1073.50  1096.98  1131.52  1205.41
                             1238.35  1252.95  1290.81  1466.77  1536.86
                             1606.90  1631.34  1742.03  1768.05  1857.12
                             1932.92  1952.42  1979.12  2046.86  2079.66
                             2167.45  2180.86  2186.58  2211.99  2265.15
                             2580.78  2984.16  4408.30  4463.64  4504.79
                             4525.14  4554.70  4731.64  5217.73

 Zero-point correction=                           0.139783 (Hartree/Particle)
 Thermal correction to Energy=                    0.153229
 Thermal correction to Enthalpy=                  0.154174
 Thermal correction to Gibbs Free Energy=         0.097901
 Sum of electronic and zero-point Energies=          -1016.887078
 Sum of electronic and thermal Energies=             -1016.873632
 Sum of electronic and thermal Enthalpies=           -1016.872688
 Sum of electronic and thermal Free Energies=        -1016.928960

                     E (Thermal)             CV                S
                      KCal/Mol        Cal/Mol-Kelvin    Cal/Mol-Kelvin
 Total                   96.153             46.183            118.435
 Electronic               0.000              0.000              0.000
 Translational            0.889              2.981             41.799
 Rotational               0.889              2.981             31.605
 Vibrational             94.375             40.221             45.030
 Vibration     1          0.594              1.982              5.380
 Vibration     2          0.595              1.978              4.856
 Vibration     3          0.599              1.966              4.036
 Vibration     4          0.600              1.961              3.829
 Vibration     5          0.602              1.956              3.649
 Vibration     6          0.608              1.936              3.172
 Vibration     7          0.612              1.924              2.953
 Vibration     8          0.621              1.894              2.574
 Vibration     9          0.648              1.806              1.936
 Vibration    10          0.653              1.791              1.859
 Vibration    11          0.659              1.773              1.776
 Vibration    12          0.694              1.671              1.408
 Vibration    13          0.713              1.614              1.257
 Vibration    14          0.800              1.383              0.827
 Vibration    15          0.807              1.366              0.803
 Vibration    16          0.832              1.305              0.723
 Vibration    17          0.899              1.152              0.556
 Vibration    18          0.950              1.047              0.463

 Optimization completed.
    -- Stationary point found.
 Normal termination of Gaussian 16 at Mon Dec 14 16:56:39 2020.

 ----------------------------------------------------------------------
 # B3LYP/6-311++G(d,p) empiricaldispersion=gd3bj scf=xqc pop=npa geom=c
 heck
 ----------------------------------------------------------------------

 ---------------------------------------
 CID_150769935_JID_3903_Energie_neutraal
 ---------------------------------------
 Structure from the checkpoint file:  "JID_3903.chk"
 Charge =  0 Multiplicity = 1

 SCF Done:  E(RB3LYP) =  -1017.23427636     A.U. after   20 cycles
 Normal termination of Gaussian 16 at Mon Dec 14 16:58:50 2020.

 ----------------------------------------------------------------------
 # B3LYP/6-311++G(d,p) empiricaldispersion=gd3bj scf=xqc pop=npa geom=c
 heck
 ----------------------------------------------------------------------

 -------------------------------------
 CID_150769935_JID_3903_Energie_kation
 -------------------------------------
 Structure from the checkpoint file:  "JID_3903.chk"
 Charge =  1 Multiplicity = 2

 SCF Done:  E(UB3LYP) =  -1016.94396795     A.U. after   33 cycles
 SCF Done:  E(UB3LYP) =  -1016.94396795     a.u. after    2 cycles
 Normal termination of Gaussian 16 at Mon Dec 14 17:08:01 2020.
 Gaussian 16:  ES64L-G16RevA.03 25-Dec-2016

 ----------------------------------------------------------------------
 # B3LYP/6-311++G(d,p) empiricaldispersion=gd3bj scf=xqc pop=npa geom=c
 heck
 ----------------------------------------------------------------------

 ------------------------------------
 CID_150769935_JID_3903_Energie_anion
 ------------------------------------
 Structure from the checkpoint file:  "JID_3903.chk"
 Charge = -1 Multiplicity = 2

                         Standard orientation:
 ---------------------------------------------------------------------
 Center     Atomic      Atomic             Coordinates (Angstroms)
 Number     Number       Type             X           Y           Z
 ---------------------------------------------------------------------
      1          6           0       -4.473640   -0.164666    0.226992
      2          6           0       -3.533624    0.281346   -0.879942
      3          8           0       -2.223890   -0.330172   -0.734436
      4          6           0       -1.384705    0.274685    0.129670
      5          8           0       -1.633306    1.271176    0.779236
      6          6           0       -0.103476   -0.427342    0.204783
      7          6           0        0.342786   -1.547912   -0.452869
      8          7           0        1.600563   -1.854907   -0.089336
      9          7           0        2.234785   -1.038252    0.785019
     10         16           0        1.204406    0.198503    1.159125
     11          7           0        3.597761    0.305143   -1.134928
     12          7           0        2.839255    1.136213   -0.808634
     13          7           0        2.006682    1.884912   -0.375160
     14          1           0       -4.553028   -1.256161    0.254105
     15          1           0       -5.472661    0.249411    0.051416
     16          1           0       -4.120044    0.192032    1.197866
     17          1           0       -3.872596   -0.053856   -1.862138
     18          1           0       -3.409250    1.366306   -0.887208
     19          1           0       -0.199998   -2.154414   -1.163707
     20          1           0        2.177270   -2.575830   -0.505270
 ---------------------------------------------------------------------

 SCF Done:  E(UB3LYP) =  -1017.27569674     A.U. after   25 cycles

 The electronic state is 2-A.
 Alpha  occ. eigenvalues --  -88.75066 -19.04677 -18.97202 -14.27870 -14.25284
 Alpha  occ. eigenvalues --  -14.20196 -14.13283 -14.12766 -10.16533 -10.13202
 Alpha  occ. eigenvalues --  -10.10843 -10.07911 -10.06583  -7.83563  -5.79903
 Alpha  occ. eigenvalues --   -5.79427  -5.79284  -0.98372  -0.92470  -0.90586
 Alpha  occ. eigenvalues --   -0.89210  -0.73854  -0.71497  -0.69560  -0.66994
 Alpha  occ. eigenvalues --   -0.57413  -0.51751  -0.51048  -0.45039  -0.43593
 Alpha  occ. eigenvalues --   -0.39555  -0.37211  -0.35363  -0.34082  -0.33390
 Alpha  occ. eigenvalues --   -0.32485  -0.30937  -0.29231  -0.28591  -0.28010
 Alpha  occ. eigenvalues --   -0.27631  -0.26642  -0.24289  -0.23159  -0.21121
 Alpha  occ. eigenvalues --   -0.19237  -0.17840  -0.16258  -0.15649  -0.15381
 Alpha  occ. eigenvalues --   -0.05532  -0.04331   0.02368
 Alpha virt. eigenvalues --    0.06592   0.08249   0.08872   0.09421   0.09869
 Alpha virt. eigenvalues --    0.11604   0.12401   0.13027   0.13905   0.14593
 Alpha virt. eigenvalues --    0.15562   0.15766   0.16353   0.16982   0.17872

  Beta  occ. eigenvalues --  -88.74834 -19.04613 -18.97023 -14.27897 -14.25341
  Beta  occ. eigenvalues --  -14.19412 -14.12984 -14.12565 -10.16382 -10.13206
  Beta  occ. eigenvalues --  -10.10914 -10.07904 -10.06426  -7.83351  -5.79776
  Beta  occ. eigenvalues --   -5.79269  -5.78614  -0.98174  -0.92017  -0.90367
  Beta  occ. eigenvalues --   -0.88925  -0.73382  -0.70828  -0.69206  -0.66837
  Beta  occ. eigenvalues --   -0.57187  -0.51484  -0.50366  -0.44874  -0.43489
  Beta  occ. eigenvalues --   -0.39463  -0.36949  -0.35094  -0.33563  -0.32823
  Beta  occ. eigenvalues --   -0.32081  -0.30784  -0.28776  -0.28332  -0.27818
  Beta  occ. eigenvalues --   -0.27242  -0.26250  -0.24195  -0.22550  -0.20506
  Beta  occ. eigenvalues --   -0.18575  -0.16969  -0.15470  -0.14841  -0.13021
  Beta  occ. eigenvalues --   -0.04058  -0.03506
  Beta virt. eigenvalues --    0.06520   0.08200   0.08732   0.09234   0.09830
  Beta virt. eigenvalues --    0.10914   0.11595   0.12373   0.13018   0.14086
  Beta virt. eigenvalues --    0.14810   0.15577   0.15782   0.16410   0.17097

 Mulliken charges and spin densities:
               1          2
     1  C   -0.273672  -0.033407
     2  C   -0.226685   0.017845
     3  O   -0.050251   0.012211
     4  C   -0.886426   0.063403
     5  O   -0.307157   0.063318
     6  C    0.038495   0.038445
     7  C    0.302720  -0.015904
     8  N   -0.260915  -0.000997
     9  N    0.034228   0.277153
    10  S    0.163375   0.369029
    11  N   -0.222243   0.160335
    12  N   -0.056093  -0.020075
    13  N   -0.435341   0.029089
    14  H    0.118599   0.004331
    15  H    0.106355   0.010672
    16  H    0.163996   0.015163
    17  H    0.136333   0.002819
    18  H    0.176896  -0.000579
    19  H    0.173327   0.002897
    20  H    0.304459   0.004253
 Sum of Mulliken charges =  -1.00000   1.00000

 Dipole moment (field-independent basis, Debye):
    X=             -9.3126    Y=             -6.2792    Z=             -0.8683  Tot=             11.2653
 Quadrupole moment (field-independent basis, Debye-Ang):
   XX=           -123.6316   YY=            -93.4017   ZZ=            -93.6210
   XY=             -7.2656   XZ=              9.4113   YZ=              3.8525

 Summary of Natural Population Analysis:

                                       Natural Population
                Natural  -----------------------------------------------
    Atom  No    Charge         Core      Valence    Rydberg      Total
 -----------------------------------------------------------------------
      C    1   -0.29986      0.99967     2.29602    0.00417     3.29986
      C    2   -0.01651      0.99960     2.00664    0.01028     3.01651
      O    3   -0.28490      0.99986     3.27602    0.00902     4.28490
      C    4    0.40251      0.99959     1.57392    0.02399     2.59749
      O    5   -0.29808      0.99988     3.29239    0.00581     4.29808
      C    6   -0.16172      0.99949     2.14945    0.01278     3.16172
      C    7   -0.01571      0.99952     2.00416    0.01203     3.01571
      N    8   -0.16760      0.99969     2.65564    0.01226     3.66760
      N    9   -0.12819      0.99984     2.61163    0.01672     3.62819
      S   10    0.51168      4.99939     2.45730    0.03163     7.48832
      N   11   -0.14939      0.99982     2.63464    0.01493     3.64939
      N   12    0.05052      0.99975     2.42846    0.02127     3.44948
      N   13   -0.22767      0.99981     2.71199    0.01588     3.72767
      H   14    0.09637      0.00000     0.40264    0.00099     0.40363
      H   15    0.09465      0.00000     0.40447    0.00088     0.40535
      H   16    0.10964      0.00000     0.38925    0.00111     0.39036
      H   17    0.08329      0.00000     0.41559    0.00111     0.41671
      H   18    0.09591      0.00000     0.40267    0.00142     0.40409
      H   19    0.10703      0.00000     0.39179    0.00118     0.39297
      H   20    0.19802      0.00000     0.29977    0.00222     0.30198
 =======================================================================
   * Total *    0.00000     16.99589    34.80444    0.19967    52.00000

 Normal termination of Gaussian 16 at Mon Dec 14 17:12:01 2020.
