 Gaussian 16, Revision A.03,

 -----------------------------------------------------------
 # opt freq B3LYP/6-31G(d) empiricaldispersion=gd3bj scf=xqc
 -----------------------------------------------------------

 -------------------------------
 CID_152689409_JID_8361_neutraal
 -------------------------------
 Symbolic Z-matrix:
 Charge =  0 Multiplicity = 1

 SCF Done:  E(RB3LYP) =  -846.210417163     A.U. after   16 cycles
 SCF Done:  E(RB3LYP) =  -846.223380223     A.U. after   15 cycles
 SCF Done:  E(RB3LYP) =  -846.225804917     A.U. after   15 cycles
 SCF Done:  E(RB3LYP) =  -846.227490558     A.U. after   14 cycles
 SCF Done:  E(RB3LYP) =  -846.228252036     A.U. after   13 cycles
 SCF Done:  E(RB3LYP) =  -846.228726594     A.U. after   13 cycles
 SCF Done:  E(RB3LYP) =  -846.228871609     A.U. after   13 cycles
 SCF Done:  E(RB3LYP) =  -846.228992719     A.U. after   11 cycles
 SCF Done:  E(RB3LYP) =  -846.229017054     A.U. after   11 cycles
 SCF Done:  E(RB3LYP) =  -846.229020716     A.U. after    9 cycles
 SCF Done:  E(RB3LYP) =  -846.229021426     A.U. after    8 cycles
 SCF Done:  E(RB3LYP) =  -846.229021669     A.U. after    8 cycles
 Optimization completed.
    -- Stationary point found.
 Normal termination of Gaussian 16 at Fri Dec 11 20:13:28 2020.

 --------------------------------------------------------------------
 #N Geom=AllCheck Guess=TCheck SCRF=Check GenChk RB3LYP/6-31G(d) Freq
 --------------------------------------------------------------------

 Structure from the checkpoint file:  "JID_8361.chk"
 -------------------------------
 CID_152689409_JID_8361_neutraal
 -------------------------------
 Charge =  0 Multiplicity = 1

 SCF Done:  E(RB3LYP) =  -846.229021669     A.U. after    1 cycles

  Exact polarizability: 290.354  -6.239 162.895   1.226  -5.889  70.925
 Approx polarizability: 535.347 -42.646 258.595   7.388 -14.978 110.016

                      1                      2                      3
                      A                      A                      A
 Frequencies --     40.7187                61.0208                64.4587
 Red. masses --      7.3964                 2.8074                 4.3918
 Frc consts  --      0.0072                 0.0062                 0.0108
 IR Inten    --      0.2143                 0.1333                 0.3993

                      4                      5                      6
                      A                      A                      A
 Frequencies --     91.1531               111.5790               132.1977
 Red. masses --      7.0954                 6.1037                 1.0513
 Frc consts  --      0.0347                 0.0448                 0.0108
 IR Inten    --      2.2688                 0.0224                 0.8424

                      7                      8                      9
                      A                      A                      A
 Frequencies --    139.7445               185.5506               213.8243
 Red. masses --      7.8663                 5.4228                 3.7746
 Frc consts  --      0.0905                 0.1100                 0.1017
 IR Inten    --      0.5729                 0.6332                10.0469

                     10                     11                     12
                      A                      A                      A
 Frequencies --    219.4531               239.6390               246.5867
 Red. masses --      1.8116                 2.6021                 2.8432
 Frc consts  --      0.0514                 0.0880                 0.1019
 IR Inten    --      1.1280                 0.8297                 1.3428

                     13                     14                     15
                      A                      A                      A
 Frequencies --    294.5037               323.3126               328.0830
 Red. masses --      2.8006                 1.3951                 3.7069
 Frc consts  --      0.1431                 0.0859                 0.2351
 IR Inten    --      4.4845               335.3519                47.3309

                     16                     17                     18
                      A                      A                      A
 Frequencies --    359.4999               378.7494               399.9949
 Red. masses --      5.8279                 5.1056                 3.7208
 Frc consts  --      0.4438                 0.4315                 0.3507
 IR Inten    --     14.5383                 0.7284                 7.9574

                     19                     20                     21
                      A                      A                      A
 Frequencies --    406.8852               443.9798               465.1811
 Red. masses --      5.7587                 6.2319                 5.0462
 Frc consts  --      0.5617                 0.7238                 0.6434
 IR Inten    --      2.2832                 5.8890                10.1087

                     22                     23                     24
                      A                      A                      A
 Frequencies --    508.4185               526.2643               532.8697
 Red. masses --      2.0559                 6.6079                 1.7884
 Frc consts  --      0.3131                 1.0783                 0.2992
 IR Inten    --      8.1266                 6.9063                 3.0459

                     25                     26                     27
                      A                      A                      A
 Frequencies --    557.6104               585.7031               604.8547
 Red. masses --      5.1025                 3.6341                 3.8278
 Frc consts  --      0.9347                 0.7345                 0.8251
 IR Inten    --     16.0894                 1.5671                 2.6363

                     28                     29                     30
                      A                      A                      A
 Frequencies --    611.2645               639.5310               724.0564
 Red. masses --      5.8168                 6.8301                10.0613
 Frc consts  --      1.2805                 1.6459                 3.1078
 IR Inten    --      3.3545                 8.3071                 1.9577

                     31                     32                     33
                      A                      A                      A
 Frequencies --    741.0354               749.8872               790.4166
 Red. masses --     10.4265                 3.7090                 1.7444
 Frc consts  --      3.3734                 1.2289                 0.6421
 IR Inten    --      5.9087                12.9696                 1.6586

                     34                     35                     36
                      A                      A                      A
 Frequencies --    801.5718               838.2855               880.8366
 Red. masses --      8.4607                 3.4371                 5.0641
 Frc consts  --      3.2029                 1.4230                 2.3150
 IR Inten    --     23.0557                 2.7232                14.4334

                     37                     38                     39
                      A                      A                      A
 Frequencies --    916.3462               918.2527               996.2116
 Red. masses --      1.3877                 3.2583                 1.8877
 Frc consts  --      0.6866                 1.6187                 1.1038
 IR Inten    --     19.6266                11.1507                10.8026

                     40                     41                     42
                      A                      A                      A
 Frequencies --   1024.5577              1045.1984              1067.3225
 Red. masses --      3.7293                 3.7830                 1.5865
 Frc consts  --      2.3065                 2.4349                 1.0648
 IR Inten    --      5.1841                10.8279                 1.6443

                     43                     44                     45
                      A                      A                      A
 Frequencies --   1094.2413              1124.8774              1126.0300
 Red. masses --      2.2086                 1.9368                 1.7035
 Frc consts  --      1.5581                 1.4439                 1.2726
 IR Inten    --      1.7826                 7.4361                 4.5346

                     46                     47                     48
                      A                      A                      A
 Frequencies --   1180.1765              1191.9184              1273.3249
 Red. masses --      2.7560                 3.9738                 2.3523
 Frc consts  --      2.2616                 3.3262                 2.2471
 IR Inten    --     10.3135                50.4367                13.2815

                     49                     50                     51
                      A                      A                      A
 Frequencies --   1310.4317              1342.6563              1374.0594
 Red. masses --      3.2104                 5.5575                 2.2011
 Frc consts  --      3.2482                 5.9028                 2.4485
 IR Inten    --     13.0073                37.9932                25.2319

                     52                     53                     54
                      A                      A                      A
 Frequencies --   1395.5446              1401.1739              1410.3970
 Red. masses --      2.9207                 2.5663                 1.5574
 Frc consts  --      3.3514                 2.9686                 1.8253
 IR Inten    --    117.4226                29.9026                53.6621

                     55                     56                     57
                      A                      A                      A
 Frequencies --   1427.6152              1436.1962              1466.9290
 Red. masses --      1.4249                 1.2909                 3.7161
 Frc consts  --      1.7110                 1.5688                 4.7114
 IR Inten    --     52.1131                18.0129                68.7865

                     58                     59                     60
                      A                      A                      A
 Frequencies --   1485.2898              1503.1485              1512.3837
 Red. masses --      1.9472                 1.6937                 1.3591
 Frc consts  --      2.5309                 2.2547                 1.8316
 IR Inten    --     38.5694                 4.7280               186.9730

                     61                     62                     63
                      A                      A                      A
 Frequencies --   1513.4726              1523.1344              1528.5244
 Red. masses --      1.0450                 1.1871                 1.8873
 Frc consts  --      1.4104                 1.6227                 2.5980
 IR Inten    --      8.8969                13.1843                66.8990

                     64                     65                     66
                      A                      A                      A
 Frequencies --   1533.5613              1587.1847              1637.0686
 Red. masses --      1.0724                 6.8617                 6.2025
 Frc consts  --      1.4860                10.1844                 9.7938
 IR Inten    --      5.8175               221.2481               494.6695

                     67                     68                     69
                      A                      A                      A
 Frequencies --   1661.1913              1670.3895              1742.5010
 Red. masses --      2.8529                 2.7629                11.6107
 Frc consts  --      4.6385                 4.5420                20.7709
 IR Inten    --    260.2567               556.4589               192.1054

                     70                     71                     72
                      A                      A                      A
 Frequencies --   2273.1645              3054.6624              3062.3846
 Red. masses --     13.9892                 1.0393                 1.0349
 Frc consts  --     42.5898                 5.7136                 5.7184
 IR Inten    --   1080.0022                 7.4645                20.6041

                     73                     74                     75
                      A                      A                      A
 Frequencies --   3108.2354              3123.7065              3138.5617
 Red. masses --      1.1003                 1.0777                 1.0816
 Frc consts  --      6.2630                 6.1956                 6.2777
 IR Inten    --     10.3603                 1.9651                37.6744

                     76                     77                     78
                      A                      A                      A
 Frequencies --   3142.4654              3169.6872              3186.3233
 Red. masses --      1.1042                 1.0999                 1.1085
 Frc consts  --      6.4244                 6.5110                 6.6305
 IR Inten    --      8.6916                 8.1032                 2.7132

                     79                     80                     81
                      A                      A                      A
 Frequencies --   3224.8087              3610.8656              3736.5506
 Red. masses --      1.0907                 1.0450                 1.1046
 Frc consts  --      6.6830                 8.0276                 9.0867
 IR Inten    --      6.0667               136.2092                43.9552

 - Thermochemistry -
 -------------------
 Temperature   298.150 Kelvin.  Pressure   1.00000 Atm.
 Atom     1 has atomic number  6 and mass  12.00000

 Molecular mass:   245.10251 amu.
 Principal axes and moments of inertia in atomic units:
                           1         2         3
     Eigenvalues --  2484.099345885.243968182.49425
           X            0.99989  -0.01446  -0.00102
           Y            0.01447   0.99989   0.00420
           Z            0.00096  -0.00422   0.99999
 This molecule is an asymmetric top.
 Rotational symmetry number  1.
 Warning -- assumption of classical behavior for rotation
           may cause significant error
 Rotational temperatures (Kelvin)      0.03487     0.01472     0.01059
 Rotational constants (GHZ):           0.72652     0.30666     0.22056
 Zero-point vibrational energy     583128.4 (Joules/Mol)
                                  139.37102 (Kcal/Mol)
 Warning -- explicit consideration of  28 degrees of freedom as
           vibrations may cause significant error
 Vibrational temperatures:     58.59    87.80    92.74   131.15   160.54
          (Kelvin)            190.20   201.06   266.97   307.65   315.74
                              344.79   354.78   423.73   465.17   472.04
                              517.24   544.94   575.50   585.42   638.79
                              669.29   731.50   757.18   766.68   802.28
                              842.70   870.25   879.47   920.14  1041.76
                             1066.18  1078.92  1137.23  1153.28  1206.11
                             1267.33  1318.42  1321.16  1433.33  1474.11
                             1503.81  1535.64  1574.37  1618.45  1620.11
                             1698.01  1714.90  1832.03  1885.42  1931.78
                             1976.97  2007.88  2015.98  2029.25  2054.02
                             2066.37  2110.58  2137.00  2162.70  2175.98
                             2177.55  2191.45  2199.21  2206.45  2283.60
                             2355.38  2390.08  2403.32  2507.07  3270.58
                             4394.98  4406.09  4472.06  4494.32  4515.69
                             4521.31  4560.47  4584.41  4639.78  5195.23
                             5376.06

 Zero-point correction=                           0.222102 (Hartree/Particle)
 Thermal correction to Energy=                    0.238344
 Thermal correction to Enthalpy=                  0.239288
 Thermal correction to Gibbs Free Energy=         0.178315
 Sum of electronic and zero-point Energies=           -846.006920
 Sum of electronic and thermal Energies=              -845.990678
 Sum of electronic and thermal Enthalpies=            -845.989734
 Sum of electronic and thermal Free Energies=         -846.050707

                     E (Thermal)             CV                S
                      KCal/Mol        Cal/Mol-Kelvin    Cal/Mol-Kelvin
 Total                  149.563             61.170            128.328
 Electronic               0.000              0.000              0.000
 Translational            0.889              2.981             42.390
 Rotational               0.889              2.981             33.147
 Vibrational            147.786             55.208             52.791
 Vibration     1          0.594              1.981              5.224
 Vibration     2          0.597              1.973              4.424
 Vibration     3          0.597              1.971              4.316
 Vibration     4          0.602              1.955              3.635
 Vibration     5          0.607              1.940              3.241
 Vibration     6          0.612              1.921              2.914
 Vibration     7          0.615              1.914              2.807
 Vibration     8          0.632              1.860              2.272
 Vibration     9          0.644              1.820              2.011
 Vibration    10          0.647              1.811              1.964
 Vibration    11          0.657              1.780              1.806
 Vibration    12          0.661              1.768              1.755
 Vibration    13          0.689              1.684              1.448
 Vibration    14          0.708              1.629              1.293
 Vibration    15          0.711              1.619              1.270
 Vibration    16          0.734              1.556              1.124
 Vibration    17          0.749              1.515              1.044
 Vibration    18          0.766              1.470              0.963
 Vibration    19          0.772              1.455              0.938
 Vibration    20          0.803              1.374              0.814
 Vibration    21          0.823              1.327              0.751
 Vibration    22          0.864              1.231              0.637
 Vibration    23          0.881              1.192              0.596
 Vibration    24          0.888              1.177              0.581
 Vibration    25          0.913              1.123              0.529
 Vibration    26          0.943              1.062              0.475
 Vibration    27          0.963              1.022              0.441
 Vibration    28          0.970              1.008              0.431

                           ! Non-Optimized Parameters !
 Normal termination of Gaussian 16 at Fri Dec 11 20:23:54 2020.

 ----------------------------------------------------------------------
 # B3LYP/6-311++G(d,p) empiricaldispersion=gd3bj scf=xqc pop=npa geom=c
 heck
 ----------------------------------------------------------------------

 ---------------------------------------
 CID_152689409_JID_8361_Energie_neutraal
 ---------------------------------------
 Structure from the checkpoint file:  "JID_8361.chk"
 Charge =  0 Multiplicity = 1

 SCF Done:  E(RB3LYP) =  -846.458741158     A.U. after   16 cycles
 Normal termination of Gaussian 16 at Fri Dec 11 20:28:03 2020.

 ----------------------------------------------------------------------
 # B3LYP/6-311++G(d,p) empiricaldispersion=gd3bj scf=xqc pop=npa geom=c
 heck
 ----------------------------------------------------------------------

 -------------------------------------
 CID_152689409_JID_8361_Energie_kation
 -------------------------------------
 Structure from the checkpoint file:  "JID_8361.chk"
 Charge =  1 Multiplicity = 2

 SCF Done:  E(UB3LYP) =  -846.183778228     A.U. after   22 cycles
 Normal termination of Gaussian 16 at Fri Dec 11 20:35:57 2020.
 Gaussian 16:  ES64L-G16RevA.03 25-Dec-2016

 ----------------------------------------------------------------------
 # B3LYP/6-311++G(d,p) empiricaldispersion=gd3bj scf=xqc pop=npa geom=c
 heck
 ----------------------------------------------------------------------

 ------------------------------------
 CID_152689409_JID_8361_Energie_anion
 ------------------------------------
 Structure from the checkpoint file:  "JID_8361.chk"
 Charge = -1 Multiplicity = 2

                         Standard orientation:
 ---------------------------------------------------------------------
 Center     Atomic      Atomic             Coordinates (Angstroms)
 Number     Number       Type             X           Y           Z
 ---------------------------------------------------------------------
      1          6           0       -0.227150    3.293180    0.940964
      2          6           0       -0.268279    2.588886   -0.412313
      3          7           0       -0.331864    1.122499   -0.259579
      4          6           0        0.832654    0.389619   -0.152298
      5          7           0        1.992267    1.051789   -0.209062
      6          6           0        3.096652    0.302569   -0.107276
      7          7           0        3.157567   -1.043024    0.034076
      8          6           0        1.999176   -1.691078    0.092109
      9          6           0        0.756993   -1.015776    0.008406
     10          6           0       -0.520310   -1.642103    0.073630
     11          6           0       -1.663098   -0.903176   -0.009361
     12          6           0       -1.610048    0.555953   -0.163659
     13          8           0       -2.620779    1.253653   -0.212148
     14          7           0       -2.892684   -1.562989    0.069350
     15          7           0       -3.969285   -0.940706   -0.002256
     16          7           0       -5.057772   -0.609908   -0.040406
     17          6           0        2.064261   -3.185704    0.249748
     18          7           0        4.290973    0.954917   -0.118836
     19          1           0       -1.121843    3.054493    1.523348
     20          1           0       -0.191989    4.378342    0.795575
     21          1           0        0.660392    2.991520    1.505219
     22          1           0       -1.158321    2.876206   -0.971512
     23          1           0        0.623909    2.809990   -0.996446
     24          1           0       -0.598792   -2.716511    0.196619
     25          1           0        1.565352   -3.507374    1.171581
     26          1           0        1.565876   -3.694038   -0.584037
     27          1           0        3.108395   -3.499622    0.284388
     28          1           0        4.300932    1.917501   -0.419242
     29          1           0        5.122792    0.398009   -0.241013
 ---------------------------------------------------------------------

 SCF Done:  E(UB3LYP) =  -846.480176061     A.U. after   26 cycles

 The electronic state is 2-A.
 Alpha  occ. eigenvalues --  -18.94808 -14.34374 -14.23988 -14.23395 -14.23219
 Alpha  occ. eigenvalues --  -14.20865 -14.17071 -14.16550 -10.13279 -10.13013
 Alpha  occ. eigenvalues --  -10.12655 -10.08719 -10.06984 -10.06723 -10.05487
 Alpha  occ. eigenvalues --  -10.04753 -10.04502 -10.02911  -1.00438  -0.91154
 Alpha  occ. eigenvalues --   -0.87495  -0.84707  -0.83220  -0.77718  -0.75012
 Alpha  occ. eigenvalues --   -0.69680  -0.64219  -0.63927  -0.59765  -0.55123
 Alpha  occ. eigenvalues --   -0.53650  -0.51366  -0.47535  -0.46172  -0.44287
 Alpha  occ. eigenvalues --   -0.41764  -0.38482  -0.37848  -0.36812  -0.35944
 Alpha  occ. eigenvalues --   -0.35519  -0.33542  -0.33163  -0.32797  -0.31450
 Alpha  occ. eigenvalues --   -0.31175  -0.30241  -0.29009  -0.27998  -0.27134
 Alpha  occ. eigenvalues --   -0.26888  -0.26400  -0.25397  -0.24142  -0.22273
 Alpha  occ. eigenvalues --   -0.20579  -0.18570  -0.18310  -0.18198  -0.14112
 Alpha  occ. eigenvalues --   -0.13095  -0.12669  -0.12483  -0.07165   0.03349
 Alpha virt. eigenvalues --    0.07412   0.08594   0.08781   0.09507   0.10233
 Alpha virt. eigenvalues --    0.10485   0.11153   0.11887   0.12283   0.12693
 Alpha virt. eigenvalues --    0.12762   0.13449   0.13814   0.14631   0.14991

  Beta  occ. eigenvalues --  -18.94609 -14.34278 -14.23836 -14.23481 -14.23157
  Beta  occ. eigenvalues --  -14.20804 -14.17026 -14.16579 -10.13064 -10.12879
  Beta  occ. eigenvalues --  -10.12673 -10.08722 -10.06535 -10.06490 -10.05483
  Beta  occ. eigenvalues --  -10.04790 -10.04610 -10.02558  -1.00256  -0.90855
  Beta  occ. eigenvalues --   -0.87251  -0.84628  -0.83019  -0.77486  -0.74794
  Beta  occ. eigenvalues --   -0.69332  -0.64091  -0.63539  -0.59655  -0.54941
  Beta  occ. eigenvalues --   -0.53475  -0.50896  -0.47259  -0.45931  -0.44172
  Beta  occ. eigenvalues --   -0.41557  -0.38303  -0.37341  -0.36679  -0.35824
  Beta  occ. eigenvalues --   -0.35390  -0.33170  -0.32873  -0.32667  -0.31041
  Beta  occ. eigenvalues --   -0.30759  -0.30003  -0.28588  -0.27764  -0.26912
  Beta  occ. eigenvalues --   -0.26666  -0.25999  -0.25223  -0.24051  -0.21726
  Beta  occ. eigenvalues --   -0.19719  -0.18509  -0.18251  -0.17270  -0.13461
  Beta  occ. eigenvalues --   -0.12794  -0.12405  -0.12046  -0.05835
  Beta virt. eigenvalues --    0.07358   0.08541   0.08784   0.09059   0.09581
  Beta virt. eigenvalues --    0.10469   0.10950   0.11226   0.11862   0.12448
  Beta virt. eigenvalues --    0.12708   0.13413   0.14015   0.14246   0.14648

 Mulliken charges and spin densities:
               1          2
     1  C   -0.370471  -0.014070
     2  C   -0.184709   0.003211
     3  N    0.122391   0.016012
     4  C   -0.344044  -0.030757
     5  N   -0.233295   0.030941
     6  C    0.115818   0.108931
     7  N   -0.165760  -0.031078
     8  C    0.102747   0.299837
     9  C    0.432808  -0.039561
    10  C   -0.432673   0.306778
    11  C   -0.600839   0.060059
    12  C    0.042312   0.073945
    13  O   -0.377237   0.067487
    14  N    0.067610  -0.018444
    15  N    0.285856   0.012689
    16  N   -0.358193   0.075418
    17  C   -0.605917  -0.037546
    18  N   -0.329424   0.031983
    19  H    0.164052   0.003993
    20  H    0.100153   0.007034
    21  H    0.161203  -0.002750
    22  H    0.196971  -0.005128
    23  H    0.159905   0.018279
    24  H    0.183145  -0.023557
    25  H    0.111226   0.040479
    26  H    0.113118   0.037465
    27  H    0.149482   0.000535
    28  H    0.239530   0.007474
    29  H    0.254236   0.000338
 Sum of Mulliken charges =  -1.00000   1.00000

 Dipole moment (field-independent basis, Debye):
    X=              5.2283    Y=              1.7402    Z=             -0.4084  Tot=              5.5254
 Quadrupole moment (field-independent basis, Debye-Ang):
   XX=           -163.0877   YY=           -120.2620   ZZ=           -111.2794
   XY=              6.4838   XZ=             -3.9532   YZ=             -0.8225

 Summary of Natural Population Analysis:

                                       Natural Population
                Natural  -----------------------------------------------
    Atom  No    Charge         Core      Valence    Rydberg      Total
 -----------------------------------------------------------------------
      C    1   -0.29315      0.99967     2.28915    0.00433     3.29315
      C    2   -0.09774      0.99965     2.08410    0.01400     3.09774
      N    3   -0.21032      0.99963     2.69591    0.01479     3.71032
      C    4    0.21926      0.99951     1.76466    0.01657     2.78074
      N    5   -0.30797      0.99963     2.79640    0.01194     3.80797
      C    6    0.32970      0.99965     1.65337    0.01727     2.67030
      N    7   -0.30348      0.99965     2.79216    0.01167     3.80348
      C    8    0.22898      0.99955     1.75912    0.01235     2.77102
      C    9   -0.12133      0.99946     2.11438    0.00749     3.12133
      C   10   -0.01307      0.99943     2.00422    0.00941     3.01307
      C   11    0.02132      0.99947     1.96016    0.01905     2.97868
      C   12    0.39473      0.99963     1.58471    0.02092     2.60527
      O   13   -0.33683      0.99990     3.31695    0.01999     4.33683
      N   14   -0.18721      0.99964     2.67284    0.01472     3.68721
      N   15    0.13044      0.99970     2.35287    0.01698     3.36956
      N   16   -0.03869      0.99981     2.52504    0.01385     3.53869
      C   17   -0.30718      0.99965     2.30290    0.00464     3.30718
      N   18   -0.39285      0.99970     2.88329    0.00986     3.89285
      H   19    0.10623      0.00000     0.39274    0.00104     0.39377
      H   20    0.09125      0.00000     0.40780    0.00095     0.40875
      H   21    0.10136      0.00000     0.39747    0.00117     0.39864
      H   22    0.10666      0.00000     0.39187    0.00147     0.39334
      H   23    0.10416      0.00000     0.39451    0.00133     0.39584
      H   24    0.09625      0.00000     0.40226    0.00149     0.40375
      H   25    0.10494      0.00000     0.39407    0.00099     0.39506
      H   26    0.10455      0.00000     0.39445    0.00099     0.39545
      H   27    0.10367      0.00000     0.39535    0.00098     0.39633
      H   28    0.19050      0.00000     0.30833    0.00118     0.30950
      H   29    0.19058      0.00000     0.30820    0.00123     0.30942
 =======================================================================
   * Total *    0.01474     17.99334    45.73926    0.25266    63.98526

 Normal termination of Gaussian 16 at Fri Dec 11 20:44:59 2020.
