 Gaussian 16, Revision A.03,

 -----------------------------------------------------------
 # opt freq B3LYP/6-31G(d) empiricaldispersion=gd3bj scf=xqc
 -----------------------------------------------------------

 -------------------------------
 CID_130671645_JID_2304_neutraal
 -------------------------------
 Symbolic Z-matrix:
 Charge =  0 Multiplicity = 1

 SCF Done:  E(RB3LYP) =  -929.666556747     A.U. after   15 cycles
 SCF Done:  E(RB3LYP) =  -929.672890250     A.U. after   12 cycles
 SCF Done:  E(RB3LYP) =  -929.673728008     A.U. after   11 cycles
 SCF Done:  E(RB3LYP) =  -929.673856116     A.U. after   11 cycles
 SCF Done:  E(RB3LYP) =  -929.673900997     A.U. after   11 cycles
 SCF Done:  E(RB3LYP) =  -929.673918609     A.U. after   10 cycles
 SCF Done:  E(RB3LYP) =  -929.673936041     A.U. after   10 cycles
 SCF Done:  E(RB3LYP) =  -929.673951489     A.U. after   10 cycles
 SCF Done:  E(RB3LYP) =  -929.673970133     A.U. after   10 cycles
 SCF Done:  E(RB3LYP) =  -929.673984254     A.U. after   10 cycles
 SCF Done:  E(RB3LYP) =  -929.673990819     A.U. after   10 cycles
 SCF Done:  E(RB3LYP) =  -929.673992967     A.U. after   10 cycles
 SCF Done:  E(RB3LYP) =  -929.673993355     A.U. after    9 cycles
 SCF Done:  E(RB3LYP) =  -929.673993431     A.U. after    8 cycles
 Optimization completed.
    -- Stationary point found.
 Normal termination of Gaussian 16 at Wed Dec  9 16:58:47 2020.

 --------------------------------------------------------------------
 #N Geom=AllCheck Guess=TCheck SCRF=Check GenChk RB3LYP/6-31G(d) Freq
 --------------------------------------------------------------------

 Structure from the checkpoint file:  "JID_2304.chk"
 -------------------------------
 CID_130671645_JID_2304_neutraal
 -------------------------------
 Charge =  0 Multiplicity = 1

 SCF Done:  E(RB3LYP) =  -929.673993431     A.U. after    1 cycles

  Exact polarizability: 182.111   5.455  96.514  -0.001  -0.000  58.599
 Approx polarizability: 244.921  24.903 174.362  -0.009   0.002  90.088

                      1                      2                      3
                      A                      A                      A
 Frequencies --     31.5649                53.5950                66.7768
 Red. masses --      1.9796                 5.1558                 3.1917
 Frc consts  --      0.0012                 0.0087                 0.0084
 IR Inten    --      1.3366                 1.2979                 1.3184

                      4                      5                      6
                      A                      A                      A
 Frequencies --     88.9469               128.0289               159.2800
 Red. masses --      5.2643                 6.6825                 1.0776
 Frc consts  --      0.0245                 0.0645                 0.0161
 IR Inten    --      1.8034                 0.6123                 0.1207

                      7                      8                      9
                      A                      A                      A
 Frequencies --    188.4795               242.3752               279.6590
 Red. masses --      3.6342                 7.5846                 7.5175
 Frc consts  --      0.0761                 0.2625                 0.3464
 IR Inten    --      1.8480                 0.8956                 3.3146

                     10                     11                     12
                      A                      A                      A
 Frequencies --    362.7705               379.8698               471.6370
 Red. masses --      9.1055                 5.9080                 2.6283
 Frc consts  --      0.7060                 0.5023                 0.3445
 IR Inten    --      1.1037                 6.8834                14.9430

                     13                     14                     15
                      A                      A                      A
 Frequencies --    498.6811               533.4638               671.7437
 Red. masses --      8.2437                11.2332                11.8595
 Frc consts  --      1.2079                 1.8835                 3.1530
 IR Inten    --      2.6379                 1.4876                 0.3960

                     16                     17                     18
                      A                      A                      A
 Frequencies --    713.2239               740.3972               758.3695
 Red. masses --      6.3649                 7.6977                10.9017
 Frc consts  --      1.9076                 2.4862                 3.6941
 IR Inten    --      1.6240                 7.8558                14.9789

                     19                     20                     21
                      A                      A                      A
 Frequencies --    839.9138               876.7101               904.0278
 Red. masses --      1.1883                 7.7748                13.8803
 Frc consts  --      0.4939                 3.5209                 6.6836
 IR Inten    --      0.1158                34.4984                 9.9792

                     22                     23                     24
                      A                      A                      A
 Frequencies --    926.3234               929.0918               988.3018
 Red. masses --      1.4191                 4.5595                 4.0556
 Frc consts  --      0.7175                 2.3189                 2.3339
 IR Inten    --      7.4290                28.9954                16.0801

                     25                     26                     27
                      A                      A                      A
 Frequencies --    992.1354              1001.3491              1004.1950
 Red. masses --      3.6241                 1.1849                 3.2130
 Frc consts  --      2.1018                 0.7000                 1.9090
 IR Inten    --      2.4388                 4.4430                14.0385

                     28                     29                     30
                      A                      A                      A
 Frequencies --   1026.4800              1092.0383              1116.7140
 Red. masses --      2.0080                 1.5834                 5.1745
 Frc consts  --      1.2466                 1.1125                 3.8019
 IR Inten    --      4.2709                 0.0012                 7.9384

                     31                     32                     33
                      A                      A                      A
 Frequencies --   1190.4968              1220.1556              1262.3877
 Red. masses --      3.5964                 1.1772                 1.0746
 Frc consts  --      3.0031                 1.0326                 1.0089
 IR Inten    --    427.9228                 2.6888                 0.0083

                     34                     35                     36
                      A                      A                      A
 Frequencies --   1300.3803              1302.9339              1312.8248
 Red. masses --      3.5247                 1.9433                 1.6660
 Frc consts  --      3.5117                 1.9437                 1.6917
 IR Inten    --    262.2348               105.5359                65.5325

                     37                     38                     39
                      A                      A                      A
 Frequencies --   1377.3117              1391.5373              1418.9230
 Red. masses --      4.1953                 1.2184                 1.8083
 Frc consts  --      4.6890                 1.3901                 2.1450
 IR Inten    --      5.6718                 0.5825                22.2784

                     40                     41                     42
                      A                      A                      A
 Frequencies --   1490.4140              1493.0898              1511.0682
 Red. masses --      1.0509                 4.0586                 1.2503
 Frc consts  --      1.3753                 5.3309                 1.6820
 IR Inten    --      8.5967                35.0521                30.1711

                     43                     44                     45
                      A                      A                      A
 Frequencies --   1527.1441              1550.3526              1599.6481
 Red. masses --      1.1079                 1.0995                 7.8823
 Frc consts  --      1.5223                 1.5570                11.8837
 IR Inten    --      3.0339                 0.6330                53.6000

                     46                     47                     48
                      A                      A                      A
 Frequencies --   1711.9523              3069.9639              3082.4265
 Red. masses --      7.2344                 1.0592                 1.0288
 Frc consts  --     12.4921                 5.8814                 5.7594
 IR Inten    --    499.0627                14.8744                14.3947

                     49                     50                     51
                      A                      A                      A
 Frequencies --   3095.7529              3100.4839              3144.8366
 Red. masses --      1.0581                 1.1079                 1.1121
 Frc consts  --      5.9747                 6.2747                 6.4803
 IR Inten    --     53.4953                 5.1065                27.5052

                     52                     53                     54
                      A                      A                      A
 Frequencies --   3176.2788              3176.7120              3266.1369
 Red. masses --      1.1063                 1.1082                 1.0976
 Frc consts  --      6.5758                 6.5889                 6.8983
 IR Inten    --      5.5818                 3.4217                 0.8068

 - Thermochemistry -
 -------------------
 Temperature   298.150 Kelvin.  Pressure   1.00000 Atm.
 Atom     1 has atomic number  6 and mass  12.00000

 Molecular mass:   184.03065 amu.
 Principal axes and moments of inertia in atomic units:
                           1         2         3
     Eigenvalues --   578.130915061.147665605.26107
           X            0.99983  -0.01818   0.00000
           Y            0.01818   0.99983  -0.00002
           Z           -0.00000   0.00002   1.00000
 This molecule is an asymmetric top.
 Rotational symmetry number  1.
 Warning -- assumption of classical behavior for rotation
           may cause significant error
 Rotational temperatures (Kelvin)      0.14982     0.01711     0.01545
 Rotational constants (GHZ):           3.12168     0.35659     0.32197
 Zero-point vibrational energy     393806.8 (Joules/Mol)
                                   94.12208 (Kcal/Mol)
 Warning -- explicit consideration of  14 degrees of freedom as
           vibrations may cause significant error
 Vibrational temperatures:     45.41    77.11    96.08   127.97   184.20
          (Kelvin)            229.17   271.18   348.72   402.37   521.95
                              546.55   678.58   717.49   767.54   966.49
                             1026.17  1065.27  1091.12  1208.45  1261.39
                             1300.69  1332.77  1336.76  1421.95  1427.46
                             1440.72  1444.81  1476.88  1571.20  1606.70
                             1712.86  1755.53  1816.29  1870.96  1874.63
                             1888.86  1981.64  2002.11  2041.51  2144.37
                             2148.22  2174.09  2197.22  2230.61  2301.54
                             2463.12  4416.99  4434.92  4454.10  4460.90
                             4524.72  4569.96  4570.58  4699.24

 Zero-point correction=                           0.149993 (Hartree/Particle)
 Thermal correction to Energy=                    0.161323
 Thermal correction to Enthalpy=                  0.162268
 Thermal correction to Gibbs Free Energy=         0.110465
 Sum of electronic and zero-point Energies=           -929.524000
 Sum of electronic and thermal Energies=              -929.512670
 Sum of electronic and thermal Enthalpies=            -929.511726
 Sum of electronic and thermal Free Energies=         -929.563528

                     E (Thermal)             CV                S
                      KCal/Mol        Cal/Mol-Kelvin    Cal/Mol-Kelvin
 Total                  101.232             39.718            109.027
 Electronic               0.000              0.000              0.000
 Translational            0.889              2.981             41.536
 Rotational               0.889              2.981             31.173
 Vibrational             99.454             33.757             36.318
 Vibration     1          0.594              1.983              5.729
 Vibration     2          0.596              1.976              4.680
 Vibration     3          0.598              1.970              4.246
 Vibration     4          0.602              1.957              3.683
 Vibration     5          0.611              1.925              2.975
 Vibration     6          0.621              1.892              2.558
 Vibration     7          0.633              1.856              2.243
 Vibration     8          0.659              1.775              1.785
 Vibration     9          0.680              1.711              1.536
 Vibration    10          0.737              1.549              1.110
 Vibration    11          0.750              1.513              1.040
 Vibration    12          0.829              1.313              0.733
 Vibration    13          0.854              1.253              0.661
 Vibration    14          0.888              1.176              0.580

 Optimization completed.
    -- Stationary point found.
 Normal termination of Gaussian 16 at Wed Dec  9 17:02:34 2020.

 ----------------------------------------------------------------------
 # B3LYP/6-311++G(d,p) empiricaldispersion=gd3bj scf=xqc pop=npa geom=c
 heck
 ----------------------------------------------------------------------

 ---------------------------------------
 CID_130671645_JID_2304_Energie_neutraal
 ---------------------------------------
 Structure from the checkpoint file:  "JID_2304.chk"
 Charge =  0 Multiplicity = 1

 SCF Done:  E(RB3LYP) =  -929.844258391     A.U. after   14 cycles
 Normal termination of Gaussian 16 at Wed Dec  9 17:04:19 2020.

 ----------------------------------------------------------------------
 # B3LYP/6-311++G(d,p) empiricaldispersion=gd3bj scf=xqc pop=npa geom=c
 heck
 ----------------------------------------------------------------------

 -------------------------------------
 CID_130671645_JID_2304_Energie_kation
 -------------------------------------
 Structure from the checkpoint file:  "JID_2304.chk"
 Charge =  1 Multiplicity = 2

 SCF Done:  E(UB3LYP) =  -929.548260936     A.U. after   20 cycles
 Normal termination of Gaussian 16 at Wed Dec  9 17:07:43 2020.
 Gaussian 16:  ES64L-G16RevA.03 25-Dec-2016

 ----------------------------------------------------------------------
 # B3LYP/6-311++G(d,p) empiricaldispersion=gd3bj scf=xqc pop=npa geom=c
 heck
 ----------------------------------------------------------------------

 ------------------------------------
 CID_130671645_JID_2304_Energie_anion
 ------------------------------------
 Structure from the checkpoint file:  "JID_2304.chk"
 Charge = -1 Multiplicity = 2

                         Standard orientation:
 ---------------------------------------------------------------------
 Center     Atomic      Atomic             Coordinates (Angstroms)
 Number     Number       Type             X           Y           Z
 ---------------------------------------------------------------------
      1          6           0       -4.356049    0.479118   -0.000025
      2         16           0       -3.210432   -0.945421   -0.000146
      3          6           0       -1.682706   -0.086219    0.000003
      4          7           0       -1.576765    1.224569    0.000290
      5          8           0       -0.167701    1.416603    0.000322
      6          6           0        0.389066    0.185492    0.000071
      7          7           0       -0.496345   -0.782386   -0.000066
      8          6           0        1.813006    0.048870    0.000009
      9          6           0        2.727542    1.037916   -0.000352
     10          8           0        4.011021    0.635002   -0.000403
     11          6           0        4.014697   -0.828740    0.000354
     12          6           0        2.534187   -1.282674    0.000051
     13          1           0       -5.363613    0.057693   -0.000220
     14          1           0       -4.206497    1.090473   -0.891672
     15          1           0       -4.206732    1.090193    0.891853
     16          1           0        2.578907    2.110520   -0.000644
     17          1           0        4.564084   -1.143853    0.890538
     18          1           0        4.564876   -1.144790   -0.888995
     19          1           0        2.281458   -1.882014   -0.880987
     20          1           0        2.281186   -1.882188    0.880883
 ---------------------------------------------------------------------

 SCF Done:  E(UB3LYP) =  -929.841089999     A.U. after   31 cycles

 The electronic state is 2-A.
 Alpha  occ. eigenvalues --  -88.73356 -19.02274 -19.00059 -14.18378 -14.13745
 Alpha  occ. eigenvalues --  -10.09998 -10.09549 -10.08628 -10.07790 -10.04594
 Alpha  occ. eigenvalues --  -10.04398 -10.00681  -7.81974  -5.78377  -5.77989
 Alpha  occ. eigenvalues --   -5.77350  -0.97569  -0.92551  -0.76639  -0.71384
 Alpha  occ. eigenvalues --   -0.66271  -0.64427  -0.60463  -0.55072  -0.49390
 Alpha  occ. eigenvalues --   -0.46505  -0.43168  -0.41112  -0.37584  -0.36018
 Alpha  occ. eigenvalues --   -0.33585  -0.32596  -0.31154  -0.30599  -0.27952
 Alpha  occ. eigenvalues --   -0.26018  -0.26006  -0.24139  -0.23913  -0.22182
 Alpha  occ. eigenvalues --   -0.21116  -0.20749  -0.18990  -0.17320  -0.14998
 Alpha  occ. eigenvalues --   -0.13198  -0.10438  -0.06487   0.06556
 Alpha virt. eigenvalues --    0.07984   0.08659   0.10922   0.11363   0.11681
 Alpha virt. eigenvalues --    0.11969   0.12559   0.13403   0.14657   0.14683
 Alpha virt. eigenvalues --    0.15137   0.16395   0.16523   0.17430   0.17794

  Beta  occ. eigenvalues --  -88.73356 -19.01973 -18.99834 -14.18060 -14.13673
  Beta  occ. eigenvalues --  -10.10005 -10.09538 -10.08628 -10.07352 -10.04592
  Beta  occ. eigenvalues --  -10.03750 -10.00762  -7.81973  -5.78377  -5.77990
  Beta  occ. eigenvalues --   -5.77346  -0.97058  -0.92059  -0.76313  -0.70930
  Beta  occ. eigenvalues --   -0.66135  -0.64310  -0.59930  -0.54997  -0.48966
  Beta  occ. eigenvalues --   -0.45820  -0.42994  -0.40699  -0.37345  -0.35709
  Beta  occ. eigenvalues --   -0.33508  -0.32253  -0.30311  -0.30126  -0.27751
  Beta  occ. eigenvalues --   -0.25846  -0.25757  -0.23927  -0.23766  -0.20995
  Beta  occ. eigenvalues --   -0.20642  -0.20568  -0.18117  -0.16931  -0.13386
  Beta  occ. eigenvalues --   -0.12976  -0.09761  -0.04770
  Beta virt. eigenvalues --    0.07969   0.08599   0.10822   0.11316   0.11581
  Beta virt. eigenvalues --    0.11930   0.12499   0.13375   0.13924   0.14645
  Beta virt. eigenvalues --    0.14648   0.15011   0.16457   0.16803   0.17321

 Mulliken charges and spin densities:
               1          2
     1  C   -0.692679   0.002021
     2  S   -0.388235   0.003484
     3  C    0.318795   0.009154
     4  N   -0.413321   0.150590
     5  O    0.109873   0.069085
     6  C    0.211722   0.266908
     7  N   -0.076736   0.031373
     8  C    0.126423  -0.136670
     9  C   -0.580418   0.582960
    10  O   -0.108489   0.020282
    11  C   -0.284763  -0.085344
    12  C   -0.339213   0.031865
    13  H    0.126588  -0.000082
    14  H    0.187107  -0.000058
    15  H    0.187126  -0.000082
    16  H    0.168429  -0.038975
    17  H    0.094278   0.041148
    18  H    0.094235   0.041199
    19  H    0.129602   0.005611
    20  H    0.129674   0.005532
 Sum of Mulliken charges =  -1.00000   1.00000

 Dipole moment (field-independent basis, Debye):
    X=             -2.0530    Y=             -1.7911    Z=              0.0009  Tot=              2.7245
 Quadrupole moment (field-independent basis, Debye-Ang):
   XX=           -107.4925   YY=            -93.5394   ZZ=            -84.9521
   XY=             -8.1596   XZ=              0.0041   YZ=             -0.0031

 Summary of Natural Population Analysis:

                                       Natural Population
                Natural  -----------------------------------------------
    Atom  No    Charge         Core      Valence    Rydberg      Total
 -----------------------------------------------------------------------
      C    1   -0.34976      0.99962     2.34442    0.00571     3.34976
      S    2    0.11528      4.99952     2.86172    0.02348     7.88472
      C    3    0.08025      0.99963     1.89836    0.02176     2.91975
      N    4   -0.09814      0.99963     2.58561    0.01290     3.59814
      O    5   -0.15680      0.99986     3.14608    0.01086     4.15680
      C    6    0.34086      0.99955     1.64184    0.01775     2.65914
      N    7   -0.29165      0.99966     2.78292    0.00907     3.79165
      C    8   -0.14245      0.99948     2.13120    0.01176     3.14245
      C    9    0.23083      0.99945     1.75325    0.01647     2.76917
      O   10   -0.26178      0.99988     3.25270    0.00920     4.26178
      C   11   -0.01226      0.99962     2.00207    0.01056     3.01226
      C   12   -0.20167      0.99963     2.19330    0.00873     3.20167
      H   13    0.09591      0.00000     0.40296    0.00113     0.40409
      H   14    0.10604      0.00000     0.39220    0.00176     0.39396
      H   15    0.10604      0.00000     0.39220    0.00176     0.39396
      H   16    0.08408      0.00000     0.41513    0.00079     0.41592
      H   17    0.08051      0.00000     0.41849    0.00101     0.41949
      H   18    0.08052      0.00000     0.41848    0.00101     0.41948
      H   19    0.09715      0.00000     0.40171    0.00114     0.40285
      H   20    0.09716      0.00000     0.40169    0.00114     0.40284
 =======================================================================
   * Total *    0.00012     15.99553    31.83635    0.16800    47.99988

 Normal termination of Gaussian 16 at Wed Dec  9 17:13:10 2020.
