 Gaussian 16, Revision A.03,

 -----------------------------------------------------------
 # opt freq B3LYP/6-31G(d) empiricaldispersion=gd3bj scf=xqc
 -----------------------------------------------------------

 ------------------------------
 CID_23558114_JID_1473_neutraal
 ------------------------------
 Symbolic Z-matrix:
 Charge =  0 Multiplicity = 1

 SCF Done:  E(RB3LYP) =  -519.086731189     A.U. after   15 cycles
 SCF Done:  E(RB3LYP) =  -519.089225537     A.U. after   12 cycles
 SCF Done:  E(RB3LYP) =  -519.089200358     A.U. after   13 cycles
 SCF Done:  E(RB3LYP) =  -519.089435088     A.U. after   12 cycles
 SCF Done:  E(RB3LYP) =  -519.090052918     A.U. after   12 cycles
 SCF Done:  E(RB3LYP) =  -519.090161881     A.U. after   12 cycles
 SCF Done:  E(RB3LYP) =  -519.090194986     A.U. after   11 cycles
 SCF Done:  E(RB3LYP) =  -519.090220180     A.U. after   11 cycles
 SCF Done:  E(RB3LYP) =  -519.090232404     A.U. after   10 cycles
 SCF Done:  E(RB3LYP) =  -519.090237996     A.U. after    9 cycles
 SCF Done:  E(RB3LYP) =  -519.090240067     A.U. after    8 cycles
 SCF Done:  E(RB3LYP) =  -519.090240335     A.U. after    8 cycles
 SCF Done:  E(RB3LYP) =  -519.090240604     A.U. after    8 cycles
 SCF Done:  E(RB3LYP) =  -519.090240692     A.U. after    8 cycles
 SCF Done:  E(RB3LYP) =  -519.090240714     A.U. after    7 cycles
 Optimization completed.
    -- Stationary point found.
 Normal termination of Gaussian 16 at Tue Dec  8 20:08:31 2020.

 --------------------------------------------------------------------
 #N Geom=AllCheck Guess=TCheck SCRF=Check GenChk RB3LYP/6-31G(d) Freq
 --------------------------------------------------------------------

 Structure from the checkpoint file:  "JID_1473.chk"
 ------------------------------
 CID_23558114_JID_1473_neutraal
 ------------------------------
 Charge =  0 Multiplicity = 1

 SCF Done:  E(RB3LYP) =  -519.090240714     A.U. after    1 cycles

  Exact polarizability: 115.036  -2.853  88.431   4.269   7.635  85.327
 Approx polarizability: 141.302  -1.070 123.409   5.586  21.546 137.578

                      1                      2                      3
                      A                      A                      A
 Frequencies --     26.5602                42.8827                64.2991
 Red. masses --      4.9247                 3.2176                 2.7246
 Frc consts  --      0.0020                 0.0035                 0.0066
 IR Inten    --      1.1776                 0.1351                 0.4745

                      4                      5                      6
                      A                      A                      A
 Frequencies --     98.2858               109.0608               150.4143
 Red. masses --      2.1781                 2.3813                 2.6440
 Frc consts  --      0.0124                 0.0167                 0.0352
 IR Inten    --      0.0656                 0.2932                 0.3658

                      7                      8                      9
                      A                      A                      A
 Frequencies --    177.3050               218.2000               235.0221
 Red. masses --      2.9656                 2.2031                 2.3738
 Frc consts  --      0.0549                 0.0618                 0.0773
 IR Inten    --      2.8059                 2.1391                 4.7300

                     10                     11                     12
                      A                      A                      A
 Frequencies --    250.0367               295.6650               319.7274
 Red. masses --      1.3605                 1.4811                 4.1595
 Frc consts  --      0.0501                 0.0763                 0.2505
 IR Inten    --      0.8016                 3.6913                 2.2118

                     13                     14                     15
                      A                      A                      A
 Frequencies --    384.1756               418.0000               435.8911
 Red. masses --      2.7463                 2.7040                 2.3633
 Frc consts  --      0.2388                 0.2784                 0.2646
 IR Inten    --      0.4524                 3.2306                 3.3492

                     16                     17                     18
                      A                      A                      A
 Frequencies --    488.7703               533.1700               612.9174
 Red. masses --      2.3046                 2.7834                 3.2033
 Frc consts  --      0.3244                 0.4662                 0.7090
 IR Inten    --     10.6950                11.0708                 4.9591

                     19                     20                     21
                      A                      A                      A
 Frequencies --    724.3639               756.4354               787.0551
 Red. masses --      1.7985                 3.0488                 1.6823
 Frc consts  --      0.5560                 1.0278                 0.6140
 IR Inten    --      3.0902                11.7948                 3.5325

                     22                     23                     24
                      A                      A                      A
 Frequencies --    805.8339               829.2058               869.2168
 Red. masses --      1.6790                 1.2701                 4.2651
 Frc consts  --      0.6424                 0.5145                 1.8986
 IR Inten    --      8.4069                10.0177                 7.6429

                     25                     26                     27
                      A                      A                      A
 Frequencies --    909.8121               911.9521               946.5774
 Red. masses --      1.4074                 2.2375                 2.4595
 Frc consts  --      0.6864                 1.0964                 1.2984
 IR Inten    --     33.3758                 8.6579                21.0410

                     28                     29                     30
                      A                      A                      A
 Frequencies --    995.2651              1004.3283              1019.5291
 Red. masses --      2.3780                 1.0777                 2.2726
 Frc consts  --      1.3879                 0.6405                 1.3918
 IR Inten    --      3.7011                26.2873                19.9286

                     31                     32                     33
                      A                      A                      A
 Frequencies --   1084.2535              1107.2303              1126.5222
 Red. masses --      2.1081                 2.4202                 1.7431
 Frc consts  --      1.4602                 1.7481                 1.3033
 IR Inten    --      4.6297                47.6285                22.5632

                     34                     35                     36
                      A                      A                      A
 Frequencies --   1144.0869              1161.2632              1205.0149
 Red. masses --      2.0066                 1.9869                 2.4968
 Frc consts  --      1.5475                 1.5787                 2.1361
 IR Inten    --     69.2035                27.5255               162.3105

                     37                     38                     39
                      A                      A                      A
 Frequencies --   1234.3184              1257.0636              1321.2608
 Red. masses --      3.0428                 2.3105                 1.1538
 Frc consts  --      2.7313                 2.1512                 1.1868
 IR Inten    --    310.5334                13.0296                21.5181

                     40                     41                     42
                      A                      A                      A
 Frequencies --   1365.4217              1385.0506              1385.5714
 Red. masses --      1.2617                 1.3239                 1.2089
 Frc consts  --      1.3860                 1.4964                 1.3674
 IR Inten    --      5.1841                 1.8555                19.4955

                     43                     44                     45
                      A                      A                      A
 Frequencies --   1406.2500              1409.0320              1422.6943
 Red. masses --      1.3715                 1.2897                 1.2587
 Frc consts  --      1.5980                 1.5086                 1.5010
 IR Inten    --     50.2321                 8.2843                 1.9614

                     46                     47                     48
                      A                      A                      A
 Frequencies --   1437.0984              1443.3779              1448.9178
 Red. masses --      1.2460                 1.1979                 1.3758
 Frc consts  --      1.5162                 1.4704                 1.7018
 IR Inten    --     10.9349                 6.8386                22.0849

                     49                     50                     51
                      A                      A                      A
 Frequencies --   1490.2495              1507.8783              1522.9115
 Red. masses --      1.0768                 1.0745                 1.0449
 Frc consts  --      1.4090                 1.4395                 1.4278
 IR Inten    --     11.7132                 6.1085                 3.2622

                     52                     53                     54
                      A                      A                      A
 Frequencies --   1527.8561              1533.7914              1540.2533
 Red. masses --      1.0511                 1.0573                 1.0507
 Frc consts  --      1.4457                 1.4656                 1.4686
 IR Inten    --      2.7077                 2.1008                 5.1221

                     55                     56                     57
                      A                      A                      A
 Frequencies --   1550.4784              1708.1046              1819.5743
 Red. masses --      1.0773                 4.4521                11.1896
 Frc consts  --      1.5259                 7.6532                21.8275
 IR Inten    --      0.2597                76.3416               147.3520

                     58                     59                     60
                      A                      A                      A
 Frequencies --   3005.1656              3034.8493              3054.5202
 Red. masses --      1.0663                 1.0604                 1.0747
 Frc consts  --      5.6737                 5.7541                 5.9078
 IR Inten    --     37.6085                41.6592                34.1438

                     61                     62                     63
                      A                      A                      A
 Frequencies --   3057.2963              3058.9871              3071.9432
 Red. masses --      1.0444                 1.0478                 1.0701
 Frc consts  --      5.7519                 5.7769                 5.9496
 IR Inten    --     11.5982                31.2870                12.0143

                     64                     65                     66
                      A                      A                      A
 Frequencies --   3073.1241              3120.8306              3124.6272
 Red. masses --      1.0946                 1.0998                 1.1022
 Frc consts  --      6.0908                 6.3109                 6.3400
 IR Inten    --     38.6111                30.1209                37.3575

                     67                     68                     69
                      A                      A                      A
 Frequencies --   3127.5611              3135.1727              3142.6306
 Red. masses --      1.1031                 1.1026                 1.1022
 Frc consts  --      6.3573                 6.3856                 6.4137
 IR Inten    --     10.6305                32.4287                31.7761

                     70                     71                     72
                      A                      A                      A
 Frequencies --   3195.9857              3226.1402              3326.0987
 Red. masses --      1.0642                 1.0958                 1.1103
 Frc consts  --      6.4046                 6.7195                 7.2368
 IR Inten    --      2.2376                22.6215                 2.3787

 - Thermochemistry -
 -------------------
 Temperature   298.150 Kelvin.  Pressure   1.00000 Atm.
 Atom     1 has atomic number  6 and mass  12.00000

 Molecular mass:   157.11028 amu.
 Principal axes and moments of inertia in atomic units:
                           1         2         3
     Eigenvalues --  1084.991262512.191072979.41962
           X            0.99986  -0.01658   0.00213
           Y            0.01661   0.99973  -0.01610
           Z           -0.00186   0.01613   0.99987
 This molecule is an asymmetric top.
 Rotational symmetry number  1.
 Warning -- assumption of classical behavior for rotation
           may cause significant error
 Rotational temperatures (Kelvin)      0.07983     0.03448     0.02907
 Rotational constants (GHZ):           1.66337     0.71839     0.60574
 Zero-point vibrational energy     596460.5 (Joules/Mol)
                                  142.55749 (Kcal/Mol)
 Warning -- explicit consideration of  18 degrees of freedom as
           vibrations may cause significant error
 Vibrational temperatures:     38.21    61.70    92.51   141.41   156.91
          (Kelvin)            216.41   255.10   313.94   338.14   359.75
                              425.40   460.02   552.74   601.41   627.15
                              703.23   767.11   881.85  1042.20  1088.34
                             1132.40  1159.42  1193.04  1250.61  1309.02
                             1312.10  1361.91  1431.96  1445.00  1466.88
                             1560.00  1593.06  1620.81  1646.09  1670.80
                             1733.75  1775.91  1808.63  1901.00  1964.54
                             1992.78  1993.53  2023.28  2027.28  2046.94
                             2067.66  2076.70  2084.67  2144.14  2169.50
                             2191.13  2198.24  2206.78  2216.08  2230.79
                             2457.58  2617.96  4323.76  4366.47  4394.77
                             4398.77  4401.20  4419.84  4421.54  4490.18
                             4495.64  4499.86  4510.81  4521.54  4598.31
                             4641.70  4785.51

 Zero-point correction=                           0.227180 (Hartree/Particle)
 Thermal correction to Energy=                    0.240085
 Thermal correction to Enthalpy=                  0.241029
 Thermal correction to Gibbs Free Energy=         0.186768
 Sum of electronic and zero-point Energies=           -518.863061
 Sum of electronic and thermal Energies=              -518.850156
 Sum of electronic and thermal Enthalpies=            -518.849212
 Sum of electronic and thermal Free Energies=         -518.903473

                     E (Thermal)             CV                S
                      KCal/Mol        Cal/Mol-Kelvin    Cal/Mol-Kelvin
 Total                  150.656             45.974            114.202
 Electronic               0.000              0.000              0.000
 Translational            0.889              2.981             41.065
 Rotational               0.889              2.981             30.475
 Vibrational            148.878             40.013             42.663
 Vibration     1          0.593              1.984              6.071
 Vibration     2          0.595              1.980              5.121
 Vibration     3          0.597              1.971              4.321
 Vibration     4          0.604              1.950              3.488
 Vibration     5          0.606              1.942              3.286
 Vibration     6          0.618              1.902              2.667
 Vibration     7          0.628              1.870              2.357
 Vibration     8          0.646              1.813              1.974
 Vibration     9          0.655              1.787              1.840
 Vibration    10          0.663              1.763              1.730
 Vibration    11          0.690              1.682              1.441
 Vibration    12          0.706              1.636              1.311
 Vibration    13          0.753              1.504              1.023
 Vibration    14          0.781              1.431              0.899
 Vibration    15          0.796              1.392              0.840
 Vibration    16          0.845              1.275              0.687
 Vibration    17          0.888              1.177              0.580
 Vibration    18          0.972              1.005              0.428

 Optimization completed.
    -- Stationary point found.
 Normal termination of Gaussian 16 at Tue Dec  8 20:13:55 2020.

 ----------------------------------------------------------------------
 # B3LYP/6-311++G(d,p) empiricaldispersion=gd3bj scf=xqc pop=npa geom=c
 heck
 ----------------------------------------------------------------------

 --------------------------------------
 CID_23558114_JID_1473_Energie_neutraal
 --------------------------------------
 Structure from the checkpoint file:  "JID_1473.chk"
 Charge =  0 Multiplicity = 1

 SCF Done:  E(RB3LYP) =  -519.242487372     A.U. after   14 cycles
 Normal termination of Gaussian 16 at Tue Dec  8 20:15:51 2020.

 ----------------------------------------------------------------------
 # B3LYP/6-311++G(d,p) empiricaldispersion=gd3bj scf=xqc pop=npa geom=c
 heck
 ----------------------------------------------------------------------

 ------------------------------------
 CID_23558114_JID_1473_Energie_kation
 ------------------------------------
 Structure from the checkpoint file:  "JID_1473.chk"
 Charge =  1 Multiplicity = 2

 SCF Done:  E(UB3LYP) =  -518.952925802     A.U. after   22 cycles
 Normal termination of Gaussian 16 at Tue Dec  8 20:21:02 2020.
 Gaussian 16:  ES64L-G16RevA.03 25-Dec-2016

 ----------------------------------------------------------------------
 # B3LYP/6-311++G(d,p) empiricaldispersion=gd3bj scf=xqc pop=npa geom=c
 heck
 ----------------------------------------------------------------------

 -----------------------------------
 CID_23558114_JID_1473_Energie_anion
 -----------------------------------
 Structure from the checkpoint file:  "JID_1473.chk"
 Charge = -1 Multiplicity = 2

                         Standard orientation:
 ---------------------------------------------------------------------
 Center     Atomic      Atomic             Coordinates (Angstroms)
 Number     Number       Type             X           Y           Z
 ---------------------------------------------------------------------
      1          6           0        2.655566   -1.802098   -0.208890
      2          6           0        2.213191   -0.399568   -0.618417
      3          7           0        1.647612    0.370707    0.492165
      4          6           0        1.469562    1.792160    0.197802
      5          6           0        0.445327    2.173474   -0.883908
      6          6           0        0.550878   -0.243838    1.223558
      7          6           0       -0.696229   -0.545485    0.393042
      8          8           0       -0.718460   -1.283662   -0.565117
      9          8           0       -1.773746    0.150692    0.866423
     10          6           0       -3.033049    0.108256    0.284989
     11          6           0       -3.431073   -0.496735   -0.831843
     12          1           0        3.286073   -1.766874    0.686376
     13          1           0        3.232469   -2.258834   -1.019967
     14          1           0        1.796133   -2.450860   -0.015153
     15          1           0        3.086742    0.168117   -0.963913
     16          1           0        1.524696   -0.480887   -1.473696
     17          1           0        1.205111    2.291543    1.138772
     18          1           0        2.454950    2.177846   -0.094275
     19          1           0       -0.576190    1.921925   -0.584019
     20          1           0        0.479423    3.254309   -1.063922
     21          1           0        0.655673    1.670236   -1.833076
     22          1           0        0.889986   -1.200270    1.635940
     23          1           0        0.280897    0.406003    2.059928
     24          1           0       -3.704302    0.691456    0.906198
     25          1           0       -4.473807   -0.389227   -1.112929
     26          1           0       -2.778525   -1.082671   -1.459875
 ---------------------------------------------------------------------

 SCF Done:  E(UB3LYP) =  -519.225376732     A.U. after   33 cycles
 SCF Done:  E(UB3LYP) =  -519.225376732     a.u. after    1 cycles

 The electronic state is 2-A.
 Alpha  occ. eigenvalues --  -19.08301 -19.01579 -14.20618 -10.20061 -10.13400
 Alpha  occ. eigenvalues --  -10.10476 -10.09058 -10.08843 -10.06372 -10.05724
 Alpha  occ. eigenvalues --  -10.05348  -1.01499  -0.93309  -0.82458  -0.68482
 Alpha  occ. eigenvalues --   -0.66064  -0.64509  -0.60047  -0.55748  -0.52540
 Alpha  occ. eigenvalues --   -0.47649  -0.43083  -0.40548  -0.39797  -0.39240
 Alpha  occ. eigenvalues --   -0.36939  -0.35904  -0.35529  -0.33402  -0.31561
 Alpha  occ. eigenvalues --   -0.30252  -0.29966  -0.29122  -0.28182  -0.27309
 Alpha  occ. eigenvalues --   -0.26307  -0.25849  -0.24600  -0.24075  -0.23553
 Alpha  occ. eigenvalues --   -0.18658  -0.15941  -0.11078   0.04726
 Alpha virt. eigenvalues --    0.06626   0.07036   0.07568   0.08017   0.09214
 Alpha virt. eigenvalues --    0.09374   0.10291   0.10391   0.11292   0.12033
 Alpha virt. eigenvalues --    0.12127   0.13034   0.13451   0.13728   0.14871

  Beta  occ. eigenvalues --  -19.08307 -19.01534 -14.20617 -10.19999 -10.13364
  Beta  occ. eigenvalues --  -10.10460 -10.09035 -10.08828 -10.06334 -10.05698
  Beta  occ. eigenvalues --  -10.05324  -1.01452  -0.93246  -0.82440  -0.68396
  Beta  occ. eigenvalues --   -0.66029  -0.64455  -0.59984  -0.55680  -0.52474
  Beta  occ. eigenvalues --   -0.47576  -0.42985  -0.40481  -0.39744  -0.39152
  Beta  occ. eigenvalues --   -0.36889  -0.35850  -0.35443  -0.33355  -0.31524
  Beta  occ. eigenvalues --   -0.30206  -0.29921  -0.29080  -0.28144  -0.27270
  Beta  occ. eigenvalues --   -0.26257  -0.25728  -0.24547  -0.24001  -0.23515
  Beta  occ. eigenvalues --   -0.18619  -0.15806  -0.11046
  Beta virt. eigenvalues --    0.06948   0.07486   0.07824   0.08256   0.08658
  Beta virt. eigenvalues --    0.09783   0.09991   0.10600   0.10908   0.11596
  Beta virt. eigenvalues --    0.12249   0.12373   0.13203   0.13825   0.14023

 Mulliken charges and spin densities:
               1          2
     1  C    0.824194  -1.315322
     2  C   -0.580078   0.275085
     3  N   -0.072348   0.257529
     4  C   -0.266902   0.056539
     5  C    0.273851  -0.682188
     6  C    2.050599  -2.709138
     7  C   -1.050420   1.004771
     8  O   -0.265255   0.059859
     9  O   -0.012951   0.049218
    10  C    0.035529   0.010798
    11  C    0.662373  -0.945778
    12  H   -0.070571   0.222602
    13  H   -0.202828   0.323208
    14  H   -0.044724   0.203566
    15  H   -0.269216   0.403644
    16  H    0.232220  -0.082839
    17  H   -0.250856   0.376178
    18  H   -0.236236   0.395191
    19  H    0.324365  -0.181910
    20  H   -0.470143   0.627890
    21  H   -0.072871   0.201835
    22  H   -0.024238   0.229111
    23  H   -0.101256   0.307065
    24  H   -0.995274   1.187670
    25  H   -0.430782   0.578405
    26  H    0.013816   0.147012
 Sum of Mulliken charges =  -1.00000   1.00000

 Dipole moment (field-independent basis, Debye):
    X=              1.8477    Y=             -2.3508    Z=             -0.7433  Tot=              3.0811
 Quadrupole moment (field-independent basis, Debye-Ang):
   XX=           -141.8125   YY=           -110.6657   ZZ=           -100.1150
   XY=              3.0841   XZ=              2.7821   YZ=             -0.3121

 Summary of Natural Population Analysis:

                                       Natural Population
                Natural  -----------------------------------------------
    Atom  No    Charge         Core      Valence    Rydberg      Total
 -----------------------------------------------------------------------
      C    1   -0.29019      0.99966     2.28619    0.00433     3.29019
      C    2   -0.08602      0.99961     2.07472    0.01168     3.08602
      N    3   -0.27592      0.99973     2.76058    0.01561     3.77592
      C    4   -0.08048      0.99962     2.06952    0.01135     3.08048
      C    5   -0.29949      0.99966     2.29473    0.00510     3.29949
      C    6   -0.12985      0.99956     2.11759    0.01270     3.12985
      C    7    0.40671      0.99968     1.56795    0.02567     2.59329
      O    8   -0.29712      0.99987     3.29147    0.00579     4.29712
      O    9   -0.27984      0.99985     3.26852    0.01147     4.27984
      C   10    0.07597      0.99944     1.90999    0.01459     2.92403
      C   11   -0.22391      0.99958     2.21673    0.00760     3.22391
      H   12    0.09795      0.00000     0.40053    0.00152     0.40205
      H   13    0.09943      0.00000     0.39967    0.00090     0.40057
      H   14    0.10099      0.00000     0.39763    0.00138     0.39901
      H   15    0.09233      0.00000     0.40616    0.00152     0.40767
      H   16    0.08782      0.00000     0.41054    0.00164     0.41218
      H   17    0.09325      0.00000     0.40545    0.00130     0.40675
      H   18    0.09255      0.00000     0.40587    0.00158     0.40745
      H   19    0.09978      0.00000     0.39882    0.00140     0.40022
      H   20    0.10065      0.00000     0.39798    0.00138     0.39935
      H   21    0.09735      0.00000     0.40158    0.00107     0.40265
      H   22    0.10811      0.00000     0.39049    0.00140     0.39189
      H   23    0.10721      0.00000     0.39090    0.00189     0.39279
      H   24    0.09200      0.00000     0.40530    0.00270     0.40800
      H   25    0.09912      0.00000     0.39957    0.00131     0.40088
      H   26    0.11160      0.00000     0.38733    0.00107     0.38840
 =======================================================================
   * Total *   -0.00000     10.99624    31.85580    0.14796    43.00000

 Normal termination of Gaussian 16 at Tue Dec  8 20:27:49 2020.
