 Gaussian 16, Revision A.03,

 -----------------------------------------------------------
 # opt freq B3LYP/6-31G(d) empiricaldispersion=gd3bj scf=xqc
 -----------------------------------------------------------

 -------------------------------
 CID_117134165_JID_5326_neutraal
 -------------------------------
 Symbolic Z-matrix:
 Charge =  0 Multiplicity = 1

 SCF Done:  E(RB3LYP) =  -973.465305964     A.U. after   15 cycles
 SCF Done:  E(RB3LYP) =  -973.469865525     A.U. after   12 cycles
 SCF Done:  E(RB3LYP) =  -973.470408539     A.U. after   12 cycles
 SCF Done:  E(RB3LYP) =  -973.470454632     A.U. after   11 cycles
 SCF Done:  E(RB3LYP) =  -973.470474297     A.U. after    9 cycles
 SCF Done:  E(RB3LYP) =  -973.470478978     A.U. after    9 cycles
 SCF Done:  E(RB3LYP) =  -973.470480767     A.U. after    9 cycles
 SCF Done:  E(RB3LYP) =  -973.470481400     A.U. after    8 cycles
 SCF Done:  E(RB3LYP) =  -973.470481689     A.U. after    7 cycles
 Optimization completed.
    -- Stationary point found.
 Normal termination of Gaussian 16 at Thu Dec 10 15:26:49 2020.

 --------------------------------------------------------------------
 #N Geom=AllCheck Guess=TCheck SCRF=Check GenChk RB3LYP/6-31G(d) Freq
 --------------------------------------------------------------------

 Structure from the checkpoint file:  "JID_5326.chk"
 -------------------------------
 CID_117134165_JID_5326_neutraal
 -------------------------------
 Charge =  0 Multiplicity = 1

 SCF Done:  E(RB3LYP) =  -973.470481689     A.U. after    1 cycles

  Exact polarizability: 242.324  -0.061 140.430  -4.317  -2.137  95.627
 Approx polarizability: 335.171  -3.020 245.504  -8.138  -6.295 148.551

                      1                      2                      3
                      A                      A                      A
 Frequencies --     38.1668                49.3374                61.8452
 Red. masses --      4.3359                 3.2328                 4.9724
 Frc consts  --      0.0037                 0.0046                 0.0112
 IR Inten    --      2.2245                 1.1844                 2.5030

                      4                      5                      6
                      A                      A                      A
 Frequencies --    104.0633               138.7162               145.6982
 Red. masses --      1.1328                 3.3118                 3.9528
 Frc consts  --      0.0072                 0.0375                 0.0494
 IR Inten    --      0.1816                 0.2449                 1.4037

                      7                      8                      9
                      A                      A                      A
 Frequencies --    202.5111               256.7574               276.5027
 Red. masses --      4.9406                 3.6506                 2.1862
 Frc consts  --      0.1194                 0.1418                 0.0985
 IR Inten    --      1.1025                 0.7726                 0.0159

                     10                     11                     12
                      A                      A                      A
 Frequencies --    306.0219               323.5478               376.8295
 Red. masses --      3.7844                 3.3340                 4.5548
 Frc consts  --      0.2088                 0.2056                 0.3811
 IR Inten    --      2.5157                 0.9259                 3.5954

                     13                     14                     15
                      A                      A                      A
 Frequencies --    443.2642               447.3466               483.7132
 Red. masses --      3.4249                 4.1916                 4.0117
 Frc consts  --      0.3965                 0.4942                 0.5530
 IR Inten    --      5.8018                 1.6090                 0.9746

                     16                     17                     18
                      A                      A                      A
 Frequencies --    511.8311               524.5123               611.0508
 Red. masses --      4.5108                 2.8709                 3.4575
 Frc consts  --      0.6962                 0.4653                 0.7606
 IR Inten    --      0.2772                 0.9867                 4.2216

                     19                     20                     21
                      A                      A                      A
 Frequencies --    638.5204               646.2666               675.3762
 Red. masses --      5.0088                 5.0367                 1.2166
 Frc consts  --      1.2032                 1.2394                 0.3269
 IR Inten    --      0.4830                 5.6229                19.7388

                     22                     23                     24
                      A                      A                      A
 Frequencies --    684.5349               740.0156               752.0749
 Red. masses --      3.7925                 6.2285                 5.1783
 Frc consts  --      1.0470                 2.0096                 1.7257
 IR Inten    --      3.8536                 6.6545                 5.7449

                     25                     26                     27
                      A                      A                      A
 Frequencies --    759.7095               788.3336               798.0950
 Red. masses --      6.0279                 1.4207                 5.4054
 Frc consts  --      2.0498                 0.5202                 2.0285
 IR Inten    --      1.7248                25.7673                 3.8955

                     28                     29                     30
                      A                      A                      A
 Frequencies --    855.6229               880.8092               891.0133
 Red. masses --      2.9167                 1.5177                 1.3325
 Frc consts  --      1.2581                 0.6938                 0.6233
 IR Inten    --      3.1341                 1.6494                 7.5471

                     31                     32                     33
                      A                      A                      A
 Frequencies --    911.0313               919.1733               921.9311
 Red. masses --      2.3281                 2.2916                 1.2458
 Frc consts  --      1.1385                 1.1407                 0.6239
 IR Inten    --      2.8149                 3.7116                 0.0274

                     34                     35                     36
                      A                      A                      A
 Frequencies --    964.3214               984.8676              1029.0226
 Red. masses --      3.0264                 1.9911                 2.5956
 Frc consts  --      1.6582                 1.1379                 1.6193
 IR Inten    --      0.9855                 1.8718                 4.5888

                     37                     38                     39
                      A                      A                      A
 Frequencies --   1043.5629              1053.0693              1066.1449
 Red. masses --      1.6947                 1.9312                 1.4814
 Frc consts  --      1.0874                 1.2618                 0.9921
 IR Inten    --      0.3932                15.9219                 3.2270

                     40                     41                     42
                      A                      A                      A
 Frequencies --   1076.4609              1132.8573              1164.3856
 Red. masses --      1.4934                 1.4542                 1.5443
 Frc consts  --      1.0196                 1.0996                 1.2336
 IR Inten    --      3.7161                 7.4919                10.2916

                     43                     44                     45
                      A                      A                      A
 Frequencies --   1178.6901              1190.0626              1204.3604
 Red. masses --      1.5390                 1.5120                 1.6351
 Frc consts  --      1.2598                 1.2617                 1.3974
 IR Inten    --      6.3153                 0.0887                19.5041

                     46                     47                     48
                      A                      A                      A
 Frequencies --   1235.4371              1272.4500              1283.3690
 Red. masses --      1.3663                 2.1595                 1.6865
 Frc consts  --      1.2287                 2.0600                 1.6365
 IR Inten    --     17.5195                29.8383                 3.6192

                     49                     50                     51
                      A                      A                      A
 Frequencies --   1300.0793              1312.9067              1320.5110
 Red. masses --      1.7680                 1.2948                 1.5353
 Frc consts  --      1.7606                 1.3150                 1.5774
 IR Inten    --     16.6233                15.7187                 1.8763

                     52                     53                     54
                      A                      A                      A
 Frequencies --   1356.6023              1366.2063              1382.1204
 Red. masses --      3.4211                 1.6449                 1.4749
 Frc consts  --      3.7096                 1.8090                 1.6600
 IR Inten    --     41.8991                 8.6449                14.5216

                     55                     56                     57
                      A                      A                      A
 Frequencies --   1394.0000              1416.2502              1443.9911
 Red. masses --      3.5020                 2.0388                 1.2499
 Frc consts  --      4.0095                 2.4094                 1.5356
 IR Inten    --     58.4546                 1.0940                 2.3356

                     58                     59                     60
                      A                      A                      A
 Frequencies --   1512.0562              1512.6307              1513.3203
 Red. masses --      1.0467                 1.1940                 1.1231
 Frc consts  --      1.4099                 1.6096                 1.5154
 IR Inten    --      6.3772                 7.1262                 4.3189

                     61                     62                     63
                      A                      A                      A
 Frequencies --   1516.2499              1531.4951              1533.5053
 Red. masses --      1.0893                 3.4350                 1.1238
 Frc consts  --      1.4755                 4.7468                 1.5571
 IR Inten    --      3.1766                 6.2768                 0.4621

                     64                     65                     66
                      A                      A                      A
 Frequencies --   1556.7747              1573.0731              1581.2205
 Red. masses --      5.3541                 4.0796                 4.9294
 Frc consts  --      7.6452                 5.9479                 7.2615
 IR Inten    --     34.3560                 3.8841                 7.8183

                     67                     68                     69
                      A                      A                      A
 Frequencies --   1708.2143              3042.0778              3051.0133
 Red. masses --      6.3816                 1.0381                 1.0599
 Frc consts  --     10.9714                 5.6604                 5.8128
 IR Inten    --     40.2606                42.3780                38.4771

                     70                     71                     72
                      A                      A                      A
 Frequencies --   3068.0477              3074.4380              3078.6784
 Red. masses --      1.0634                 1.0650                 1.0849
 Frc consts  --      5.8975                 5.9310                 6.0587
 IR Inten    --     23.8692                21.2462                22.5540

                     73                     74                     75
                      A                      A                      A
 Frequencies --   3091.8669              3094.2761              3123.8167
 Red. masses --      1.1008                 1.0982                 1.1029
 Frc consts  --      6.2001                 6.1950                 6.3410
 IR Inten    --     19.6714                35.6454                15.3385

                     76                     77                     78
                      A                      A                      A
 Frequencies --   3131.9977              3134.1670              3210.5609
 Red. masses --      1.1077                 1.1002                 1.0884
 Frc consts  --      6.4021                 6.3674                 6.6102
 IR Inten    --     22.2318                15.1692                 4.5589

                     79                     80                     81
                      A                      A                      A
 Frequencies --   3223.3952              3238.1101              3287.5951
 Red. masses --      1.0914                 1.0961                 1.0974
 Frc consts  --      6.6816                 6.7716                 6.9880
 IR Inten    --      3.9766                 7.5238                 0.3177

 - Thermochemistry -
 -------------------
 Temperature   298.150 Kelvin.  Pressure   1.00000 Atm.
 Atom     1 has atomic number  6 and mass  12.00000

 Molecular mass:   218.08777 amu.
 Principal axes and moments of inertia in atomic units:
                           1         2         3
     Eigenvalues --  1133.897417240.205857623.68835
           X            0.99995  -0.00054  -0.00961
           Y            0.00028   0.99963  -0.02724
           Z            0.00962   0.02723   0.99958
 This molecule is an asymmetric top.
 Rotational symmetry number  1.
 Warning -- assumption of classical behavior for rotation
           may cause significant error
 Rotational temperatures (Kelvin)      0.07639     0.01196     0.01136
 Rotational constants (GHZ):           1.59163     0.24927     0.23673
 Zero-point vibrational energy     632373.1 (Joules/Mol)
                                  151.14081 (Kcal/Mol)
 Warning -- explicit consideration of  18 degrees of freedom as
           vibrations may cause significant error
 Vibrational temperatures:     54.91    70.99    88.98   149.72   199.58
          (Kelvin)            209.63   291.37   369.42   397.83   440.30
                              465.51   542.17   637.76   643.63   695.96
                              736.41   754.66   879.17   918.69   929.83
                              971.72   984.89  1064.72  1082.07  1093.05
                             1134.24  1148.28  1231.05  1267.29  1281.97
                             1310.77  1322.49  1326.45  1387.44  1417.00
                             1480.53  1501.45  1515.13  1533.94  1548.79
                             1629.93  1675.29  1695.87  1712.23  1732.81
                             1777.52  1830.77  1846.48  1870.52  1888.98
                             1899.92  1951.85  1965.67  1988.56  2005.66
                             2037.67  2077.58  2175.51  2176.34  2177.33
                             2181.55  2203.48  2206.37  2239.85  2263.30
                             2275.02  2457.74  4376.87  4389.73  4414.24
                             4423.43  4429.53  4448.51  4451.97  4494.48
                             4506.25  4509.37  4619.28  4637.75  4658.92
                             4730.12

 Zero-point correction=                           0.240858 (Hartree/Particle)
 Thermal correction to Energy=                    0.253980
 Thermal correction to Enthalpy=                  0.254924
 Thermal correction to Gibbs Free Energy=         0.199913
 Sum of electronic and zero-point Energies=           -973.229623
 Sum of electronic and thermal Energies=              -973.216502
 Sum of electronic and thermal Enthalpies=            -973.215558
 Sum of electronic and thermal Free Energies=         -973.270568

                     E (Thermal)             CV                S
                      KCal/Mol        Cal/Mol-Kelvin    Cal/Mol-Kelvin
 Total                  159.375             51.173            115.779
 Electronic               0.000              0.000              0.000
 Translational            0.889              2.981             42.042
 Rotational               0.889              2.981             32.504
 Vibrational            157.597             45.212             41.233
 Vibration     1          0.594              1.982              5.352
 Vibration     2          0.595              1.978              4.844
 Vibration     3          0.597              1.973              4.397
 Vibration     4          0.605              1.946              3.377
 Vibration     5          0.614              1.915              2.822
 Vibration     6          0.617              1.907              2.728
 Vibration     7          0.639              1.836              2.110
 Vibration     8          0.666              1.751              1.684
 Vibration     9          0.678              1.717              1.555
 Vibration    10          0.696              1.662              1.384
 Vibration    11          0.708              1.628              1.292
 Vibration    12          0.747              1.519              1.052
 Vibration    13          0.803              1.376              0.816
 Vibration    14          0.806              1.367              0.804
 Vibration    15          0.840              1.286              0.700
 Vibration    16          0.867              1.224              0.629
 Vibration    17          0.879              1.196              0.600
 Vibration    18          0.970              1.008              0.431

                           ! Non-Optimized Parameters !
 Normal termination of Gaussian 16 at Thu Dec 10 15:34:22 2020.

 ----------------------------------------------------------------------
 # B3LYP/6-311++G(d,p) empiricaldispersion=gd3bj scf=xqc pop=npa geom=c
 heck
 ----------------------------------------------------------------------

 ---------------------------------------
 CID_117134165_JID_5326_Energie_neutraal
 ---------------------------------------
 Structure from the checkpoint file:  "JID_5326.chk"
 Charge =  0 Multiplicity = 1

 SCF Done:  E(RB3LYP) =  -973.643327531     A.U. after   16 cycles
 Normal termination of Gaussian 16 at Thu Dec 10 15:37:45 2020.

 ----------------------------------------------------------------------
 # B3LYP/6-311++G(d,p) empiricaldispersion=gd3bj scf=xqc pop=npa geom=c
 heck
 ----------------------------------------------------------------------

 -------------------------------------
 CID_117134165_JID_5326_Energie_kation
 -------------------------------------
 Structure from the checkpoint file:  "JID_5326.chk"
 Charge =  1 Multiplicity = 2

 SCF Done:  E(UB3LYP) =  -973.372146156     A.U. after   29 cycles
 Normal termination of Gaussian 16 at Thu Dec 10 15:46:15 2020.
 Gaussian 16:  ES64L-G16RevA.03 25-Dec-2016

 ----------------------------------------------------------------------
 # B3LYP/6-311++G(d,p) empiricaldispersion=gd3bj scf=xqc pop=npa geom=c
 heck
 ----------------------------------------------------------------------

 ------------------------------------
 CID_117134165_JID_5326_Energie_anion
 ------------------------------------
 Structure from the checkpoint file:  "JID_5326.chk"
 Charge = -1 Multiplicity = 2

                         Standard orientation:
 ---------------------------------------------------------------------
 Center     Atomic      Atomic             Coordinates (Angstroms)
 Number     Number       Type             X           Y           Z
 ---------------------------------------------------------------------
      1          6           0       -4.987463   -1.456168    0.309811
      2          6           0       -3.748479   -0.617202    0.134840
      3          6           0       -2.494887   -1.180312    0.068165
      4          6           0       -1.348354   -0.369611   -0.093268
      5          7           0       -0.060680   -0.687247   -0.182303
      6          6           0        0.605200    0.500054   -0.333422
      7          6           0       -0.269278    1.571130   -0.342583
      8          7           0       -1.528231    1.025618   -0.186275
      9          6           0       -2.771429    1.599745   -0.121959
     10          6           0       -3.869096    0.804896    0.035606
     11          6           0        2.093412    0.564634   -0.447834
     12          6           0        2.698489   -0.578676   -1.279827
     13          6           0        4.149605   -0.766185   -0.836239
     14          6           0        4.124605   -0.837672    0.692889
     15         16           0        2.922219    0.452602    1.234182
     16          1           0       -4.741350   -2.519858    0.372917
     17          1           0       -5.681935   -1.318503   -0.528553
     18          1           0       -5.528364   -1.179286    1.223439
     19          1           0       -2.345915   -2.252198    0.139727
     20          1           0       -0.114121    2.635091   -0.434774
     21          1           0       -2.810134    2.679723   -0.200690
     22          1           0       -4.848167    1.269740    0.086864
     23          1           0        2.376772    1.534630   -0.867342
     24          1           0        2.119300   -1.486141   -1.083143
     25          1           0        2.613987   -0.352325   -2.349001
     26          1           0        4.593918   -1.671421   -1.267100
     27          1           0        4.757008    0.089752   -1.155133
     28          1           0        3.783612   -1.819404    1.035546
     29          1           0        5.098321   -0.627839    1.143306
 ---------------------------------------------------------------------

 SCF Done:  E(UB3LYP) =  -973.633118537     A.U. after   33 cycles
 SCF Done:  E(UB3LYP) =  -973.633123837     a.u. after    3 cycles

 The electronic state is 2-A.
 Alpha  occ. eigenvalues --  -88.72624 -14.26163 -14.16791 -10.11148 -10.10063
 Alpha  occ. eigenvalues --  -10.09709 -10.09086 -10.08214 -10.08045 -10.07747
 Alpha  occ. eigenvalues --  -10.06828 -10.06533 -10.06439 -10.05736 -10.04698
 Alpha  occ. eigenvalues --   -7.81245  -5.77641  -5.77295  -5.76595  -0.90858
 Alpha  occ. eigenvalues --   -0.78823  -0.74027  -0.71760  -0.65965  -0.63923
 Alpha  occ. eigenvalues --   -0.61961  -0.61508  -0.57622  -0.52518  -0.50041
 Alpha  occ. eigenvalues --   -0.48601  -0.47646  -0.44121  -0.41087  -0.39007
 Alpha  occ. eigenvalues --   -0.37307  -0.36660  -0.34928  -0.34215  -0.34125
 Alpha  occ. eigenvalues --   -0.32766  -0.31433  -0.31368  -0.29024  -0.28717
 Alpha  occ. eigenvalues --   -0.26784  -0.25916  -0.25601  -0.25239  -0.24436
 Alpha  occ. eigenvalues --   -0.23868  -0.21632  -0.20190  -0.19409  -0.15793
 Alpha  occ. eigenvalues --   -0.12731  -0.11168  -0.09418   0.04697
 Alpha virt. eigenvalues --    0.06171   0.06958   0.07421   0.08173   0.08607
 Alpha virt. eigenvalues --    0.09112   0.09741   0.10162   0.10437   0.11028
 Alpha virt. eigenvalues --    0.11418   0.11939   0.12428   0.12654   0.12938

  Beta  occ. eigenvalues --  -88.72620 -14.26026 -14.16747 -10.11179 -10.10054
  Beta  occ. eigenvalues --  -10.09699 -10.08843 -10.08192 -10.08063 -10.07727
  Beta  occ. eigenvalues --  -10.06815 -10.06531 -10.06291 -10.05752 -10.04535
  Beta  occ. eigenvalues --   -7.81242  -5.77637  -5.77288  -5.76591  -0.90665
  Beta  occ. eigenvalues --   -0.78656  -0.73990  -0.71495  -0.65884  -0.63715
  Beta  occ. eigenvalues --   -0.61844  -0.61421  -0.57532  -0.52299  -0.49947
  Beta  occ. eigenvalues --   -0.48503  -0.47544  -0.44013  -0.40959  -0.38920
  Beta  occ. eigenvalues --   -0.37232  -0.36592  -0.34812  -0.34019  -0.33716
  Beta  occ. eigenvalues --   -0.32688  -0.31377  -0.31205  -0.28979  -0.28655
  Beta  occ. eigenvalues --   -0.26666  -0.25828  -0.25528  -0.25193  -0.24320
  Beta  occ. eigenvalues --   -0.23833  -0.21277  -0.20020  -0.18712  -0.15729
  Beta  occ. eigenvalues --   -0.12411  -0.10985  -0.08772
  Beta virt. eigenvalues --    0.06614   0.07038   0.07821   0.08454   0.08760
  Beta virt. eigenvalues --    0.08930   0.09352   0.09927   0.10423   0.10575
  Beta virt. eigenvalues --    0.11149   0.11482   0.12150   0.12627   0.12737

 Mulliken charges and spin densities:
               1          2
     1  C    0.414849  -1.024980
     2  C    0.539273  -0.235122
     3  C   -0.822104   0.826728
     4  C   -0.036974  -0.438767
     5  N   -0.054039   0.052378
     6  C    0.909133  -0.452992
     7  C    0.084766  -0.377178
     8  N    0.160330   0.040950
     9  C   -0.210681   0.365756
    10  C    0.209888  -0.674472
    11  C   -0.603561   0.709856
    12  C   -0.587009  -0.173587
    13  C    0.103276  -0.337146
    14  C   -0.330361  -0.265407
    15  S   -0.230232   0.135003
    16  H    0.079988   0.053853
    17  H   -0.105601   0.258383
    18  H    0.093033   0.046809
    19  H    0.038643   0.092568
    20  H   -0.077874   0.244849
    21  H   -0.331414   0.440825
    22  H   -0.333385   0.501005
    23  H    0.018192   0.277541
    24  H    0.257292  -0.035854
    25  H   -0.102593   0.243420
    26  H   -0.291173   0.449311
    27  H    0.010708   0.127340
    28  H    0.175440  -0.000446
    29  H    0.022189   0.149374
 Sum of Mulliken charges =  -1.00000   1.00000

 Dipole moment (field-independent basis, Debye):
    X=              2.0030    Y=             -0.8088    Z=              1.8489  Tot=              2.8433
 Quadrupole moment (field-independent basis, Debye-Ang):
   XX=           -178.0574   YY=           -123.2509   ZZ=           -122.9496
   XY=              4.2706   XZ=             -3.0593   YZ=              0.2008

 Summary of Natural Population Analysis:

                                       Natural Population
                Natural  -----------------------------------------------
    Atom  No    Charge         Core      Valence    Rydberg      Total
 -----------------------------------------------------------------------
      C    1   -0.29239      0.99964     2.28737    0.00538     3.29239
      C    2    0.00746      0.99953     1.98397    0.00903     2.99254
      C    3   -0.09328      0.99947     2.08538    0.00844     3.09328
      C    4    0.18416      0.99958     1.80039    0.01587     2.81584
      N    5   -0.26810      0.99967     2.75973    0.00870     3.76810
      C    6    0.06245      0.99952     1.92182    0.01621     2.93755
      C    7   -0.05133      0.99949     2.04036    0.01147     3.05133
      N    8   -0.16996      0.99961     2.66150    0.00885     3.66996
      C    9    0.06367      0.99955     1.92542    0.01136     2.93633
      C   10   -0.13627      0.99953     2.12680    0.00994     3.13627
      C   11   -0.15975      0.99951     2.14516    0.01507     3.15975
      C   12   -0.19475      0.99961     2.18485    0.01029     3.19475
      C   13   -0.19547      0.99963     2.18682    0.00902     3.19547
      C   14   -0.24606      0.99961     2.23607    0.01038     3.24606
      S   15    0.07348      4.99965     2.91133    0.01553     7.92652
      H   16    0.09905      0.00000     0.40025    0.00070     0.40095
      H   17    0.10306      0.00000     0.39559    0.00135     0.39694
      H   18    0.09966      0.00000     0.39949    0.00085     0.40034
      H   19    0.10174      0.00000     0.39724    0.00103     0.39826
      H   20    0.10217      0.00000     0.39686    0.00096     0.39783
      H   21    0.09536      0.00000     0.40353    0.00112     0.40464
      H   22    0.10079      0.00000     0.39818    0.00103     0.39921
      H   23    0.10313      0.00000     0.39528    0.00160     0.39687
      H   24    0.11129      0.00000     0.38682    0.00189     0.38871
      H   25    0.10419      0.00000     0.39474    0.00107     0.39581
      H   26    0.10071      0.00000     0.39818    0.00111     0.39929
      H   27    0.09647      0.00000     0.40223    0.00129     0.40353
      H   28    0.09672      0.00000     0.40183    0.00144     0.40328
      H   29    0.10179      0.00000     0.39682    0.00139     0.39821
 =======================================================================
   * Total *    0.00000     18.99362    38.82403    0.18236    58.00000

 Normal termination of Gaussian 16 at Thu Dec 10 16:27:50 2020.
