 Gaussian 16, Revision A.03,

 -----------------------------------------------------------
 # opt freq B3LYP/6-31G(d) empiricaldispersion=gd3bj scf=xqc
 -----------------------------------------------------------

 -------------------------------
 CID_131263702_JID_6579_neutraal
 -------------------------------
 Symbolic Z-matrix:
 Charge =  0 Multiplicity = 1

 SCF Done:  E(RB3LYP) =  -763.979659360     A.U. after   14 cycles
 SCF Done:  E(RB3LYP) =  -763.983506768     A.U. after   13 cycles
 SCF Done:  E(RB3LYP) =  -763.982658647     A.U. after   13 cycles
 SCF Done:  E(RB3LYP) =  -763.984765341     A.U. after   11 cycles
 SCF Done:  E(RB3LYP) =  -763.985092462     A.U. after   11 cycles
 SCF Done:  E(RB3LYP) =  -763.985313076     A.U. after   12 cycles
 SCF Done:  E(RB3LYP) =  -763.985420884     A.U. after   11 cycles
 SCF Done:  E(RB3LYP) =  -763.985485343     A.U. after   11 cycles
 SCF Done:  E(RB3LYP) =  -763.985501882     A.U. after    9 cycles
 SCF Done:  E(RB3LYP) =  -763.985505624     A.U. after    9 cycles
 SCF Done:  E(RB3LYP) =  -763.985506971     A.U. after    8 cycles
 SCF Done:  E(RB3LYP) =  -763.985507097     A.U. after    8 cycles
 SCF Done:  E(RB3LYP) =  -763.985507161     A.U. after    7 cycles
 Optimization completed.
    -- Stationary point found.
 Normal termination of Gaussian 16 at Thu Dec 10 23:44:57 2020.

 --------------------------------------------------------------------
 #N Geom=AllCheck Guess=TCheck SCRF=Check GenChk RB3LYP/6-31G(d) Freq
 --------------------------------------------------------------------

 Structure from the checkpoint file:  "JID_6579.chk"
 -------------------------------
 CID_131263702_JID_6579_neutraal
 -------------------------------
 Charge =  0 Multiplicity = 1

 SCF Done:  E(RB3LYP) =  -763.985507161     A.U. after    1 cycles

  Exact polarizability: 146.635  -0.479 125.399  -4.509  -8.028 109.147
 Approx polarizability: 196.478  -5.574 205.919 -14.021 -16.385 169.884

                      1                      2                      3
                      A                      A                      A
 Frequencies --     32.0980                37.5581                64.2048
 Red. masses --      5.1243                 5.4878                 6.3604
 Frc consts  --      0.0031                 0.0046                 0.0154
 IR Inten    --      0.1425                 0.9379                 1.2623

                      4                      5                      6
                      A                      A                      A
 Frequencies --     81.7959                85.3378               133.0223
 Red. masses --      5.2462                 7.5881                 3.5557
 Frc consts  --      0.0207                 0.0326                 0.0371
 IR Inten    --      2.0706                 1.3612                 0.4186

                      7                      8                      9
                      A                      A                      A
 Frequencies --    187.6322               208.2745               237.2785
 Red. masses --      2.9319                 2.9064                 3.2169
 Frc consts  --      0.0608                 0.0743                 0.1067
 IR Inten    --      0.2247                 0.3718                 0.0893

                     10                     11                     12
                      A                      A                      A
 Frequencies --    268.9097               279.0153               334.3562
 Red. masses --      6.3682                 2.9990                 2.0774
 Frc consts  --      0.2713                 0.1376                 0.1368
 IR Inten    --      5.3620                 2.0651                 1.8617

                     13                     14                     15
                      A                      A                      A
 Frequencies --    355.2448               405.4215               415.1640
 Red. masses --      3.3892                 3.0784                 2.8933
 Frc consts  --      0.2520                 0.2981                 0.2938
 IR Inten    --      3.0437                 1.3374                 3.2155

                     16                     17                     18
                      A                      A                      A
 Frequencies --    444.2706               515.1880               528.0661
 Red. masses --      1.7750                 3.4447                 2.6555
 Frc consts  --      0.2064                 0.5387                 0.4363
 IR Inten    --      1.1939                23.7205                 3.5266

                     19                     20                     21
                      A                      A                      A
 Frequencies --    561.5741               603.7044               619.2608
 Red. masses --      2.8920                 2.8555                 3.2290
 Frc consts  --      0.5374                 0.6132                 0.7296
 IR Inten    --      9.9884                18.0178                 4.8437

                     22                     23                     24
                      A                      A                      A
 Frequencies --    645.0740               680.1429               725.3014
 Red. masses --      5.3693                 1.5892                 3.3037
 Frc consts  --      1.3164                 0.4331                 1.0240
 IR Inten    --      7.6081               103.8667                14.2177

                     25                     26                     27
                      A                      A                      A
 Frequencies --    747.3282               766.6738               803.8091
 Red. masses --      2.9571                 2.1646                 2.9726
 Frc consts  --      0.9731                 0.7496                 1.1316
 IR Inten    --     25.8683                25.9838                10.9188

                     28                     29                     30
                      A                      A                      A
 Frequencies --    838.3954               847.7009               866.3722
 Red. masses --      1.5851                 1.6811                 2.1674
 Frc consts  --      0.6565                 0.7117                 0.9585
 IR Inten    --      9.4019                14.9072                 1.3869

                     31                     32                     33
                      A                      A                      A
 Frequencies --    888.9322               902.1813               918.7497
 Red. masses --      5.9795                 1.3661                 2.7801
 Frc consts  --      2.7839                 0.6551                 1.3826
 IR Inten    --     31.8574                10.6609                 3.5197

                     34                     35                     36
                      A                      A                      A
 Frequencies --    933.5611               938.0483               964.6212
 Red. masses --      2.4438                 5.5849                 2.2926
 Frc consts  --      1.2549                 2.8955                 1.2569
 IR Inten    --      3.4318                 3.3966                13.3527

                     37                     38                     39
                      A                      A                      A
 Frequencies --    974.5344              1000.3688              1039.4172
 Red. masses --      1.9274                 2.3553                 3.8620
 Frc consts  --      1.0785                 1.3887                 2.4583
 IR Inten    --     14.4607                 4.4581                10.2066

                     40                     41                     42
                      A                      A                      A
 Frequencies --   1073.2025              1082.0199              1104.7445
 Red. masses --      1.9762                 1.8926                 2.0052
 Frc consts  --      1.3410                 1.3055                 1.4419
 IR Inten    --      4.9861                 6.1791                25.6106

                     43                     44                     45
                      A                      A                      A
 Frequencies --   1124.6116              1152.6731              1162.7128
 Red. masses --      2.2407                 2.4283                 2.5061
 Frc consts  --      1.6697                 1.9010                 1.9962
 IR Inten    --     36.5161                22.6202               125.7239

                     46                     47                     48
                      A                      A                      A
 Frequencies --   1169.7491              1199.4211              1214.1250
 Red. masses --      1.8537                 1.6011                 1.5646
 Frc consts  --      1.4944                 1.3571                 1.3589
 IR Inten    --     41.6762                83.8207                28.7971

                     49                     50                     51
                      A                      A                      A
 Frequencies --   1228.3187              1252.9641              1279.5006
 Red. masses --      1.1914                 1.6685                 1.3269
 Frc consts  --      1.0591                 1.5433                 1.2798
 IR Inten    --      0.6996                14.3032                 1.1065

                     52                     53                     54
                      A                      A                      A
 Frequencies --   1291.9313              1305.2900              1312.8252
 Red. masses --      1.8300                 1.3064                 1.3727
 Frc consts  --      1.7996                 1.3115                 1.3939
 IR Inten    --      8.6153                 0.9390                10.8253

                     55                     56                     57
                      A                      A                      A
 Frequencies --   1340.0641              1351.1759              1371.4531
 Red. masses --      1.4475                 1.5858                 1.8955
 Frc consts  --      1.5315                 1.7058                 2.1005
 IR Inten    --      7.5189                 4.9298                14.5934

                     58                     59                     60
                      A                      A                      A
 Frequencies --   1386.5808              1389.2986              1396.4781
 Red. masses --      1.3350                 1.3522                 1.6854
 Frc consts  --      1.5122                 1.5378                 1.9365
 IR Inten    --      3.5688                35.6311                11.4669

                     61                     62                     63
                      A                      A                      A
 Frequencies --   1409.9021              1417.7242              1423.6282
 Red. masses --      1.5984                 1.4207                 1.9153
 Frc consts  --      1.8720                 1.6824                 2.2871
 IR Inten    --      6.6208                 5.6751                 0.8353

                     64                     65                     66
                      A                      A                      A
 Frequencies --   1429.5466              1447.2049              1487.0595
 Red. masses --      1.5330                 1.4298                 5.5201
 Frc consts  --      1.8458                 1.7644                 7.1920
 IR Inten    --     11.4338                 5.6006                12.4830

                     67                     68                     69
                      A                      A                      A
 Frequencies --   1504.2781              1509.0970              1517.7847
 Red. masses --      1.1030                 1.0801                 1.0929
 Frc consts  --      1.4706                 1.4493                 1.4834
 IR Inten    --      5.7107                 0.3882                 6.7335

                     70                     71                     72
                      A                      A                      A
 Frequencies --   1522.8503              1530.1414              1545.7611
 Red. masses --      1.0948                 1.0838                 1.1016
 Frc consts  --      1.4958                 1.4951                 1.5509
 IR Inten    --      7.9410                 6.8797                11.2016

                     73                     74                     75
                      A                      A                      A
 Frequencies --   1652.9538              1829.3796              2951.4017
 Red. masses --      5.6514                 9.5654                 1.0733
 Frc consts  --      9.0977                18.8609                 5.5082
 IR Inten    --     12.3239               223.1874                72.6593

                     76                     77                     78
                      A                      A                      A
 Frequencies --   3003.0524              3010.4326              3036.1672
 Red. masses --      1.0688                 1.0807                 1.0685
 Frc consts  --      5.6790                 5.7707                 5.8033
 IR Inten    --     37.5706                17.5897                19.5956

                     79                     80                     81
                      A                      A                      A
 Frequencies --   3043.9911              3053.3464              3065.9219
 Red. masses --      1.0675                 1.0610                 1.0643
 Frc consts  --      5.8278                 5.8281                 5.8941
 IR Inten    --     45.9494                26.2660                36.5195

                     82                     83                     84
                      A                      A                      A
 Frequencies --   3075.4295              3092.7718              3095.6135
 Red. masses --      1.0930                 1.0945                 1.0993
 Frc consts  --      6.0908                 6.1684                 6.2069
 IR Inten    --     31.2043                26.6780                20.5045

                     85                     86                     87
                      A                      A                      A
 Frequencies --   3098.5933              3104.4778              3114.5948
 Red. masses --      1.0983                 1.0984                 1.0969
 Frc consts  --      6.2131                 6.2373                 6.2692
 IR Inten    --      5.4134                35.9160                39.1230

                     88                     89                     90
                      A                      A                      A
 Frequencies --   3256.4688              3280.2760              3684.4352
 Red. masses --      1.0957                 1.0988                 1.0639
 Frc consts  --      6.8462                 6.9662                 8.5093
 IR Inten    --      1.4655                 0.1919                46.3192

 - Thermochemistry -
 -------------------
 Temperature   298.150 Kelvin.  Pressure   1.00000 Atm.
 Atom     1 has atomic number  6 and mass  12.00000

 Molecular mass:   224.11609 amu.
 Principal axes and moments of inertia in atomic units:
                           1         2         3
     Eigenvalues --  1565.227116254.950946600.87652
           X            0.99992   0.00915   0.00901
           Y           -0.00882   0.99932  -0.03591
           Z           -0.00933   0.03583   0.99931
 This molecule is an asymmetric top.
 Rotational symmetry number  1.
 Warning -- assumption of classical behavior for rotation
           may cause significant error
 Rotational temperatures (Kelvin)      0.05534     0.01385     0.01312
 Rotational constants (GHZ):           1.15302     0.28853     0.27341
 Zero-point vibrational energy     713345.3 (Joules/Mol)
                                  170.49361 (Kcal/Mol)
 Warning -- explicit consideration of  21 degrees of freedom as
           vibrations may cause significant error
 Vibrational temperatures:     46.18    54.04    92.38   117.69   122.78
          (Kelvin)            191.39   269.96   299.66   341.39   386.90
                              401.44   481.06   511.12   583.31   597.33
                              639.21   741.24   759.77   807.98   868.60
                              890.98   928.12   978.57  1043.55  1075.24
                             1103.07  1156.50  1206.26  1219.65  1246.52
                             1278.98  1298.04  1321.88  1343.19  1349.64
                             1387.87  1402.14  1439.31  1495.49  1544.10
                             1556.79  1589.48  1618.07  1658.44  1672.88
                             1683.01  1725.70  1746.86  1767.28  1802.74
                             1840.92  1858.80  1878.02  1888.86  1928.05
                             1944.04  1973.22  1994.98  1998.89  2009.22
                             2028.53  2039.79  2048.28  2056.80  2082.21
                             2139.55  2164.32  2171.25  2183.75  2191.04
                             2201.53  2224.01  2378.23  2632.07  4246.41
                             4320.72  4331.34  4368.37  4379.62  4393.08
                             4411.18  4424.86  4449.81  4453.90  4458.18
                             4466.65  4481.21  4685.33  4719.59  5301.08

 Zero-point correction=                           0.271699 (Hartree/Particle)
 Thermal correction to Energy=                    0.285936
 Thermal correction to Enthalpy=                  0.286880
 Thermal correction to Gibbs Free Energy=         0.229069
 Sum of electronic and zero-point Energies=           -763.713808
 Sum of electronic and thermal Energies=              -763.699571
 Sum of electronic and thermal Enthalpies=            -763.698627
 Sum of electronic and thermal Free Energies=         -763.756438

                     E (Thermal)             CV                S
                      KCal/Mol        Cal/Mol-Kelvin    Cal/Mol-Kelvin
 Total                  179.427             54.882            121.673
 Electronic               0.000              0.000              0.000
 Translational            0.889              2.981             42.123
 Rotational               0.889              2.981             32.536
 Vibrational            177.650             48.921             47.014
 Vibration     1          0.594              1.983              5.695
 Vibration     2          0.594              1.982              5.384
 Vibration     3          0.597              1.971              4.324
 Vibration     4          0.600              1.962              3.847
 Vibration     5          0.601              1.959              3.764
 Vibration     6          0.613              1.920              2.902
 Vibration     7          0.632              1.857              2.251
 Vibration     8          0.642              1.828              2.059
 Vibration     9          0.656              1.784              1.823
 Vibration    10          0.673              1.730              1.603
 Vibration    11          0.679              1.712              1.540
 Vibration    12          0.716              1.607              1.239
 Vibration    13          0.731              1.564              1.143
 Vibration    14          0.770              1.458              0.943
 Vibration    15          0.779              1.437              0.909
 Vibration    16          0.804              1.374              0.813
 Vibration    17          0.870              1.216              0.621
 Vibration    18          0.883              1.188              0.592
 Vibration    19          0.917              1.114              0.521
 Vibration    20          0.962              1.024              0.443
 Vibration    21          0.979              0.991              0.418

                           ! Non-Optimized Parameters !
 Normal termination of Gaussian 16 at Thu Dec 10 23:57:36 2020.

 ----------------------------------------------------------------------
 # B3LYP/6-311++G(d,p) empiricaldispersion=gd3bj scf=xqc pop=npa geom=c
 heck
 ----------------------------------------------------------------------

 ---------------------------------------
 CID_131263702_JID_6579_Energie_neutraal
 ---------------------------------------
 Structure from the checkpoint file:  "JID_6579.chk"
 Charge =  0 Multiplicity = 1

 SCF Done:  E(RB3LYP) =  -764.204684645     A.U. after   15 cycles
 Normal termination of Gaussian 16 at Fri Dec 11 00:03:30 2020.

 ----------------------------------------------------------------------
 # B3LYP/6-311++G(d,p) empiricaldispersion=gd3bj scf=xqc pop=npa geom=c
 heck
 ----------------------------------------------------------------------

 -------------------------------------
 CID_131263702_JID_6579_Energie_kation
 -------------------------------------
 Structure from the checkpoint file:  "JID_6579.chk"
 Charge =  1 Multiplicity = 2

 SCF Done:  E(UB3LYP) =  -763.910038434     A.U. after   22 cycles
 Normal termination of Gaussian 16 at Fri Dec 11 00:15:49 2020.
 Gaussian 16:  ES64L-G16RevA.03 25-Dec-2016

 ----------------------------------------------------------------------
 # B3LYP/6-311++G(d,p) empiricaldispersion=gd3bj scf=xqc pop=npa geom=c
 heck
 ----------------------------------------------------------------------

 ------------------------------------
 CID_131263702_JID_6579_Energie_anion
 ------------------------------------
 Structure from the checkpoint file:  "JID_6579.chk"
 Charge = -1 Multiplicity = 2

                         Standard orientation:
 ---------------------------------------------------------------------
 Center     Atomic      Atomic             Coordinates (Angstroms)
 Number     Number       Type             X           Y           Z
 ---------------------------------------------------------------------
      1          6           0        1.466757    2.065626   -0.050208
      2          6           0        2.614449    1.444285    0.755848
      3          6           0        2.659236   -0.098552    0.835979
      4          6           0        1.516395   -0.703499    1.677350
      5          6           0        0.193756   -0.897068    0.914023
      6          7           0        0.039838    0.068002   -0.163999
      7          6           0        0.087477    1.473225    0.250286
      8          6           0       -1.017303   -0.264804   -1.114793
      9          6           0       -2.423098   -0.181036   -0.575599
     10          6           0       -3.333734    0.825007   -0.707500
     11          8           0       -4.461690    0.548914   -0.026343
     12          7           0       -4.317565   -0.695948    0.598442
     13          6           0       -3.117208   -1.106427    0.265593
     14          6           0        2.780423   -0.812005   -0.497720
     15          8           0        2.478894   -1.969573   -0.701863
     16          8           0        3.364516   -0.048716   -1.457307
     17          1           0        1.452795    3.147495    0.140345
     18          1           0        1.660492    1.928269   -1.119347
     19          1           0        3.563732    1.804426    0.346032
     20          1           0        2.565024    1.806828    1.791448
     21          1           0        3.597405   -0.343069    1.357907
     22          1           0        1.823844   -1.677167    2.071196
     23          1           0        1.366430   -0.049787    2.543952
     24          1           0        0.196048   -1.887956    0.451675
     25          1           0       -0.642604   -0.866309    1.636331
     26          1           0       -0.167644    1.581124    1.316247
     27          1           0       -0.675478    2.038966   -0.296682
     28          1           0       -0.920924    0.406139   -1.975622
     29          1           0       -0.819604   -1.278715   -1.481438
     30          1           0       -3.326462    1.762737   -1.245339
     31          1           0       -2.773033   -2.066676    0.629317
     32          1           0        3.427409   -0.624190   -2.242578
 ---------------------------------------------------------------------

 SCF Done:  E(UB3LYP) =  -764.194639730     A.U. after   33 cycles
 SCF Done:  E(UB3LYP) =  -764.194639729     a.u. after    1 cycles

 The electronic state is 2-A.
 Alpha  occ. eigenvalues --  -19.11427 -19.06693 -19.00993 -14.26713 -14.20979
 Alpha  occ. eigenvalues --  -10.20293 -10.13899 -10.11663 -10.11276 -10.09701
 Alpha  occ. eigenvalues --  -10.09656 -10.09173 -10.09077 -10.07585 -10.07017
 Alpha  occ. eigenvalues --  -10.06325  -1.05036  -1.00697  -0.91638  -0.83628
 Alpha  occ. eigenvalues --   -0.77777  -0.72570  -0.70527  -0.67826  -0.62935
 Alpha  occ. eigenvalues --   -0.58490  -0.56844  -0.53147  -0.51841  -0.50439
 Alpha  occ. eigenvalues --   -0.47261  -0.46185  -0.43057  -0.40884  -0.39773
 Alpha  occ. eigenvalues --   -0.38579  -0.37801  -0.37532  -0.36986  -0.34914
 Alpha  occ. eigenvalues --   -0.34139  -0.33957  -0.32633  -0.31646  -0.31105
 Alpha  occ. eigenvalues --   -0.30799  -0.29940  -0.28296  -0.26880  -0.25657
 Alpha  occ. eigenvalues --   -0.24739  -0.23849  -0.23206  -0.22747  -0.21972
 Alpha  occ. eigenvalues --   -0.21753  -0.21080  -0.17890  -0.17285  -0.12173
 Alpha  occ. eigenvalues --    0.04174
 Alpha virt. eigenvalues --    0.05973   0.06444   0.06786   0.07689   0.08392
 Alpha virt. eigenvalues --    0.09258   0.09714   0.09867   0.10586   0.10730
 Alpha virt. eigenvalues --    0.11392   0.11811   0.12472   0.12676   0.13254

  Beta  occ. eigenvalues --  -19.11350 -19.06659 -19.00977 -14.26641 -14.20976
  Beta  occ. eigenvalues --  -10.20276 -10.13799 -10.11652 -10.11260 -10.09694
  Beta  occ. eigenvalues --  -10.09648 -10.09158 -10.09084 -10.07572 -10.06995
  Beta  occ. eigenvalues --  -10.06308  -1.04904  -1.00644  -0.91595  -0.83616
  Beta  occ. eigenvalues --   -0.77672  -0.72515  -0.70444  -0.67799  -0.62879
  Beta  occ. eigenvalues --   -0.58435  -0.56801  -0.53079  -0.51799  -0.50287
  Beta  occ. eigenvalues --   -0.47204  -0.46117  -0.42985  -0.40823  -0.39742
  Beta  occ. eigenvalues --   -0.38535  -0.37529  -0.37470  -0.36938  -0.34832
  Beta  occ. eigenvalues --   -0.34093  -0.33924  -0.32590  -0.31608  -0.31061
  Beta  occ. eigenvalues --   -0.30757  -0.29881  -0.28256  -0.26852  -0.25617
  Beta  occ. eigenvalues --   -0.24720  -0.23811  -0.23166  -0.22695  -0.21874
  Beta  occ. eigenvalues --   -0.21702  -0.20800  -0.17839  -0.16935  -0.12137
  Beta virt. eigenvalues --    0.06540   0.06923   0.07369   0.07647   0.07846
  Beta virt. eigenvalues --    0.09042   0.09563   0.09986   0.10091   0.10922
  Beta virt. eigenvalues --    0.10987   0.11772   0.12073   0.12584   0.12909

 Mulliken charges and spin densities:
               1          2
     1  C    0.101026  -0.375155
     2  C    0.924033  -1.610114
     3  C   -0.014734   0.805930
     4  C    0.155477  -1.050936
     5  C   -0.575908   0.357588
     6  N    0.158071   0.028939
     7  C   -0.299694  -0.018111
     8  C    0.723225  -1.652603
     9  C   -0.458940   0.785254
    10  C    0.053945  -0.250783
    11  O    0.148828   0.021247
    12  N   -0.303326   0.042827
    13  C    0.039393   0.131845
    14  C    0.234789  -0.626900
    15  O   -0.263084   0.022230
    16  O   -0.158359   0.045059
    17  H   -0.300996   0.448896
    18  H    0.156437   0.009323
    19  H   -0.104737   0.302222
    20  H   -0.144663   0.275523
    21  H   -0.704656   0.968284
    22  H    0.077210   0.104126
    23  H   -0.046588   0.201741
    24  H    0.154395   0.028006
    25  H    0.103421   0.005265
    26  H    0.070635   0.066838
    27  H    0.060871   0.084118
    28  H   -0.371690   0.576529
    29  H    0.187418  -0.006856
    30  H   -0.536690   0.719827
    31  H    0.152516   0.051041
    32  H   -0.217623   0.508801
 Sum of Mulliken charges =  -1.00000   1.00000

 Dipole moment (field-independent basis, Debye):
    X=             -2.2776    Y=             -1.9033    Z=              1.4528  Tot=              3.3046
 Quadrupole moment (field-independent basis, Debye-Ang):
   XX=           -186.7798   YY=           -131.7329   ZZ=           -133.1136
   XY=              2.6470   XZ=             -2.0905   YZ=              2.3551

 Summary of Natural Population Analysis:

                                       Natural Population
                Natural  -----------------------------------------------
    Atom  No    Charge         Core      Valence    Rydberg      Total
 -----------------------------------------------------------------------
      C    1   -0.19306      0.99961     2.18455    0.00889     3.19306
      C    2   -0.18589      0.99961     2.17630    0.00998     3.18589
      C    3   -0.15732      0.99953     2.14434    0.01345     3.15732
      C    4   -0.19238      0.99962     2.18246    0.01030     3.19238
      C    5   -0.08318      0.99961     2.07455    0.00902     3.08318
      N    6   -0.28737      0.99971     2.77420    0.01345     3.78737
      C    7   -0.08418      0.99960     2.07374    0.01083     3.08418
      C    8   -0.08696      0.99958     2.07471    0.01268     3.08696
      C    9   -0.09678      0.99951     2.08786    0.00941     3.09678
      C   10    0.09947      0.99947     1.88573    0.01534     2.90053
      O   11   -0.15921      0.99987     3.15035    0.00899     4.15921
      N   12   -0.07301      0.99971     2.56002    0.01327     3.57301
      C   13   -0.00382      0.99960     1.99063    0.01360     3.00382
      C   14    0.41880      0.99966     1.55476    0.02678     2.58120
      O   15   -0.31734      0.99987     3.31143    0.00604     4.31734
      O   16   -0.34551      0.99988     3.33882    0.00682     4.34551
      H   17    0.09658      0.00000     0.40226    0.00116     0.40342
      H   18    0.10255      0.00000     0.39541    0.00204     0.39745
      H   19    0.10720      0.00000     0.39121    0.00159     0.39280
      H   20    0.09535      0.00000     0.40316    0.00150     0.40465
      H   21    0.12073      0.00000     0.37650    0.00277     0.37927
      H   22    0.10671      0.00000     0.39241    0.00088     0.39329
      H   23    0.09729      0.00000     0.40125    0.00145     0.40271
      H   24    0.10175      0.00000     0.39699    0.00126     0.39825
      H   25    0.08312      0.00000     0.41538    0.00150     0.41688
      H   26    0.08646      0.00000     0.41213    0.00141     0.41354
      H   27    0.09713      0.00000     0.40130    0.00157     0.40287
      H   28    0.10474      0.00000     0.39380    0.00146     0.39526
      H   29    0.10222      0.00000     0.39660    0.00118     0.39778
      H   30    0.10168      0.00000     0.39656    0.00176     0.39832
      H   31    0.10364      0.00000     0.39529    0.00107     0.39636
      H   32    0.24057      0.00000     0.25345    0.00598     0.25943
 =======================================================================
   * Total *   -0.00000     15.99443    43.78817    0.21740    60.00000

 Normal termination of Gaussian 16 at Fri Dec 11 00:34:26 2020.
