 Gaussian 16, Revision A.03,

 -----------------------------------------------------------
 # opt freq B3LYP/6-31G(d) empiricaldispersion=gd3bj scf=xqc
 -----------------------------------------------------------

 ------------------------------
 CID_152914736_JID_983_neutraal
 ------------------------------
 Symbolic Z-matrix:
 Charge =  0 Multiplicity = 1

 SCF Done:  E(RB3LYP) =  -442.654846897     A.U. after   13 cycles
 SCF Done:  E(RB3LYP) =  -442.658647961     A.U. after   11 cycles
 SCF Done:  E(RB3LYP) =  -442.658896315     A.U. after   10 cycles
 SCF Done:  E(RB3LYP) =  -442.658923645     A.U. after    9 cycles
 SCF Done:  E(RB3LYP) =  -442.658935277     A.U. after    9 cycles
 SCF Done:  E(RB3LYP) =  -442.658948964     A.U. after   10 cycles
 SCF Done:  E(RB3LYP) =  -442.658959196     A.U. after   10 cycles
 SCF Done:  E(RB3LYP) =  -442.658979122     A.U. after   10 cycles
 SCF Done:  E(RB3LYP) =  -442.659005266     A.U. after   11 cycles
 SCF Done:  E(RB3LYP) =  -442.659013954     A.U. after   10 cycles
 SCF Done:  E(RB3LYP) =  -442.659255913     A.U. after   11 cycles
 SCF Done:  E(RB3LYP) =  -442.659255663     A.U. after    9 cycles
 SCF Done:  E(RB3LYP) =  -442.659256516     A.U. after    9 cycles
 SCF Done:  E(RB3LYP) =  -442.659256501     A.U. after    7 cycles
 SCF Done:  E(RB3LYP) =  -442.659256543     A.U. after    8 cycles
 Optimization completed.
    -- Stationary point found.
 Normal termination of Gaussian 16 at Tue Dec  8 13:54:23 2020.

 --------------------------------------------------------------------
 #N Geom=AllCheck Guess=TCheck SCRF=Check GenChk RB3LYP/6-31G(d) Freq
 --------------------------------------------------------------------

 Structure from the checkpoint file:  "JID_983.chk"
 ------------------------------
 CID_152914736_JID_983_neutraal
 ------------------------------
 Charge =  0 Multiplicity = 1

 SCF Done:  E(RB3LYP) =  -442.659256543     A.U. after    1 cycles

  Exact polarizability: 104.291   5.351  88.232   5.070   0.967  69.582
 Approx polarizability: 129.131  13.206 136.896  10.331   5.712 106.528

                      1                      2                      3
                      A                      A                      A
 Frequencies --     54.3464               116.3482               169.4995
 Red. masses --      2.8723                 3.2978                 1.2926
 Frc consts  --      0.0050                 0.0263                 0.0219
 IR Inten    --      0.6236                 1.4641                 1.1878

                      4                      5                      6
                      A                      A                      A
 Frequencies --    185.7994               240.3504               275.4147
 Red. masses --      1.4002                 3.1507                 2.5303
 Frc consts  --      0.0285                 0.1072                 0.1131
 IR Inten    --      2.1889                 5.3836                 5.3780

                      7                      8                      9
                      A                      A                      A
 Frequencies --    382.5294               406.3597               427.5644
 Red. masses --      2.8780                 2.8889                 3.8486
 Frc consts  --      0.2481                 0.2811                 0.4145
 IR Inten    --      1.0723                 4.4498                 0.1816

                     10                     11                     12
                      A                      A                      A
 Frequencies --    476.7838               577.4332               609.8545
 Red. masses --      3.8876                 3.7318                 1.8647
 Frc consts  --      0.5207                 0.7331                 0.4086
 IR Inten    --      2.2169                 1.5861                 4.3533

                     13                     14                     15
                      A                      A                      A
 Frequencies --    662.9885               732.3770               751.8561
 Red. masses --      4.3291                 1.6664                 1.6341
 Frc consts  --      1.1211                 0.5266                 0.5442
 IR Inten    --      4.7755                11.9388               107.9372

                     16                     17                     18
                      A                      A                      A
 Frequencies --    763.4409               788.6722               840.4138
 Red. masses --      2.2723                 2.5951                 1.6485
 Frc consts  --      0.7803                 0.9510                 0.6860
 IR Inten    --     21.6233                28.4468                 1.4996

                     19                     20                     21
                      A                      A                      A
 Frequencies --    907.6085               955.0186               976.9752
 Red. masses --      2.4109                 2.9733                 2.7624
 Frc consts  --      1.1701                 1.5978                 1.5535
 IR Inten    --      3.2703                23.6816                25.4243

                     22                     23                     24
                      A                      A                      A
 Frequencies --    991.8736              1013.3221              1038.7876
 Red. masses --      2.6776                 1.6196                 1.9202
 Frc consts  --      1.5520                 0.9798                 1.2208
 IR Inten    --     25.2540                 2.5998                23.3884

                     25                     26                     27
                      A                      A                      A
 Frequencies --   1051.8963              1058.9773              1084.5133
 Red. masses --      2.2042                 1.9144                 1.5350
 Frc consts  --      1.4369                 1.2649                 1.0637
 IR Inten    --      7.0482                23.5030                 2.8952

                     28                     29                     30
                      A                      A                      A
 Frequencies --   1131.8448              1139.0920              1166.6213
 Red. masses --      2.4892                 2.7155                 2.3808
 Frc consts  --      1.8788                 2.0760                 1.9091
 IR Inten    --      2.3136                20.3226                 2.4716

                     31                     32                     33
                      A                      A                      A
 Frequencies --   1197.9295              1226.5296              1256.5071
 Red. masses --      1.4963                 2.7811                 1.2853
 Frc consts  --      1.2651                 2.4650                 1.1956
 IR Inten    --      7.4598                51.4249                 1.9262

                     34                     35                     36
                      A                      A                      A
 Frequencies --   1284.2653              1300.2593              1321.0477
 Red. masses --      1.4187                 1.4399                 1.3210
 Frc consts  --      1.3786                 1.4344                 1.3583
 IR Inten    --     32.1590                12.8369                 8.1195

                     37                     38                     39
                      A                      A                      A
 Frequencies --   1350.7579              1363.4758              1382.8716
 Red. masses --      1.3028                 1.3710                 1.5505
 Frc consts  --      1.4005                 1.5017                 1.7469
 IR Inten    --      2.3185                 1.9406                 7.9328

                     40                     41                     42
                      A                      A                      A
 Frequencies --   1395.3929              1408.9202              1421.4291
 Red. masses --      1.2768                 1.4715                 1.4116
 Frc consts  --      1.4647                 1.7210                 1.6805
 IR Inten    --      1.8610                 1.8945                 5.2771

                     43                     44                     45
                      A                      A                      A
 Frequencies --   1445.1470              1500.5837              1507.6846
 Red. masses --      1.3983                 1.0437                 1.1476
 Frc consts  --      1.7206                 1.3846                 1.5369
 IR Inten    --     11.4597                 7.1313                 6.2197

                     46                     47                     48
                      A                      A                      A
 Frequencies --   1515.9868              1518.2532              1533.4704
 Red. masses --      1.1100                 1.0678                 1.0786
 Frc consts  --      1.5030                 1.4503                 1.4944
 IR Inten    --      2.8711                 5.3287                 6.0490

                     49                     50                     51
                      A                      A                      A
 Frequencies --   1542.7874              1745.1187              3015.3230
 Red. masses --      1.0910                 7.3756                 1.0850
 Frc consts  --      1.5300                13.2343                 5.8122
 IR Inten    --      2.1817                51.2119                14.4957

                     52                     53                     54
                      A                      A                      A
 Frequencies --   3026.5186              3038.0822              3050.2341
 Red. masses --      1.0656                 1.0858                 1.0376
 Frc consts  --      5.7507                 5.9048                 5.6878
 IR Inten    --     75.1432                61.5011                26.2820

                     55                     56                     57
                      A                      A                      A
 Frequencies --   3053.4809              3067.1353              3068.4781
 Red. masses --      1.0628                 1.0979                 1.0618
 Frc consts  --      5.8381                 6.0853                 5.8901
 IR Inten    --     27.1168                29.2129                15.1304

                     58                     59                     60
                      A                      A                      A
 Frequencies --   3095.1349              3102.1096              3111.8605
 Red. masses --      1.1037                 1.1006                 1.1069
 Frc consts  --      6.2296                 6.2402                 6.3151
 IR Inten    --     65.7865                15.0657                37.4899

                     61                     62                     63
                      A                      A                      A
 Frequencies --   3148.1415              3248.5054              3504.2962
 Red. masses --      1.1008                 1.0951                 1.0748
 Frc consts  --      6.4280                 6.8090                 7.7762
 IR Inten    --     15.0349                 7.1959                 0.7487

 - Thermochemistry -
 -------------------
 Temperature   298.150 Kelvin.  Pressure   1.00000 Atm.
 Atom     1 has atomic number  6 and mass  12.00000

 Molecular mass:   139.09971 amu.
 Principal axes and moments of inertia in atomic units:
                           1         2         3
     Eigenvalues --   590.054241900.377012272.12467
           X            0.99997   0.00390   0.00703
           Y           -0.00384   0.99996  -0.00820
           Z           -0.00706   0.00817   0.99994
 This molecule is an asymmetric top.
 Rotational symmetry number  1.
 Warning -- assumption of classical behavior for rotation
           may cause significant error
 Rotational temperatures (Kelvin)      0.14679     0.04558     0.03812
 Rotational constants (GHZ):           3.05860     0.94968     0.79430
 Zero-point vibrational energy     536682.3 (Joules/Mol)
                                  128.27016 (Kcal/Mol)
 Warning -- explicit consideration of  12 degrees of freedom as
           vibrations may cause significant error
 Vibrational temperatures:     78.19   167.40   243.87   267.32   345.81
          (Kelvin)            396.26   550.37   584.66   615.17   685.99
                              830.80   877.44   953.89  1053.73  1081.75
                             1098.42  1134.72  1209.17  1305.85  1374.06
                             1405.65  1427.08  1457.94  1494.58  1513.44
                             1523.63  1560.37  1628.47  1638.90  1678.51
                             1723.55  1764.70  1807.83  1847.77  1870.78
                             1900.69  1943.44  1961.74  1989.64  2007.66
                             2027.12  2045.12  2079.24  2159.01  2169.22
                             2181.17  2184.43  2206.32  2219.73  2510.84
                             4338.38  4354.49  4371.12  4388.61  4393.28
                             4412.92  4414.86  4453.21  4463.24  4477.27
                             4529.47  4673.87  5041.90

 Zero-point correction=                           0.204412 (Hartree/Particle)
 Thermal correction to Energy=                    0.213514
 Thermal correction to Enthalpy=                  0.214458
 Thermal correction to Gibbs Free Energy=         0.170142
 Sum of electronic and zero-point Energies=           -442.454845
 Sum of electronic and thermal Energies=              -442.445743
 Sum of electronic and thermal Enthalpies=            -442.444799
 Sum of electronic and thermal Free Energies=         -442.489115

                     E (Thermal)             CV                S
                      KCal/Mol        Cal/Mol-Kelvin    Cal/Mol-Kelvin
 Total                  133.982             35.537             93.271
 Electronic               0.000              0.000              0.000
 Translational            0.889              2.981             40.702
 Rotational               0.889              2.981             29.323
 Vibrational            132.204             29.575             23.247
 Vibration     1          0.596              1.976              4.653
 Vibration     2          0.608              1.936              3.160
 Vibration     3          0.625              1.880              2.441
 Vibration     4          0.632              1.859              2.269
 Vibration     5          0.657              1.779              1.800
 Vibration     6          0.677              1.719              1.562
 Vibration     7          0.752              1.507              1.029
 Vibration     8          0.771              1.456              0.940
 Vibration     9          0.789              1.410              0.867
 Vibration    10          0.833              1.302              0.719
 Vibration    11          0.934              1.080              0.490
 Vibration    12          0.969              1.011              0.433

 Optimization completed.
    -- Stationary point found.
 Normal termination of Gaussian 16 at Tue Dec  8 13:58:48 2020.

 ----------------------------------------------------------------------
 # B3LYP/6-311++G(d,p) empiricaldispersion=gd3bj scf=xqc pop=npa geom=c
 heck
 ----------------------------------------------------------------------

 --------------------------------------
 CID_152914736_JID_983_Energie_neutraal
 --------------------------------------
 Structure from the checkpoint file:  "JID_983.chk"
 Charge =  0 Multiplicity = 1

 SCF Done:  E(RB3LYP) =  -442.785768839     A.U. after   14 cycles
 Normal termination of Gaussian 16 at Tue Dec  8 14:01:20 2020.

 ----------------------------------------------------------------------
 # B3LYP/6-311++G(d,p) empiricaldispersion=gd3bj scf=xqc pop=npa geom=c
 heck
 ----------------------------------------------------------------------

 ------------------------------------
 CID_152914736_JID_983_Energie_kation
 ------------------------------------
 Structure from the checkpoint file:  "JID_983.chk"
 Charge =  1 Multiplicity = 2

 SCF Done:  E(UB3LYP) =  -442.506219179     A.U. after   19 cycles
 Normal termination of Gaussian 16 at Tue Dec  8 14:05:21 2020.
 Gaussian 16:  ES64L-G16RevA.03 25-Dec-2016

 ----------------------------------------------------------------------
 # B3LYP/6-311++G(d,p) empiricaldispersion=gd3bj scf=xqc pop=npa geom=c
 heck
 ----------------------------------------------------------------------

 -----------------------------------
 CID_152914736_JID_983_Energie_anion
 -----------------------------------
 Structure from the checkpoint file:  "JID_983.chk"
 Charge = -1 Multiplicity = 2

                         Standard orientation:
 ---------------------------------------------------------------------
 Center     Atomic      Atomic             Coordinates (Angstroms)
 Number     Number       Type             X           Y           Z
 ---------------------------------------------------------------------
      1          6           0       -3.374672   -0.069980   -0.412171
      2          6           0       -1.954954    0.094720    0.006750
      3          6           0       -1.261358    1.181401    0.362786
      4          6           0        0.176918    0.802945    0.620366
      5          6           0        1.167489    1.336091   -0.428729
      6          6           0        2.550763    0.671203   -0.284827
      7          7           0        2.491652   -0.780707   -0.005874
      8          6           0        1.186212   -1.373038   -0.295590
      9          6           0        0.083074   -0.752479    0.564967
     10          8           0       -1.226581   -1.073136    0.025406
     11          1           0       -3.890091    0.893588   -0.420647
     12          1           0       -3.902691   -0.749206    0.267783
     13          1           0       -3.430231   -0.509354   -1.415463
     14          1           0       -1.650436    2.190892    0.388629
     15          1           0        0.519940    1.119566    1.614995
     16          1           0        1.264712    2.425274   -0.348990
     17          1           0        0.758510    1.136113   -1.426032
     18          1           0        3.113252    1.151718    0.524690
     19          1           0        3.125771    0.838185   -1.206056
     20          1           0        2.714316   -0.948074    0.972048
     21          1           0        0.947349   -1.216147   -1.353262
     22          1           0        1.240157   -2.455423   -0.140361
     23          1           0        0.119687   -1.172268    1.579226
 ---------------------------------------------------------------------

 SCF Done:  E(UB3LYP) =  -442.769380265     A.U. after   33 cycles
 SCF Done:  E(UB3LYP) =  -442.769380265     a.u. after    1 cycles

 The electronic state is 2-A.
 Alpha  occ. eigenvalues --  -19.03324 -14.19064 -10.11703 -10.11220 -10.08615
 Alpha  occ. eigenvalues --  -10.08400 -10.06963 -10.06895 -10.05774 -10.04462
 Alpha  occ. eigenvalues --   -0.95434  -0.80326  -0.69369  -0.67339  -0.63676
 Alpha  occ. eigenvalues --   -0.59584  -0.52920  -0.51414  -0.45251  -0.43363
 Alpha  occ. eigenvalues --   -0.41228  -0.37718  -0.37279  -0.34451  -0.32547
 Alpha  occ. eigenvalues --   -0.32294  -0.30194  -0.29077  -0.28609  -0.27880
 Alpha  occ. eigenvalues --   -0.26994  -0.25443  -0.23853  -0.23010  -0.21858
 Alpha  occ. eigenvalues --   -0.20902  -0.12491  -0.10067   0.04799
 Alpha virt. eigenvalues --    0.06717   0.07995   0.08520   0.09399   0.10067
 Alpha virt. eigenvalues --    0.10278   0.11108   0.11364   0.12362   0.12846
 Alpha virt. eigenvalues --    0.12990   0.13904   0.14614   0.16108   0.16568

  Beta  occ. eigenvalues --  -19.03318 -14.19044 -10.11703 -10.11203 -10.08604
  Beta  occ. eigenvalues --  -10.08376 -10.06946 -10.06865 -10.05756 -10.04446
  Beta  occ. eigenvalues --   -0.95420  -0.80284  -0.69334  -0.67305  -0.63635
  Beta  occ. eigenvalues --   -0.59538  -0.52863  -0.51361  -0.45200  -0.43314
  Beta  occ. eigenvalues --   -0.41162  -0.37669  -0.37225  -0.34420  -0.32508
  Beta  occ. eigenvalues --   -0.32261  -0.30159  -0.29038  -0.28567  -0.27838
  Beta  occ. eigenvalues --   -0.26946  -0.25417  -0.23818  -0.22983  -0.21807
  Beta  occ. eigenvalues --   -0.20867  -0.12467  -0.10044
  Beta virt. eigenvalues --    0.07192   0.07893   0.08705   0.09066   0.09967
  Beta virt. eigenvalues --    0.10587   0.10844   0.11600   0.11791   0.12871
  Beta virt. eigenvalues --    0.13276   0.13441   0.14011   0.14894   0.16504

 Mulliken charges and spin densities:
               1          2
     1  C    2.920091  -3.578395
     2  C    0.023738  -0.135406
     3  C   -3.203001   3.377978
     4  C    2.595236  -2.531761
     5  C    0.022845  -0.308891
     6  C    1.189482  -1.783782
     7  N   -0.278114   0.194459
     8  C    0.226608  -0.749804
     9  C   -1.288085   1.039116
    10  O   -0.082480   0.046070
    11  H   -0.437104   0.599700
    12  H   -0.101617   0.252177
    13  H   -0.113658   0.261097
    14  H   -1.074153   1.251935
    15  H   -0.325803   0.533121
    16  H   -0.141787   0.299677
    17  H    0.068593   0.074893
    18  H   -0.602328   0.770846
    19  H    0.117678   0.040354
    20  H   -0.132030   0.366982
    21  H    0.052328   0.128446
    22  H    0.015022   0.184800
    23  H   -0.451462   0.666389
 Sum of Mulliken charges =  -1.00000   1.00000

 Dipole moment (field-independent basis, Debye):
    X=             -0.0211    Y=             -2.4979    Z=             -3.3704  Tot=              4.1952
 Quadrupole moment (field-independent basis, Debye-Ang):
   XX=           -123.3123   YY=           -102.4020   ZZ=            -93.2662
   XY=              4.2076   XZ=             -6.8615   YZ=             -1.9855

 Summary of Natural Population Analysis:

                                       Natural Population
                Natural  -----------------------------------------------
    Atom  No    Charge         Core      Valence    Rydberg      Total
 -----------------------------------------------------------------------
      C    1   -0.30464      0.99962     2.29907    0.00595     3.30464
      C    2    0.16767      0.99941     1.81875    0.01418     2.83233
      C    3   -0.15067      0.99944     2.14058    0.01065     3.15067
      C    4   -0.12941      0.99958     2.11724    0.01259     3.12941
      C    5   -0.19894      0.99961     2.19017    0.00917     3.19894
      C    6   -0.08518      0.99962     2.07384    0.01171     3.08518
      N    7   -0.34083      0.99976     2.82834    0.01274     3.84083
      C    8   -0.09732      0.99960     2.08482    0.01291     3.09732
      C    9    0.06651      0.99953     1.91956    0.01440     2.93349
      O   10   -0.29388      0.99987     3.28364    0.01037     4.29388
      H   11    0.10818      0.00000     0.39059    0.00123     0.39182
      H   12    0.10580      0.00000     0.39287    0.00133     0.39420
      H   13    0.10539      0.00000     0.39328    0.00132     0.39461
      H   14    0.10765      0.00000     0.39093    0.00142     0.39235
      H   15    0.10636      0.00000     0.39002    0.00362     0.39364
      H   16    0.10600      0.00000     0.39246    0.00154     0.39400
      H   17    0.09387      0.00000     0.40433    0.00180     0.40613
      H   18    0.09491      0.00000     0.40301    0.00208     0.40509
      H   19    0.08510      0.00000     0.41359    0.00131     0.41490
      H   20    0.17490      0.00000     0.32103    0.00407     0.32510
      H   21    0.09274      0.00000     0.40579    0.00147     0.40726
      H   22    0.09799      0.00000     0.40090    0.00111     0.40201
      H   23    0.08779      0.00000     0.40989    0.00232     0.41221
 =======================================================================
   * Total *   -0.00000      9.99604    27.86469    0.13927    38.00000

 Normal termination of Gaussian 16 at Tue Dec  8 14:11:51 2020.
