 Gaussian 16, Revision A.03,

 -----------------------------------------------------------
 # opt freq B3LYP/6-31G(d) empiricaldispersion=gd3bj scf=xqc
 -----------------------------------------------------------

 -----------------------------
 CID_83694374_JID_400_neutraal
 -----------------------------
 Symbolic Z-matrix:
 Charge =  0 Multiplicity = 1

 SCF Done:  E(RB3LYP) =  -475.979667464     A.U. after   14 cycles
 SCF Done:  E(RB3LYP) =  -475.984610933     A.U. after   12 cycles
 SCF Done:  E(RB3LYP) =  -475.984938824     A.U. after   11 cycles
 SCF Done:  E(RB3LYP) =  -475.985440728     A.U. after   11 cycles
 SCF Done:  E(RB3LYP) =  -475.985560920     A.U. after   10 cycles
 SCF Done:  E(RB3LYP) =  -475.985607754     A.U. after   10 cycles
 SCF Done:  E(RB3LYP) =  -475.985649882     A.U. after    9 cycles
 SCF Done:  E(RB3LYP) =  -475.985745126     A.U. after   11 cycles
 SCF Done:  E(RB3LYP) =  -475.985776769     A.U. after   10 cycles
 SCF Done:  E(RB3LYP) =  -475.985800755     A.U. after   10 cycles
 SCF Done:  E(RB3LYP) =  -475.985827059     A.U. after    8 cycles
 SCF Done:  E(RB3LYP) =  -475.985829172     A.U. after    8 cycles
 SCF Done:  E(RB3LYP) =  -475.985830173     A.U. after    8 cycles
 SCF Done:  E(RB3LYP) =  -475.985830478     A.U. after    8 cycles
 SCF Done:  E(RB3LYP) =  -475.985830619     A.U. after    7 cycles
 SCF Done:  E(RB3LYP) =  -475.985830683     A.U. after    7 cycles
 Optimization completed.
    -- Stationary point found.
 Normal termination of Gaussian 16 at Tue Dec  8 10:34:44 2020.

 --------------------------------------------------------------------
 #N Geom=AllCheck Guess=TCheck SCRF=Check GenChk RB3LYP/6-31G(d) Freq
 --------------------------------------------------------------------

 Structure from the checkpoint file:  "JID_400.chk"
 -----------------------------
 CID_83694374_JID_400_neutraal
 -----------------------------
 Charge =  0 Multiplicity = 1

 SCF Done:  E(RB3LYP) =  -475.985830683     A.U. after    1 cycles

  Exact polarizability:  88.891  -1.230  83.987   4.748   1.934  75.111
 Approx polarizability: 123.117   3.002 119.447  11.824   6.553 106.713

                      1                      2                      3
                      A                      A                      A
 Frequencies --     72.9781                82.6438                92.9184
 Red. masses --      2.9594                 2.2207                 4.3194
 Frc consts  --      0.0093                 0.0089                 0.0220
 IR Inten    --      0.9664                 1.5804                 0.9718

                      4                      5                      6
                      A                      A                      A
 Frequencies --    136.8507               192.2674               223.6227
 Red. masses --      1.4564                 2.2060                 3.3099
 Frc consts  --      0.0161                 0.0480                 0.0975
 IR Inten    --      0.8790                 1.7971                10.6012

                      7                      8                      9
                      A                      A                      A
 Frequencies --    239.2696               287.4041               339.5063
 Red. masses --      1.1754                 2.2263                 2.6308
 Frc consts  --      0.0396                 0.1083                 0.1787
 IR Inten    --      0.1649                 0.4556                 2.8078

                     10                     11                     12
                      A                      A                      A
 Frequencies --    372.5308               410.1487               487.9497
 Red. masses --      3.3850                 2.6704                 2.9199
 Frc consts  --      0.2768                 0.2647                 0.4096
 IR Inten    --     15.9232                 0.7634                37.2680

                     13                     14                     15
                      A                      A                      A
 Frequencies --    511.7372               563.8529               637.0357
 Red. masses --      1.3094                 5.5458                 3.1552
 Frc consts  --      0.2020                 1.0388                 0.7544
 IR Inten    --     75.7906                 4.9740                25.4685

                     16                     17                     18
                      A                      A                      A
 Frequencies --    722.9120               751.1361               759.7784
 Red. masses --      4.3830                 8.6018                 1.9022
 Frc consts  --      1.3496                 2.8594                 0.6470
 IR Inten    --      3.0763                54.9393                76.7622

                     19                     20                     21
                      A                      A                      A
 Frequencies --    815.0660               892.5192               922.0292
 Red. masses --      2.0682                 3.2661                 2.2486
 Frc consts  --      0.8095                 1.5329                 1.1263
 IR Inten    --     11.5114                 5.9546                 3.8001

                     22                     23                     24
                      A                      A                      A
 Frequencies --    954.4934              1002.5834              1057.8624
 Red. masses --      1.8056                 1.9201                 2.1143
 Frc consts  --      0.9692                 1.1372                 1.3941
 IR Inten    --      5.0095                 4.9527                 6.7277

                     25                     26                     27
                      A                      A                      A
 Frequencies --   1105.2566              1130.6962              1166.1227
 Red. masses --      1.6852                 1.8495                 1.3259
 Frc consts  --      1.2129                 1.3932                 1.0623
 IR Inten    --     43.7240                14.6492                 5.9781

                     28                     29                     30
                      A                      A                      A
 Frequencies --   1171.3313              1188.1994              1192.6404
 Red. masses --      1.3604                 1.4757                 2.5216
 Frc consts  --      1.0997                 1.2276                 2.1132
 IR Inten    --     13.9185                 2.9478                15.8134

                     31                     32                     33
                      A                      A                      A
 Frequencies --   1228.3429              1266.4739              1294.9156
 Red. masses --      1.5855                 2.5869                 2.3894
 Frc consts  --      1.4094                 2.4446                 2.3606
 IR Inten    --     21.8516                 4.8430                23.5163

                     34                     35                     36
                      A                      A                      A
 Frequencies --   1313.5323              1326.9066              1371.1283
 Red. masses --      1.5458                 1.4392                 1.6597
 Frc consts  --      1.5714                 1.4930                 1.8384
 IR Inten    --    115.4030                60.4708                21.9705

                     37                     38                     39
                      A                      A                      A
 Frequencies --   1406.3502              1421.9454              1453.9094
 Red. masses --      1.5397                 1.2943                 1.2534
 Frc consts  --      1.7942                 1.5419                 1.5611
 IR Inten    --     12.0682                17.0534                26.0627

                     40                     41                     42
                      A                      A                      A
 Frequencies --   1471.8962              1484.5514              1491.3695
 Red. masses --      1.5945                 1.1983                 1.5212
 Frc consts  --      2.0353                 1.5560                 1.9934
 IR Inten    --     16.4857                20.6528                94.6905

                     43                     44                     45
                      A                      A                      A
 Frequencies --   1521.5708              1526.3159              1529.4023
 Red. masses --      1.1814                 1.0591                 1.0647
 Frc consts  --      1.6116                 1.4537                 1.4674
 IR Inten    --      0.8499                14.9831                 5.2941

                     46                     47                     48
                      A                      A                      A
 Frequencies --   1532.3946              1546.2606              1555.8130
 Red. masses --      1.0874                 1.1179                 1.0805
 Frc consts  --      1.5044                 1.5748                 1.5409
 IR Inten    --     16.7988                15.4490                11.7683

                     49                     50                     51
                      A                      A                      A
 Frequencies --   1572.7501              1786.0901              2971.6953
 Red. masses --      1.4083                 7.6493                 1.0722
 Frc consts  --      2.0524                14.3774                 5.5790
 IR Inten    --     91.7970               417.3328                37.7262

                     52                     53                     54
                      A                      A                      A
 Frequencies --   2986.9559              2998.4419              3016.1979
 Red. masses --      1.0730                 1.0562                 1.0469
 Frc consts  --      5.6405                 5.5948                 5.6112
 IR Inten    --     98.0215                59.5788                75.5870

                     55                     56                     57
                      A                      A                      A
 Frequencies --   3043.5584              3064.9741              3068.0660
 Red. masses --      1.0900                 1.0859                 1.0978
 Frc consts  --      5.9489                 6.0100                 6.0883
 IR Inten    --     43.6792                48.0753                38.3323

                     58                     59                     60
                      A                      A                      A
 Frequencies --   3095.0652              3111.2423              3160.2655
 Red. masses --      1.0831                 1.0912                 1.0983
 Frc consts  --      6.1130                 6.2233                 6.4627
 IR Inten    --     47.7578                24.3104                11.6830

                     61                     62                     63
                      A                      A                      A
 Frequencies --   3192.3236              3495.2595              3624.5949
 Red. masses --      1.0949                 1.0742                 1.0764
 Frc consts  --      6.5742                 7.7322                 8.3321
 IR Inten    --      1.0486                 1.0256                31.7304

 - Thermochemistry -
 -------------------
 Temperature   298.150 Kelvin.  Pressure   1.00000 Atm.
 Atom     1 has atomic number  6 and mass  12.00000

 Molecular mass:   143.10586 amu.
 Principal axes and moments of inertia in atomic units:
                           1         2         3
     Eigenvalues --   946.638441572.654001803.79695
           X            0.99876  -0.04738  -0.01557
           Y            0.04681   0.99830  -0.03484
           Z            0.01719   0.03407   0.99927
 This molecule is an asymmetric top.
 Rotational symmetry number  1.
 Warning -- assumption of classical behavior for rotation
           may cause significant error
 Rotational temperatures (Kelvin)      0.09150     0.05508     0.04802
 Rotational constants (GHZ):           1.90647     1.14758     1.00052
 Zero-point vibrational energy     534813.9 (Joules/Mol)
                                  127.82359 (Kcal/Mol)
 Warning -- explicit consideration of  14 degrees of freedom as
           vibrations may cause significant error
 Vibrational temperatures:    105.00   118.91   133.69   196.90   276.63
          (Kelvin)            321.74   344.26   413.51   488.47   535.99
                              590.11   702.05   736.28   811.26   916.55
                             1040.11  1080.72  1093.15  1172.70  1284.14
                             1326.59  1373.30  1442.49  1522.03  1590.22
                             1626.82  1677.79  1685.28  1709.55  1715.94
                             1767.31  1822.17  1863.09  1889.88  1909.12
                             1972.75  2023.42  2045.86  2091.85  2117.73
                             2135.94  2145.75  2189.20  2196.03  2200.47
                             2204.77  2224.72  2238.47  2262.84  2569.79
                             4275.61  4297.56  4314.09  4339.64  4379.00
                             4409.81  4414.26  4453.11  4476.38  4546.92
                             4593.04  5028.90  5214.98

 Zero-point correction=                           0.203700 (Hartree/Particle)
 Thermal correction to Energy=                    0.214150
 Thermal correction to Enthalpy=                  0.215094
 Thermal correction to Gibbs Free Energy=         0.167812
 Sum of electronic and zero-point Energies=           -475.782131
 Sum of electronic and thermal Energies=              -475.771680
 Sum of electronic and thermal Enthalpies=            -475.770736
 Sum of electronic and thermal Free Energies=         -475.818019

                     E (Thermal)             CV                S
                      KCal/Mol        Cal/Mol-Kelvin    Cal/Mol-Kelvin
 Total                  134.381             38.315             99.514
 Electronic               0.000              0.000              0.000
 Translational            0.889              2.981             40.786
 Rotational               0.889              2.981             29.375
 Vibrational            132.604             32.353             29.353
 Vibration     1          0.599              1.967              4.071
 Vibration     2          0.600              1.961              3.827
 Vibration     3          0.602              1.954              3.598
 Vibration     4          0.614              1.917              2.847
 Vibration     5          0.634              1.851              2.206
 Vibration     6          0.649              1.805              1.930
 Vibration     7          0.657              1.780              1.808
 Vibration     8          0.685              1.697              1.489
 Vibration     9          0.719              1.597              1.214
 Vibration    10          0.744              1.529              1.069
 Vibration    11          0.774              1.448              0.926
 Vibration    12          0.844              1.277              0.689
 Vibration    13          0.867              1.224              0.629
 Vibration    14          0.920              1.109              0.516

                           ! Non-Optimized Parameters !
 Normal termination of Gaussian 16 at Tue Dec  8 10:39:53 2020.

 ----------------------------------------------------------------------
 # B3LYP/6-311++G(d,p) empiricaldispersion=gd3bj scf=xqc pop=npa geom=c
 heck
 ----------------------------------------------------------------------

 -------------------------------------
 CID_83694374_JID_400_Energie_neutraal
 -------------------------------------
 Structure from the checkpoint file:  "JID_400.chk"
 Charge =  0 Multiplicity = 1

 SCF Done:  E(RB3LYP) =  -476.130618101     A.U. after   14 cycles
 Normal termination of Gaussian 16 at Tue Dec  8 10:44:00 2020.

 ----------------------------------------------------------------------
 # B3LYP/6-311++G(d,p) empiricaldispersion=gd3bj scf=xqc pop=npa geom=c
 heck
 ----------------------------------------------------------------------

 -----------------------------------
 CID_83694374_JID_400_Energie_kation
 -----------------------------------
 Structure from the checkpoint file:  "JID_400.chk"
 Charge =  1 Multiplicity = 2

 SCF Done:  E(UB3LYP) =  -475.834541397     A.U. after   23 cycles
 Normal termination of Gaussian 16 at Tue Dec  8 10:50:19 2020.
 Gaussian 16:  ES64L-G16RevA.03 25-Dec-2016

 ----------------------------------------------------------------------
 # B3LYP/6-311++G(d,p) empiricaldispersion=gd3bj scf=xqc pop=npa geom=c
 heck
 ----------------------------------------------------------------------

 ----------------------------------
 CID_83694374_JID_400_Energie_anion
 ----------------------------------
 Structure from the checkpoint file:  "JID_400.chk"
 Charge = -1 Multiplicity = 2

                         Standard orientation:
 ---------------------------------------------------------------------
 Center     Atomic      Atomic             Coordinates (Angstroms)
 Number     Number       Type             X           Y           Z
 ---------------------------------------------------------------------
      1          6           0       -1.606033   -0.479961    1.653078
      2          7           0       -2.250189   -0.415835    0.338291
      3          6           0       -1.405916   -0.151831   -0.830009
      4          6           0       -0.977868    1.314858   -0.920665
      5          7           0        0.128959    1.575080   -0.013707
      6          6           0        1.190128    0.711630    0.184427
      7          8           0        2.224685    1.092829    0.726983
      8          7           0        0.977209   -0.599798   -0.196815
      9          6           0       -0.157437   -1.039221   -0.996850
     10          6           0        2.074172   -1.539936   -0.072210
     11          1           0       -1.163919    0.488327    1.892822
     12          1           0       -0.815694   -1.242561    1.742772
     13          1           0       -2.378166   -0.696407    2.398684
     14          1           0       -2.738082   -1.293759    0.175024
     15          1           0       -2.047174   -0.345542   -1.697829
     16          1           0       -0.706389    1.543429   -1.964545
     17          1           0       -1.823739    1.949291   -0.642619
     18          1           0        0.393483    2.535658    0.155278
     19          1           0       -0.404945   -2.067705   -0.700866
     20          1           0        0.124668   -1.079298   -2.063105
     21          1           0        2.852711   -1.079317    0.533735
     22          1           0        1.725828   -2.462051    0.410402
     23          1           0        2.489794   -1.802059   -1.056623
 ---------------------------------------------------------------------

 SCF Done:  E(UB3LYP) =  -476.120781896     A.U. after   28 cycles

 The electronic state is 2-A.
 Alpha  occ. eigenvalues --  -18.96714 -14.22667 -14.21879 -14.18628 -10.18067
 Alpha  occ. eigenvalues --  -10.09616 -10.09566 -10.09327 -10.08846 -10.07163
 Alpha  occ. eigenvalues --   -0.93666  -0.83882  -0.80286  -0.78616  -0.65749
 Alpha  occ. eigenvalues --   -0.61007  -0.57477  -0.56180  -0.49876  -0.43312
 Alpha  occ. eigenvalues --   -0.41798  -0.40455  -0.37089  -0.36452  -0.34602
 Alpha  occ. eigenvalues --   -0.33690  -0.32905  -0.31040  -0.30282  -0.28966
 Alpha  occ. eigenvalues --   -0.28549  -0.28076  -0.25267  -0.24264  -0.23938
 Alpha  occ. eigenvalues --   -0.16026  -0.14431  -0.13753  -0.10887   0.04559
 Alpha virt. eigenvalues --    0.07628   0.08085   0.08353   0.10043   0.10718
 Alpha virt. eigenvalues --    0.10843   0.11393   0.11690   0.13211   0.14176
 Alpha virt. eigenvalues --    0.14373   0.14697   0.15636   0.15920   0.17414

  Beta  occ. eigenvalues --  -18.96705 -14.22670 -14.21875 -14.18600 -10.18061
  Beta  occ. eigenvalues --  -10.09584 -10.09544 -10.09278 -10.08824 -10.07142
  Beta  occ. eigenvalues --   -0.93651  -0.83859  -0.80268  -0.78567  -0.65688
  Beta  occ. eigenvalues --   -0.60962  -0.57409  -0.56120  -0.49820  -0.43265
  Beta  occ. eigenvalues --   -0.41713  -0.40399  -0.37042  -0.36385  -0.34551
  Beta  occ. eigenvalues --   -0.33644  -0.32870  -0.31004  -0.30251  -0.28928
  Beta  occ. eigenvalues --   -0.28515  -0.28040  -0.25219  -0.24194  -0.23881
  Beta  occ. eigenvalues --   -0.16012  -0.14399  -0.13731  -0.10857
  Beta virt. eigenvalues --    0.07278   0.08288   0.08787   0.09251   0.10771
  Beta virt. eigenvalues --    0.11215   0.11505   0.11885   0.12222   0.13657
  Beta virt. eigenvalues --    0.14511   0.14749   0.15021   0.15811   0.16102

 Mulliken charges and spin densities:
               1          2
     1  C    0.375027  -0.817129
     2  N   -0.059418  -0.097221
     3  C   -1.233612   1.472096
     4  C    1.398300  -2.000446
     5  N   -0.420963   0.101222
     6  C   -0.003815   0.264012
     7  O   -0.423035   0.003011
     8  N   -0.269517   0.163153
     9  C    1.781263  -2.396833
    10  C    0.459061  -0.737562
    11  H    0.101963   0.071870
    12  H   -0.064491   0.192754
    13  H   -0.138923   0.277052
    14  H   -0.158303   0.406142
    15  H   -1.132685   1.381857
    16  H   -0.357486   0.529529
    17  H   -0.126756   0.302276
    18  H    0.179173   0.137959
    19  H   -0.558659   0.749754
    20  H   -0.270643   0.463083
    21  H    0.129924   0.042893
    22  H   -0.058077   0.199781
    23  H   -0.148327   0.290746
 Sum of Mulliken charges =  -1.00000   1.00000

 Dipole moment (field-independent basis, Debye):
    X=              2.9028    Y=              2.3428    Z=              3.5896  Tot=              5.1769
 Quadrupole moment (field-independent basis, Debye-Ang):
   XX=           -110.1213   YY=            -96.3702   ZZ=           -101.7749
   XY=             -8.0156   XZ=             -7.3217   YZ=             -3.7504

 Summary of Natural Population Analysis:

                                       Natural Population
                Natural  -----------------------------------------------
    Atom  No    Charge         Core      Valence    Rydberg      Total
 -----------------------------------------------------------------------
      C    1   -0.18370      0.99964     2.17537    0.00869     3.18370
      N    2   -0.34062      0.99974     2.82744    0.01345     3.84062
      C    3   -0.01959      0.99958     2.00290    0.01711     3.01959
      C    4   -0.08798      0.99959     2.07637    0.01201     3.08798
      N    5   -0.33418      0.99968     2.82486    0.00964     3.83418
      C    6    0.41192      0.99965     1.56561    0.02282     2.58808
      O    7   -0.35151      0.99988     3.34680    0.00484     4.35151
      N    8   -0.26880      0.99965     2.75911    0.01003     3.76880
      C    9   -0.09010      0.99959     2.07794    0.01257     3.09010
      C   10   -0.17622      0.99964     2.16869    0.00789     3.17622
      H   11    0.09689      0.00000     0.40174    0.00137     0.40311
      H   12    0.08183      0.00000     0.41657    0.00161     0.41817
      H   13    0.09110      0.00000     0.40796    0.00093     0.40890
      H   14    0.17731      0.00000     0.31757    0.00512     0.32269
      H   15    0.11038      0.00000     0.38364    0.00598     0.38962
      H   16    0.09204      0.00000     0.40579    0.00217     0.40796
      H   17    0.10252      0.00000     0.39591    0.00157     0.39748
      H   18    0.19321      0.00000     0.30479    0.00200     0.30679
      H   19    0.10168      0.00000     0.39500    0.00333     0.39832
      H   20    0.09884      0.00000     0.39759    0.00357     0.40116
      H   21    0.11372      0.00000     0.38533    0.00096     0.38628
      H   22    0.09172      0.00000     0.40722    0.00106     0.40828
      H   23    0.08954      0.00000     0.40936    0.00110     0.41046
 =======================================================================
   * Total *   -0.00000      9.99665    28.85355    0.14980    39.00000

 Normal termination of Gaussian 16 at Tue Dec  8 10:55:37 2020.
