 Gaussian 16, Revision A.03,

 -----------------------------------------------------------
 # opt freq B3LYP/6-31G(d) empiricaldispersion=gd3bj scf=xqc
 -----------------------------------------------------------

 -------------------------------
 CID_103994934_JID_7506_neutraal
 -------------------------------
 Symbolic Z-matrix:
 Charge =  0 Multiplicity = 1

 SCF Done:  E(RB3LYP) =  -781.024089288     A.U. after   15 cycles
 SCF Done:  E(RB3LYP) =  -781.031559131     A.U. after   13 cycles
 SCF Done:  E(RB3LYP) =  -781.032792751     A.U. after   12 cycles
 SCF Done:  E(RB3LYP) =  -781.032977779     A.U. after   12 cycles
 SCF Done:  E(RB3LYP) =  -781.033148921     A.U. after   11 cycles
 SCF Done:  E(RB3LYP) =  -781.033218867     A.U. after   11 cycles
 SCF Done:  E(RB3LYP) =  -781.033255694     A.U. after   11 cycles
 SCF Done:  E(RB3LYP) =  -781.033265991     A.U. after   10 cycles
 SCF Done:  E(RB3LYP) =  -781.033270182     A.U. after    9 cycles
 SCF Done:  E(RB3LYP) =  -781.033270769     A.U. after    8 cycles
 SCF Done:  E(RB3LYP) =  -781.033308252     A.U. after    9 cycles
 SCF Done:  E(RB3LYP) =  -781.033308484     A.U. after    9 cycles
 SCF Done:  E(RB3LYP) =  -781.033308514     A.U. after    6 cycles
 SCF Done:  E(RB3LYP) =  -781.033308523     A.U. after    6 cycles
 SCF Done:  E(RB3LYP) =  -781.033308526     A.U. after    6 cycles
 Optimization completed.
    -- Stationary point found.
 Normal termination of Gaussian 16 at Fri Dec 11 12:39:23 2020.

 --------------------------------------------------------------------
 #N Geom=AllCheck Guess=TCheck SCRF=Check GenChk RB3LYP/6-31G(d) Freq
 --------------------------------------------------------------------

 Structure from the checkpoint file:  "JID_7506.chk"
 -------------------------------
 CID_103994934_JID_7506_neutraal
 -------------------------------
 Charge =  0 Multiplicity = 1

 SCF Done:  E(RB3LYP) =  -781.033308526     A.U. after    1 cycles

  Exact polarizability: 217.056  -4.364 165.412   6.705   7.064  83.106
 Approx polarizability: 281.483  -5.059 306.808  14.439  14.781 124.331

                      1                      2                      3
                      A                      A                      A
 Frequencies --     29.8322                33.3943                37.5457
 Red. masses --      3.5304                 1.2576                 2.4711
 Frc consts  --      0.0019                 0.0008                 0.0021
 IR Inten    --      1.0445                 0.2186                 0.5284

                      4                      5                      6
                      A                      A                      A
 Frequencies --     61.6610                81.6638               106.4272
 Red. masses --      4.3637                 4.3936                 3.6654
 Frc consts  --      0.0098                 0.0173                 0.0245
 IR Inten    --      0.6317                 2.2246                 0.7146

                      7                      8                      9
                      A                      A                      A
 Frequencies --    147.0428               168.2777               201.5433
 Red. masses --      2.4439                 3.3129                 2.2312
 Frc consts  --      0.0311                 0.0553                 0.0534
 IR Inten    --      3.4087                 2.1176                 0.2036

                     10                     11                     12
                      A                      A                      A
 Frequencies --    211.4851               227.4182               254.1097
 Red. masses --      2.3940                 3.4204                 3.6017
 Frc consts  --      0.0631                 0.1042                 0.1370
 IR Inten    --      1.9999                 3.0150                 8.8699

                     13                     14                     15
                      A                      A                      A
 Frequencies --    276.8257               293.8725               325.6247
 Red. masses --      3.4080                 4.5943                 5.6987
 Frc consts  --      0.1539                 0.2338                 0.3560
 IR Inten    --      9.8524                19.6252                 2.3482

                     16                     17                     18
                      A                      A                      A
 Frequencies --    352.2623               373.6917               404.4110
 Red. masses --      3.2265                 2.4046                 1.3267
 Frc consts  --      0.2359                 0.1978                 0.1278
 IR Inten    --      5.6593                 7.3043                12.2930

                     19                     20                     21
                      A                      A                      A
 Frequencies --    411.7617               449.3369               466.4209
 Red. masses --      3.1273                 3.0578                 3.8113
 Frc consts  --      0.3124                 0.3638                 0.4885
 IR Inten    --      0.5553                 3.0203                15.8945

                     22                     23                     24
                      A                      A                      A
 Frequencies --    525.2656               532.1597               570.2984
 Red. masses --      4.3245                 5.0121                 3.9711
 Frc consts  --      0.7030                 0.8363                 0.7610
 IR Inten    --     13.2115                 1.8374                 0.9545

                     25                     26                     27
                      A                      A                      A
 Frequencies --    616.4824               651.5182               674.0660
 Red. masses --      4.0455                 4.2319                 1.7183
 Frc consts  --      0.9059                 1.0584                 0.4600
 IR Inten    --     28.7802                92.0497               272.0298

                     28                     29                     30
                      A                      A                      A
 Frequencies --    698.3356               709.0695               721.8963
 Red. masses --      4.5281                 3.0361                 7.2932
 Frc consts  --      1.3010                 0.8994                 2.2393
 IR Inten    --     13.1149                14.4424                 3.3540

                     31                     32                     33
                      A                      A                      A
 Frequencies --    779.7845               794.5297               807.2854
 Red. masses --      6.0676                 1.5568                 4.7363
 Frc consts  --      2.1738                 0.5790                 1.8186
 IR Inten    --     47.5717                27.9174                 5.7649

                     34                     35                     36
                      A                      A                      A
 Frequencies --    878.4923               894.7612               913.4765
 Red. masses --      1.5815                 1.4352                 1.3858
 Frc consts  --      0.7191                 0.6770                 0.6813
 IR Inten    --     66.3965                35.7888                13.5733

                     37                     38                     39
                      A                      A                      A
 Frequencies --    917.6678               943.2756               968.9239
 Red. masses --      3.3331                 3.6791                 1.2620
 Frc consts  --      1.6538                 1.9287                 0.6980
 IR Inten    --      9.0756                23.9001                 1.5039

                     40                     41                     42
                      A                      A                      A
 Frequencies --   1010.3089              1018.5356              1019.6689
 Red. masses --      1.8264                 1.7769                 5.4184
 Frc consts  --      1.0984                 1.0861                 3.3192
 IR Inten    --     10.7066                 7.9952                 2.9141

                     43                     44                     45
                      A                      A                      A
 Frequencies --   1047.3831              1075.9219              1131.2407
 Red. masses --      2.0652                 1.5224                 2.3223
 Frc consts  --      1.3348                 1.0384                 1.7510
 IR Inten    --      3.7821                 8.5636                79.3463

                     46                     47                     48
                      A                      A                      A
 Frequencies --   1132.5341              1150.5052              1189.9811
 Red. masses --      2.1321                 2.4763                 1.3342
 Frc consts  --      1.6112                 1.9312                 1.1132
 IR Inten    --     69.4404                39.5325                 6.1472

                     49                     50                     51
                      A                      A                      A
 Frequencies --   1201.8818              1207.0951              1222.9097
 Red. masses --      2.1036                 1.1936                 2.1082
 Frc consts  --      1.7904                 1.0247                 1.8576
 IR Inten    --     17.9430                 3.9261                58.7872

                     52                     53                     54
                      A                      A                      A
 Frequencies --   1233.1091              1267.7973              1273.3466
 Red. masses --      2.5113                 2.4867                 2.1277
 Frc consts  --      2.2498                 2.3549                 2.0326
 IR Inten    --     49.0374                23.3453                 1.6893

                     55                     56                     57
                      A                      A                      A
 Frequencies --   1334.6714              1340.8934              1363.9393
 Red. masses --      1.5473                 1.9077                 3.3853
 Frc consts  --      1.6240                 2.0210                 3.7105
 IR Inten    --      8.1525                36.4906                41.4106

                     58                     59                     60
                      A                      A                      A
 Frequencies --   1374.3271              1390.8453              1441.9204
 Red. masses --      2.1234                 1.4325                 1.2486
 Frc consts  --      2.3630                 1.6327                 1.5295
 IR Inten    --    121.5361                60.5317                 1.0684

                     61                     62                     63
                      A                      A                      A
 Frequencies --   1447.5582              1477.9090              1486.4032
 Red. masses --      1.8005                 2.3739                 2.2171
 Frc consts  --      2.2228                 3.0550                 2.8861
 IR Inten    --     63.8572                 1.5452                22.0433

                     64                     65                     66
                      A                      A                      A
 Frequencies --   1500.8418              1512.2412              1516.8250
 Red. masses --      1.3772                 1.0703                 1.0804
 Frc consts  --      1.8277                 1.4421                 1.4646
 IR Inten    --      0.3659                 0.3329                 2.7562

                     67                     68                     69
                      A                      A                      A
 Frequencies --   1518.2234              1527.1568              1540.1303
 Red. masses --      1.0496                 1.3131                 1.0532
 Frc consts  --      1.4254                 1.8044                 1.4719
 IR Inten    --      5.0777                17.7864                 7.1594

                     70                     71                     72
                      A                      A                      A
 Frequencies --   1549.0800              1647.3229              1651.6850
 Red. masses --      2.3529                 4.8151                 1.2587
 Frc consts  --      3.3265                 7.6987                 2.0232
 IR Inten    --    115.7257                69.0192                80.3312

                     73                     74                     75
                      A                      A                      A
 Frequencies --   1666.4912              1751.1625              1778.6058
 Red. masses --      5.3950                 7.8292                10.4508
 Frc consts  --      8.8276                14.1456                19.4786
 IR Inten    --     73.2769                40.9930               334.0296

                     76                     77                     78
                      A                      A                      A
 Frequencies --   2986.2604              3005.1088              3044.6696
 Red. masses --      1.0690                 1.0404                 1.0398
 Frc consts  --      5.6167                 5.5357                 5.6793
 IR Inten    --     49.6350                56.5523                30.3622

                     79                     80                     81
                      A                      A                      A
 Frequencies --   3060.3861              3082.5972              3101.4101
 Red. masses --      1.1017                 1.0921                 1.0968
 Frc consts  --      6.0795                 6.1141                 6.2158
 IR Inten    --     48.4990                18.6792                21.4752

                     82                     83                     84
                      A                      A                      A
 Frequencies --   3130.2412              3147.5381              3181.5703
 Red. masses --      1.1024                 1.0982                 1.0868
 Frc consts  --      6.3642                 6.4101                 6.4814
 IR Inten    --     15.9678                28.8249                 7.4758

                     85                     86                     87
                      A                      A                      A
 Frequencies --   3199.1615              3230.5890              3252.4575
 Red. masses --      1.0935                 1.0923                 1.0912
 Frc consts  --      6.5942                 6.7166                 6.8013
 IR Inten    --     31.6639                 4.2033                 2.4799

                     88                     89                     90
                      A                      A                      A
 Frequencies --   3413.6369              3540.5911              3650.3670
 Red. masses --      1.0753                 1.0465                 1.0994
 Frc consts  --      7.3825                 7.7293                 8.6312
 IR Inten    --      2.8536                20.9484                35.3086

 - Thermochemistry -
 -------------------
 Temperature   298.150 Kelvin.  Pressure   1.00000 Atm.
 Atom     1 has atomic number  6 and mass  12.00000

 Molecular mass:   233.11643 amu.
 Principal axes and moments of inertia in atomic units:
                           1         2         3
     Eigenvalues --  1665.498737548.729918629.79180
           X            0.99996   0.00860  -0.00339
           Y           -0.00856   0.99990   0.01103
           Z            0.00348  -0.01100   0.99993
 This molecule is an asymmetric top.
 Rotational symmetry number  1.
 Warning -- assumption of classical behavior for rotation
           may cause significant error
 Rotational temperatures (Kelvin)      0.05200     0.01147     0.01004
 Rotational constants (GHZ):           1.08360     0.23908     0.20913
 Zero-point vibrational energy     691076.3 (Joules/Mol)
                                  165.17120 (Kcal/Mol)
 Warning -- explicit consideration of  25 degrees of freedom as
           vibrations may cause significant error
 Vibrational temperatures:     42.92    48.05    54.02    88.72   117.50
          (Kelvin)            153.13   211.56   242.11   289.98   304.28
                              327.20   365.61   398.29   422.82   468.50
                              506.83   537.66   581.86   592.43   646.50
                              671.08   755.74   765.66   820.53   886.98
                              937.39   969.83  1004.75  1020.19  1038.65
                             1121.94  1143.15  1161.50  1263.95  1287.36
                             1314.29  1320.32  1357.16  1394.07  1453.61
                             1465.45  1467.08  1506.95  1548.01  1627.60
                             1629.46  1655.32  1712.12  1729.24  1736.74
                             1759.49  1774.17  1824.08  1832.06  1920.29
                             1929.25  1962.40  1977.35  2001.12  2074.60
                             2082.71  2126.38  2138.60  2159.38  2175.78
                             2182.37  2184.38  2197.24  2215.90  2228.78
                             2370.13  2376.41  2397.71  2519.53  2559.02
                             4296.56  4323.68  4380.60  4403.21  4435.17
                             4462.24  4503.72  4528.61  4577.57  4602.88
                             4648.10  4679.56  4911.46  5094.12  5252.06

 Zero-point correction=                           0.263217 (Hartree/Particle)
 Thermal correction to Energy=                    0.279707
 Thermal correction to Enthalpy=                  0.280651
 Thermal correction to Gibbs Free Energy=         0.217571
 Sum of electronic and zero-point Energies=           -780.770091
 Sum of electronic and thermal Energies=              -780.753602
 Sum of electronic and thermal Enthalpies=            -780.752657
 Sum of electronic and thermal Free Energies=         -780.815737

                     E (Thermal)             CV                S
                      KCal/Mol        Cal/Mol-Kelvin    Cal/Mol-Kelvin
 Total                  175.519             61.435            132.762
 Electronic               0.000              0.000              0.000
 Translational            0.889              2.981             42.241
 Rotational               0.889              2.981             33.050
 Vibrational            173.741             55.473             57.471
 Vibration     1          0.594              1.984              5.841
 Vibration     2          0.594              1.983              5.617
 Vibration     3          0.594              1.982              5.385
 Vibration     4          0.597              1.973              4.403
 Vibration     5          0.600              1.962              3.850
 Vibration     6          0.605              1.944              3.333
 Vibration     7          0.617              1.906              2.710
 Vibration     8          0.625              1.882              2.455
 Vibration     9          0.638              1.838              2.119
 Vibration    10          0.643              1.823              2.031
 Vibration    11          0.651              1.799              1.899
 Vibration    12          0.665              1.756              1.702
 Vibration    13          0.678              1.716              1.553
 Vibration    14          0.689              1.685              1.452
 Vibration    15          0.710              1.624              1.282
 Vibration    16          0.729              1.571              1.156
 Vibration    17          0.745              1.526              1.065
 Vibration    18          0.770              1.461              0.947
 Vibration    19          0.776              1.445              0.920
 Vibration    20          0.808              1.362              0.798
 Vibration    21          0.824              1.325              0.748
 Vibration    22          0.880              1.194              0.598
 Vibration    23          0.887              1.179              0.582
 Vibration    24          0.926              1.095              0.504
 Vibration    25          0.976              0.997              0.422

 Optimization completed.
    -- Stationary point found.
 Normal termination of Gaussian 16 at Fri Dec 11 12:49:32 2020.

 ----------------------------------------------------------------------
 # B3LYP/6-311++G(d,p) empiricaldispersion=gd3bj scf=xqc pop=npa geom=c
 heck
 ----------------------------------------------------------------------

 ---------------------------------------
 CID_103994934_JID_7506_Energie_neutraal
 ---------------------------------------
 Structure from the checkpoint file:  "JID_7506.chk"
 Charge =  0 Multiplicity = 1

 SCF Done:  E(RB3LYP) =  -781.257867281     A.U. after   16 cycles
 Normal termination of Gaussian 16 at Fri Dec 11 12:53:54 2020.

 ----------------------------------------------------------------------
 # B3LYP/6-311++G(d,p) empiricaldispersion=gd3bj scf=xqc pop=npa geom=c
 heck
 ----------------------------------------------------------------------

 -------------------------------------
 CID_103994934_JID_7506_Energie_kation
 -------------------------------------
 Structure from the checkpoint file:  "JID_7506.chk"
 Charge =  1 Multiplicity = 2

 SCF Done:  E(UB3LYP) =  -780.982621782     A.U. after   28 cycles
 Normal termination of Gaussian 16 at Fri Dec 11 13:03:53 2020.
 Gaussian 16:  ES64L-G16RevA.03 25-Dec-2016

 ----------------------------------------------------------------------
 # B3LYP/6-311++G(d,p) empiricaldispersion=gd3bj scf=xqc pop=npa geom=c
 heck
 ----------------------------------------------------------------------

 ------------------------------------
 CID_103994934_JID_7506_Energie_anion
 ------------------------------------
 Structure from the checkpoint file:  "JID_7506.chk"
 Charge = -1 Multiplicity = 2

                         Standard orientation:
 ---------------------------------------------------------------------
 Center     Atomic      Atomic             Coordinates (Angstroms)
 Number     Number       Type             X           Y           Z
 ---------------------------------------------------------------------
      1          6           0        4.805620    1.324554    0.692541
      2          6           0        3.786924    0.272380    0.325756
      3          6           0        2.430127    0.599228    0.281033
      4          6           0        1.483998   -0.364186   -0.097066
      5          6           0        1.891728   -1.663068   -0.426262
      6          6           0        3.245610   -1.985561   -0.364521
      7          6           0        4.189118   -1.031712    0.009370
      8          7           0        0.113742   -0.035161   -0.110206
      9          6           0       -0.481726    1.221048   -0.260398
     10          8           0        0.075184    2.315461   -0.239847
     11          6           0       -1.907587    0.940445   -0.460525
     12          6           0       -2.084980   -0.401324   -0.409935
     13          7           0       -0.838167   -1.063148   -0.282418
     14          6           0       -3.360321   -1.177082   -0.508724
     15          8           0       -4.414233   -0.561242    0.221772
     16          6           0       -4.228432   -0.630321    1.625214
     17          7           0       -2.803150    1.959940   -0.720963
     18          1           0        4.358196    2.121097    1.294822
     19          1           0        5.639478    0.893981    1.257364
     20          1           0        5.227758    1.792250   -0.206456
     21          1           0        2.095838    1.600367    0.518842
     22          1           0        1.161465   -2.395613   -0.748785
     23          1           0        3.563320   -2.993184   -0.618103
     24          1           0        5.242463   -1.295947    0.053719
     25          1           0       -0.798251   -1.689652    0.525950
     26          1           0       -3.715865   -1.214910   -1.544708
     27          1           0       -3.204959   -2.216988   -0.173912
     28          1           0       -4.175951   -1.675749    1.967226
     29          1           0       -3.314923   -0.107657    1.942020
     30          1           0       -5.095673   -0.149309    2.083026
     31          1           0       -2.448236    2.866217   -0.436699
     32          1           0       -3.749711    1.773519   -0.413490
 ---------------------------------------------------------------------

 SCF Done:  E(UB3LYP) =  -781.250381166     A.U. after   33 cycles
 SCF Done:  E(UB3LYP) =  -781.250381166     a.u. after    1 cycles

 The electronic state is 2-A.
 Alpha  occ. eigenvalues --  -19.03216 -18.97513 -14.27841 -14.26693 -14.21215
 Alpha  occ. eigenvalues --  -10.15385 -10.12699 -10.11649 -10.10932 -10.09434
 Alpha  occ. eigenvalues --  -10.09357 -10.08367 -10.07997 -10.07710 -10.06844
 Alpha  occ. eigenvalues --  -10.06569 -10.06503  -0.95551  -0.94182  -0.90164
 Alpha  occ. eigenvalues --   -0.80968  -0.77525  -0.73505  -0.67885  -0.66365
 Alpha  occ. eigenvalues --   -0.65174  -0.61693  -0.59354  -0.56081  -0.52348
 Alpha  occ. eigenvalues --   -0.50045  -0.47629  -0.46978  -0.43947  -0.42058
 Alpha  occ. eigenvalues --   -0.39826  -0.39199  -0.37957  -0.37471  -0.36872
 Alpha  occ. eigenvalues --   -0.36635  -0.35072  -0.33396  -0.33043  -0.32543
 Alpha  occ. eigenvalues --   -0.31778  -0.31188  -0.29654  -0.29316  -0.28830
 Alpha  occ. eigenvalues --   -0.27071  -0.26274  -0.24864  -0.24611  -0.23266
 Alpha  occ. eigenvalues --   -0.22537  -0.18414  -0.17388  -0.15417  -0.14830
 Alpha  occ. eigenvalues --   -0.11617  -0.09701   0.04303
 Alpha virt. eigenvalues --    0.06173   0.06422   0.07244   0.07949   0.08411
 Alpha virt. eigenvalues --    0.08468   0.09145   0.09705   0.10146   0.10690
 Alpha virt. eigenvalues --    0.10957   0.11260   0.11894   0.12023   0.13159

  Beta  occ. eigenvalues --  -19.03198 -18.97410 -14.27877 -14.26663 -14.21206
  Beta  occ. eigenvalues --  -10.15268 -10.12679 -10.11569 -10.10874 -10.09399
  Beta  occ. eigenvalues --  -10.09259 -10.08342 -10.07996 -10.07722 -10.06792
  Beta  occ. eigenvalues --  -10.06498 -10.06489  -0.95457  -0.94148  -0.90005
  Beta  occ. eigenvalues --   -0.80941  -0.77410  -0.73400  -0.67789  -0.66229
  Beta  occ. eigenvalues --   -0.65040  -0.61616  -0.59277  -0.55899  -0.52257
  Beta  occ. eigenvalues --   -0.49947  -0.47510  -0.46892  -0.43867  -0.41976
  Beta  occ. eigenvalues --   -0.39745  -0.39056  -0.37883  -0.37374  -0.36795
  Beta  occ. eigenvalues --   -0.36516  -0.35001  -0.33313  -0.32953  -0.32466
  Beta  occ. eigenvalues --   -0.31626  -0.31132  -0.29609  -0.29208  -0.28705
  Beta  occ. eigenvalues --   -0.26771  -0.26203  -0.24821  -0.24361  -0.23150
  Beta  occ. eigenvalues --   -0.22387  -0.18081  -0.17321  -0.15278  -0.14654
  Beta  occ. eigenvalues --   -0.11269  -0.09301
  Beta virt. eigenvalues --    0.06346   0.06958   0.07271   0.07542   0.08368
  Beta virt. eigenvalues --    0.08480   0.08890   0.09411   0.09889   0.10486
  Beta virt. eigenvalues --    0.11107   0.11152   0.11652   0.12144   0.12235

 Mulliken charges and spin densities:
               1          2
     1  C   -0.227904  -0.252821
     2  C    0.385001   0.267957
     3  C   -0.278274   0.315374
     4  C   -0.776820  -0.121628
     5  C    0.886406  -0.593014
     6  C   -0.217552   0.036616
     7  C   -0.554689  -0.033821
     8  N    0.122406  -0.051018
     9  C   -0.004566  -0.146816
    10  O   -0.403629   0.039803
    11  C    0.056453   0.400945
    12  C   -0.965411   0.940119
    13  N    0.025497   0.112391
    14  C    1.319363  -2.138169
    15  O   -0.230915   0.107450
    16  C    0.792664  -1.115387
    17  N   -0.464318   0.051780
    18  H    0.117818   0.022350
    19  H    0.050639   0.076234
    20  H    0.162420  -0.011510
    21  H    0.197140   0.037196
    22  H   -0.142463   0.342927
    23  H   -0.059540   0.214920
    24  H    0.058451   0.047486
    25  H    0.179181   0.091530
    26  H   -0.157210   0.360565
    27  H   -0.277996   0.430344
    28  H   -0.468564   0.601302
    29  H   -0.093271   0.250496
    30  H   -0.393256   0.555707
    31  H    0.195979   0.067477
    32  H    0.166961   0.093214
 Sum of Mulliken charges =  -1.00000   1.00000

 Dipole moment (field-independent basis, Debye):
    X=              5.8824    Y=              1.4984    Z=             -0.0953  Tot=              6.0710
 Quadrupole moment (field-independent basis, Debye-Ang):
   XX=           -180.1290   YY=           -137.5608   ZZ=           -128.1253
   XY=             -7.6182   XZ=              5.9258   YZ=              4.0244

 Summary of Natural Population Analysis:

                                       Natural Population
                Natural  -----------------------------------------------
    Atom  No    Charge         Core      Valence    Rydberg      Total
 -----------------------------------------------------------------------
      C    1   -0.29080      0.99964     2.28614    0.00502     3.29080
      C    2   -0.01040      0.99953     2.00309    0.00779     3.01040
      C    3   -0.11286      0.99948     2.10540    0.00797     3.11286
      C    4    0.09576      0.99948     1.89276    0.01200     2.90424
      C    5   -0.11854      0.99953     2.10935    0.00966     3.11854
      C    6   -0.09708      0.99957     2.08799    0.00952     3.09708
      C    7   -0.10625      0.99952     2.09696    0.00978     3.10625
      N    8   -0.15052      0.99960     2.64060    0.01031     3.65052
      C    9    0.32641      0.99959     1.65187    0.02213     2.67359
      O   10   -0.32570      0.99988     3.32019    0.00564     4.32570
      C   11    0.01658      0.99937     1.97095    0.01310     2.98342
      C   12    0.07235      0.99945     1.91661    0.01159     2.92765
      N   13   -0.20182      0.99969     2.69071    0.01142     3.70182
      C   14   -0.02433      0.99954     2.00980    0.01499     3.02433
      O   15   -0.29975      0.99989     3.28880    0.01106     4.29975
      C   16   -0.10078      0.99961     2.09117    0.00999     3.10078
      N   17   -0.40441      0.99971     2.89437    0.01033     3.90441
      H   18    0.10204      0.00000     0.39702    0.00095     0.39796
      H   19    0.09866      0.00000     0.40019    0.00115     0.40134
      H   20    0.10137      0.00000     0.39750    0.00112     0.39863
      H   21    0.11970      0.00000     0.37902    0.00128     0.38030
      H   22    0.10889      0.00000     0.38971    0.00140     0.39111
      H   23    0.09769      0.00000     0.40147    0.00083     0.40231
      H   24    0.09438      0.00000     0.40471    0.00092     0.40562
      H   25    0.18274      0.00000     0.31422    0.00304     0.31726
      H   26    0.10296      0.00000     0.39497    0.00207     0.39704
      H   27    0.08622      0.00000     0.41193    0.00185     0.41378
      H   28    0.08088      0.00000     0.41662    0.00250     0.41912
      H   29    0.08216      0.00000     0.41596    0.00188     0.41784
      H   30    0.09128      0.00000     0.40699    0.00173     0.40872
      H   31    0.19058      0.00000     0.30767    0.00175     0.30942
      H   32    0.19258      0.00000     0.30543    0.00199     0.30742
 =======================================================================
   * Total *   -0.00000     16.99309    44.80017    0.20674    62.00000

 Normal termination of Gaussian 16 at Fri Dec 11 13:15:47 2020.
