 Gaussian 16, Revision A.03,

 -----------------------------------------------------------
 # opt freq B3LYP/6-31G(d) empiricaldispersion=gd3bj scf=xqc
 -----------------------------------------------------------

 ------------------------------
 CID_96590935_JID_3788_neutraal
 ------------------------------
 Symbolic Z-matrix:
 Charge =  0 Multiplicity = 1

 SCF Done:  E(RB3LYP) =  -663.273269339     A.U. after   15 cycles
 SCF Done:  E(RB3LYP) =  -663.279334091     A.U. after   13 cycles
 SCF Done:  E(RB3LYP) =  -663.280074349     A.U. after   13 cycles
 SCF Done:  E(RB3LYP) =  -663.280565047     A.U. after   12 cycles
 SCF Done:  E(RB3LYP) =  -663.280823015     A.U. after   12 cycles
 SCF Done:  E(RB3LYP) =  -663.280901044     A.U. after   12 cycles
 SCF Done:  E(RB3LYP) =  -663.280932654     A.U. after   11 cycles
 SCF Done:  E(RB3LYP) =  -663.280943809     A.U. after   10 cycles
 SCF Done:  E(RB3LYP) =  -663.280946368     A.U. after    9 cycles
 SCF Done:  E(RB3LYP) =  -663.280947718     A.U. after    9 cycles
 SCF Done:  E(RB3LYP) =  -663.280951929     A.U. after   10 cycles
 SCF Done:  E(RB3LYP) =  -663.280954293     A.U. after   10 cycles
 SCF Done:  E(RB3LYP) =  -663.280956901     A.U. after   11 cycles
 SCF Done:  E(RB3LYP) =  -663.280958302     A.U. after    9 cycles
 SCF Done:  E(RB3LYP) =  -663.280958643     A.U. after    8 cycles
 SCF Done:  E(RB3LYP) =  -663.280958664     A.U. after    7 cycles
 Optimization completed.
    -- Stationary point found.
 Normal termination of Gaussian 16 at Mon Dec 14 13:10:31 2020.

 --------------------------------------------------------------------
 #N Geom=AllCheck Guess=TCheck SCRF=Check GenChk RB3LYP/6-31G(d) Freq
 --------------------------------------------------------------------

 Structure from the checkpoint file:  "JID_3788.chk"
 ------------------------------
 CID_96590935_JID_3788_neutraal
 ------------------------------
 Charge =  0 Multiplicity = 1

 SCF Done:  E(RB3LYP) =  -663.280958664     A.U. after    1 cycles

  Exact polarizability: 127.146   6.822  91.133  10.973  -4.884  79.060
 Approx polarizability: 171.341   7.806 144.828  24.480 -22.665 129.755

                      1                      2                      3
                      A                      A                      A
 Frequencies --     19.6338                32.0087                48.9908
 Red. masses --      4.3968                 4.6030                 6.6787
 Frc consts  --      0.0010                 0.0028                 0.0094
 IR Inten    --      0.2983                 1.1827                 0.1293

                      4                      5                      6
                      A                      A                      A
 Frequencies --     80.0919               139.8164               159.0018
 Red. masses --      4.8522                 4.1252                 5.7708
 Frc consts  --      0.0183                 0.0475                 0.0860
 IR Inten    --      0.0148                 1.8317                 1.0975

                      7                      8                      9
                      A                      A                      A
 Frequencies --    200.3652               236.1240               262.9629
 Red. masses --      3.3529                 2.8913                 1.1456
 Frc consts  --      0.0793                 0.0950                 0.0467
 IR Inten    --      0.1108                 1.8678                 1.1500

                     10                     11                     12
                      A                      A                      A
 Frequencies --    282.5337               337.9937               343.6863
 Red. masses --      1.1097                 5.0364                 3.1590
 Frc consts  --      0.0522                 0.3390                 0.2199
 IR Inten    --      0.7886                 0.1920                 4.0454

                     13                     14                     15
                      A                      A                      A
 Frequencies --    400.0782               414.5553               446.3490
 Red. masses --      3.1237                 3.3496                 1.9462
 Frc consts  --      0.2946                 0.3392                 0.2285
 IR Inten    --      6.8391                 1.4716                 0.8189

                     16                     17                     18
                      A                      A                      A
 Frequencies --    500.3950               555.7329               575.8719
 Red. masses --      3.5678                 4.5212                 1.8456
 Frc consts  --      0.5264                 0.8227                 0.3606
 IR Inten    --      2.0506                 4.5120                37.8853

                     19                     20                     21
                      A                      A                      A
 Frequencies --    651.8189               677.2777               722.6353
 Red. masses --      4.2071                 2.6124                 4.2743
 Frc consts  --      1.0531                 0.7060                 1.3151
 IR Inten    --     15.1290                81.1788                77.7751

                     22                     23                     24
                      A                      A                      A
 Frequencies --    744.5379               787.1214               793.5342
 Red. masses --      3.6283                 5.0788                 5.3074
 Frc consts  --      1.1850                 1.8539                 1.9691
 IR Inten    --     32.4981                 4.9232                 8.6918

                     25                     26                     27
                      A                      A                      A
 Frequencies --    915.7550               940.5942               955.2273
 Red. masses --      2.7489                12.8888                 2.4425
 Frc consts  --      1.3582                 6.7184                 1.3131
 IR Inten    --     12.9857                16.3371                 3.9480

                     28                     29                     30
                      A                      A                      A
 Frequencies --   1018.7786              1043.5801              1060.2728
 Red. masses --      5.0038                 5.1877                 4.1246
 Frc consts  --      3.0599                 3.3287                 2.7319
 IR Inten    --      5.4415                16.5770                 4.1235

                     31                     32                     33
                      A                      A                      A
 Frequencies --   1086.6036              1087.8398              1136.5263
 Red. masses --      1.9277                 1.6396                 1.2738
 Frc consts  --      1.3410                 1.1432                 0.9694
 IR Inten    --     33.0850                23.0556                10.2172

                     34                     35                     36
                      A                      A                      A
 Frequencies --   1171.2521              1182.5326              1196.5579
 Red. masses --      3.2507                 1.6040                 1.4526
 Frc consts  --      2.6274                 1.3215                 1.2254
 IR Inten    --    246.3552                64.9546                10.3953

                     37                     38                     39
                      A                      A                      A
 Frequencies --   1241.9469              1292.9754              1325.5410
 Red. masses --      1.5556                 2.3911                 1.8927
 Frc consts  --      1.4137                 2.3552                 1.9594
 IR Inten    --     27.7212                 7.7268                15.3546

                     40                     41                     42
                      A                      A                      A
 Frequencies --   1345.6720              1378.5682              1406.9386
 Red. masses --      2.4286                 2.1394                 1.6168
 Frc consts  --      2.5911                 2.3955                 1.8856
 IR Inten    --     14.7190                85.5702                37.0381

                     43                     44                     45
                      A                      A                      A
 Frequencies --   1408.3186              1429.9625              1470.7495
 Red. masses --      1.4952                 2.8252                 1.1577
 Frc consts  --      1.7473                 3.4037                 1.4755
 IR Inten    --     27.8014                14.4472                 0.5162

                     46                     47                     48
                      A                      A                      A
 Frequencies --   1490.3639              1502.0242              1507.3672
 Red. masses --      1.1273                 1.1189                 1.0577
 Frc consts  --      1.4753                 1.4873                 1.4159
 IR Inten    --      0.9661                12.6644                 7.7185

                     49                     50                     51
                      A                      A                      A
 Frequencies --   1512.0787              1526.0330              1534.6476
 Red. masses --      1.1241                 1.1184                 6.6573
 Frc consts  --      1.5142                 1.5345                 9.2378
 IR Inten    --      6.6552                15.6293                62.5853

                     52                     53                     54
                      A                      A                      A
 Frequencies --   1542.6813              1557.0418              1615.5832
 Red. masses --      1.0527                 1.0553                10.3612
 Frc consts  --      1.4761                 1.5073                15.9338
 IR Inten    --      5.2562                 7.9977                66.1151

                     55                     56                     57
                      A                      A                      A
 Frequencies --   1848.0204              2952.0249              2976.2217
 Red. masses --     10.7729                 1.0600                 1.0571
 Frc consts  --     21.6769                 5.4422                 5.5168
 IR Inten    --    280.5007                59.1003                84.7546

                     58                     59                     60
                      A                      A                      A
 Frequencies --   3048.4041              3070.0856              3070.8936
 Red. masses --      1.0619                 1.0748                 1.0685
 Frc consts  --      5.8141                 5.9688                 5.9369
 IR Inten    --     30.5810                28.7893                38.3306

                     61                     62                     63
                      A                      A                      A
 Frequencies --   3071.9350              3098.4288              3115.5005
 Red. masses --      1.0705                 1.1051                 1.1039
 Frc consts  --      5.9519                 6.2508                 6.3129
 IR Inten    --     45.9244                17.9148                29.8514

                     64                     65                     66
                      A                      A                      A
 Frequencies --   3124.3896              3134.2528              3689.9056
 Red. masses --      1.1017                 1.0977                 1.0641
 Frc consts  --      6.3367                 6.3533                 8.5362
 IR Inten    --     24.4859                13.2981                90.6555

 - Thermochemistry -
 -------------------
 Temperature   298.150 Kelvin.  Pressure   1.00000 Atm.
 Atom     1 has atomic number  6 and mass  12.00000

 Molecular mass:   185.08004 amu.
 Principal axes and moments of inertia in atomic units:
                           1         2         3
     Eigenvalues --  1125.085434275.505644636.57904
           X            0.99999  -0.00542   0.00043
           Y            0.00540   0.99919   0.03977
           Z           -0.00065  -0.03977   0.99921
 This molecule is an asymmetric top.
 Rotational symmetry number  1.
 Warning -- assumption of classical behavior for rotation
           may cause significant error
 Rotational temperatures (Kelvin)      0.07698     0.02026     0.01868
 Rotational constants (GHZ):           1.60409     0.42211     0.38924
 Zero-point vibrational energy     505405.5 (Joules/Mol)
                                  120.79480 (Kcal/Mol)
 Warning -- explicit consideration of  18 degrees of freedom as
           vibrations may cause significant error
 Vibrational temperatures:     28.25    46.05    70.49   115.23   201.16
          (Kelvin)            228.77   288.28   339.73   378.34   406.50
                              486.30   494.49   575.62   596.45   642.20
                              719.96   799.58   828.55   937.82   974.45
                             1039.71  1071.22  1132.49  1141.72  1317.57
                             1353.31  1374.36  1465.80  1501.48  1525.50
                             1563.38  1565.16  1635.21  1685.17  1701.40
                             1721.58  1786.88  1860.30  1907.16  1936.12
                             1983.45  2024.27  2026.26  2057.40  2116.08
                             2144.30  2161.08  2168.77  2175.54  2195.62
                             2208.02  2219.57  2240.24  2324.46  2658.89
                             4247.31  4282.12  4385.97  4417.17  4418.33
                             4419.83  4457.95  4482.51  4495.30  4509.49
                             5308.95

 Zero-point correction=                           0.192499 (Hartree/Particle)
 Thermal correction to Energy=                    0.205281
 Thermal correction to Enthalpy=                  0.206225
 Thermal correction to Gibbs Free Energy=         0.150968
 Sum of electronic and zero-point Energies=           -663.088460
 Sum of electronic and thermal Energies=              -663.075678
 Sum of electronic and thermal Enthalpies=            -663.074733
 Sum of electronic and thermal Free Energies=         -663.129990

                     E (Thermal)             CV                S
                      KCal/Mol        Cal/Mol-Kelvin    Cal/Mol-Kelvin
 Total                  128.816             45.900            116.298
 Electronic               0.000              0.000              0.000
 Translational            0.889              2.981             41.553
 Rotational               0.889              2.981             31.478
 Vibrational            127.038             39.938             43.267
 Vibration     1          0.593              1.986              6.671
 Vibration     2          0.594              1.983              5.701
 Vibration     3          0.595              1.978              4.858
 Vibration     4          0.600              1.963              3.889
 Vibration     5          0.615              1.914              2.806
 Vibration     6          0.621              1.893              2.562
 Vibration     7          0.638              1.839              2.130
 Vibration     8          0.655              1.785              1.832
 Vibration     9          0.670              1.741              1.642
 Vibration    10          0.682              1.706              1.518
 Vibration    11          0.718              1.600              1.222
 Vibration    12          0.722              1.588              1.195
 Vibration    13          0.766              1.470              0.962
 Vibration    14          0.778              1.439              0.911
 Vibration    15          0.806              1.369              0.807
 Vibration    16          0.856              1.249              0.657
 Vibration    17          0.911              1.127              0.532
 Vibration    18          0.932              1.083              0.493

                           ! Non-Optimized Parameters !
 Normal termination of Gaussian 16 at Mon Dec 14 13:15:57 2020.

 ----------------------------------------------------------------------
 # B3LYP/6-311++G(d,p) empiricaldispersion=gd3bj scf=xqc pop=npa geom=c
 heck
 ----------------------------------------------------------------------

 --------------------------------------
 CID_96590935_JID_3788_Energie_neutraal
 --------------------------------------
 Structure from the checkpoint file:  "JID_3788.chk"
 Charge =  0 Multiplicity = 1

 SCF Done:  E(RB3LYP) =  -663.475100503     A.U. after   15 cycles
 Normal termination of Gaussian 16 at Mon Dec 14 13:17:49 2020.

 ----------------------------------------------------------------------
 # B3LYP/6-311++G(d,p) empiricaldispersion=gd3bj scf=xqc pop=npa geom=c
 heck
 ----------------------------------------------------------------------

 ------------------------------------
 CID_96590935_JID_3788_Energie_kation
 ------------------------------------
 Structure from the checkpoint file:  "JID_3788.chk"
 Charge =  1 Multiplicity = 2

 SCF Done:  E(UB3LYP) =  -663.175670734     A.U. after   22 cycles
 Normal termination of Gaussian 16 at Mon Dec 14 13:21:30 2020.
 Gaussian 16:  ES64L-G16RevA.03 25-Dec-2016

 ----------------------------------------------------------------------
 # B3LYP/6-311++G(d,p) empiricaldispersion=gd3bj scf=xqc pop=npa geom=c
 heck
 ----------------------------------------------------------------------

 -----------------------------------
 CID_96590935_JID_3788_Energie_anion
 -----------------------------------
 Structure from the checkpoint file:  "JID_3788.chk"
 Charge = -1 Multiplicity = 2

                         Standard orientation:
 ---------------------------------------------------------------------
 Center     Atomic      Atomic             Coordinates (Angstroms)
 Number     Number       Type             X           Y           Z
 ---------------------------------------------------------------------
      1          6           0       -1.935668    0.873823    1.479557
      2          7           0       -2.976450    0.457668    0.552678
      3          6           0       -3.353675    1.518483   -0.364361
      4          6           0       -2.767068   -0.830150   -0.080367
      5          6           0       -1.622274   -0.954491   -1.128916
      6          6           0       -0.247777   -0.880291   -0.547623
      7          7           0        0.200782   -1.758621    0.324163
      8          8           0        1.491805   -1.311834    0.621043
      9          6           0        1.681571   -0.205301   -0.113852
     10          7           0        0.659327    0.116729   -0.851280
     11          6           0        2.997758    0.476437    0.021551
     12          8           0        3.880060    0.090286    0.750988
     13          8           0        3.065059    1.563513   -0.766418
     14          1           0       -2.313558    1.695877    2.098925
     15          1           0       -1.013208    1.227545    0.985755
     16          1           0       -1.672939    0.040062    2.138197
     17          1           0       -2.529584    1.861226   -1.018268
     18          1           0       -4.178428    1.180406   -1.001622
     19          1           0       -3.700788    2.385863    0.208405
     20          1           0       -2.595270   -1.575169    0.704553
     21          1           0       -3.698526   -1.103529   -0.591329
     22          1           0       -1.738409   -1.921629   -1.631678
     23          1           0       -1.707075   -0.177252   -1.892594
     24          1           0        3.949578    1.949376   -0.620102
 ---------------------------------------------------------------------

 SCF Done:  E(UB3LYP) =  -663.502150813     A.U. after   27 cycles

 The electronic state is 2-A.
 Alpha  occ. eigenvalues --  -19.02651 -19.00888 -18.93179 -14.19750 -14.18460
 Alpha  occ. eigenvalues --  -14.13993 -10.11759 -10.08871 -10.08585 -10.07698
 Alpha  occ. eigenvalues --  -10.07354 -10.07182 -10.05537  -0.98811  -0.94603
 Alpha  occ. eigenvalues --   -0.85370  -0.81714  -0.76552  -0.70265  -0.64025
 Alpha  occ. eigenvalues --   -0.60187  -0.56133  -0.52945  -0.47841  -0.45304
 Alpha  occ. eigenvalues --   -0.41550  -0.37313  -0.37209  -0.35724  -0.34715
 Alpha  occ. eigenvalues --   -0.32997  -0.32326  -0.31280  -0.29441  -0.28310
 Alpha  occ. eigenvalues --   -0.28012  -0.27488  -0.26422  -0.26038  -0.24797
 Alpha  occ. eigenvalues --   -0.23420  -0.23021  -0.17309  -0.17260  -0.16657
 Alpha  occ. eigenvalues --   -0.13250  -0.13015  -0.11726  -0.10180   0.04474
 Alpha virt. eigenvalues --    0.07390   0.09148   0.09963   0.10232   0.11239
 Alpha virt. eigenvalues --    0.12212   0.12578   0.13797   0.14324   0.15581
 Alpha virt. eigenvalues --    0.16008   0.16455   0.16856   0.17038   0.17711

  Beta  occ. eigenvalues --  -19.02171 -19.00773 -18.92734 -14.19749 -14.18054
  Beta  occ. eigenvalues --  -14.13796 -10.11436 -10.08870 -10.08586 -10.07426
  Beta  occ. eigenvalues --  -10.07363 -10.07180 -10.05536  -0.98077  -0.94178
  Beta  occ. eigenvalues --   -0.84695  -0.81709  -0.76058  -0.69665  -0.63875
  Beta  occ. eigenvalues --   -0.60183  -0.56075  -0.51882  -0.47805  -0.45025
  Beta  occ. eigenvalues --   -0.41285  -0.37205  -0.37165  -0.35481  -0.34515
  Beta  occ. eigenvalues --   -0.31992  -0.31523  -0.30895  -0.28948  -0.28190
  Beta  occ. eigenvalues --   -0.27693  -0.26508  -0.26081  -0.25975  -0.24650
  Beta  occ. eigenvalues --   -0.23108  -0.22800  -0.16723  -0.15526  -0.14884
  Beta  occ. eigenvalues --   -0.12890  -0.11275  -0.10971  -0.09772
  Beta virt. eigenvalues --    0.07342   0.09104   0.09909   0.10234   0.11173
  Beta virt. eigenvalues --    0.11925   0.12428   0.12615   0.13759   0.14301
  Beta virt. eigenvalues --    0.15643   0.15999   0.16695   0.17047   0.17391

 Mulliken charges and spin densities:
               1          2
     1  C   -0.417208  -0.008805
     2  N    0.031975   0.011790
     3  C   -0.387116  -0.002372
     4  C   -0.383945  -0.046181
     5  C    0.081324  -0.027274
     6  C   -0.112154   0.039762
     7  N   -0.354765   0.200072
     8  O    0.150767   0.098697
     9  C   -0.423921   0.212298
    10  N   -0.046076   0.086026
    11  C   -0.097670   0.228633
    12  O   -0.431188   0.151315
    13  O   -0.211827   0.020526
    14  H    0.132933   0.001538
    15  H    0.155924   0.002164
    16  H    0.132684   0.000270
    17  H    0.131349  -0.000033
    18  H    0.112103   0.008844
    19  H    0.105356   0.005217
    20  H    0.172904  -0.000663
    21  H    0.121107  -0.006316
    22  H    0.112204   0.035137
    23  H    0.165454  -0.008807
    24  H    0.259786  -0.001837
 Sum of Mulliken charges =  -1.00000   1.00000

 Dipole moment (field-independent basis, Debye):
    X=             -6.8709    Y=              2.5983    Z=             -1.5594  Tot=              7.5094
 Quadrupole moment (field-independent basis, Debye-Ang):
   XX=           -115.8285   YY=            -89.5816   ZZ=            -87.5292
   XY=              4.7078   XZ=             -3.3460   YZ=              4.8022

 Summary of Natural Population Analysis:

                                       Natural Population
                Natural  -----------------------------------------------
    Atom  No    Charge         Core      Valence    Rydberg      Total
 -----------------------------------------------------------------------
      C    1   -0.18103      0.99965     2.17384    0.00753     3.18103
      N    2   -0.28205      0.99973     2.76764    0.01468     3.78205
      C    3   -0.17756      0.99966     2.17062    0.00729     3.17756
      C    4   -0.07432      0.99962     2.06458    0.01012     3.07432
      C    5   -0.21804      0.99958     2.21098    0.00748     3.21804
      C    6    0.13247      0.99965     1.84736    0.02051     2.86753
      N    7   -0.06079      0.99965     2.54515    0.01599     3.56079
      O    8   -0.11715      0.99986     3.10757    0.00972     4.11715
      C    9    0.27760      0.99958     1.70375    0.01907     2.72240
      N   10   -0.24784      0.99968     2.73924    0.00893     3.74784
      C   11    0.41019      0.99970     1.56649    0.02362     2.58981
      O   12   -0.27692      0.99987     3.27006    0.00699     4.27692
      O   13   -0.33979      0.99988     3.33167    0.00824     4.33979
      H   14    0.08386      0.00000     0.41504    0.00110     0.41614
      H   15    0.09577      0.00000     0.40249    0.00174     0.40423
      H   16    0.09996      0.00000     0.39914    0.00089     0.40004
      H   17    0.08458      0.00000     0.41338    0.00204     0.41542
      H   18    0.08886      0.00000     0.41024    0.00090     0.41114
      H   19    0.08909      0.00000     0.40986    0.00104     0.41091
      H   20    0.09966      0.00000     0.39932    0.00103     0.40034
      H   21    0.08437      0.00000     0.41444    0.00119     0.41563
      H   22    0.10124      0.00000     0.39640    0.00237     0.39876
      H   23    0.10452      0.00000     0.39428    0.00120     0.39548
      H   24    0.22331      0.00000     0.27090    0.00578     0.27669
 =======================================================================
   * Total *   -0.00000     12.99610    35.82444    0.17946    49.00000

 Normal termination of Gaussian 16 at Mon Dec 14 13:26:12 2020.
