 Gaussian 16, Revision A.03,

 -----------------------------------------------------------
 # opt freq B3LYP/6-31G(d) empiricaldispersion=gd3bj scf=xqc
 -----------------------------------------------------------

 -------------------------------
 CID_104997804_JID_7233_neutraal
 -------------------------------
 Symbolic Z-matrix:
 Charge =  0 Multiplicity = 1

 SCF Done:  E(RB3LYP) =  -728.877857275     A.U. after   14 cycles
 SCF Done:  E(RB3LYP) =  -728.881524963     A.U. after   12 cycles
 SCF Done:  E(RB3LYP) =  -728.881823474     A.U. after   13 cycles
 SCF Done:  E(RB3LYP) =  -728.882580540     A.U. after   11 cycles
 SCF Done:  E(RB3LYP) =  -728.882859362     A.U. after   12 cycles
 SCF Done:  E(RB3LYP) =  -728.882964317     A.U. after   11 cycles
 SCF Done:  E(RB3LYP) =  -728.883023322     A.U. after   10 cycles
 SCF Done:  E(RB3LYP) =  -728.883045250     A.U. after   11 cycles
 SCF Done:  E(RB3LYP) =  -728.883052127     A.U. after    9 cycles
 SCF Done:  E(RB3LYP) =  -728.883054313     A.U. after    8 cycles
 SCF Done:  E(RB3LYP) =  -728.883062633     A.U. after   10 cycles
 SCF Done:  E(RB3LYP) =  -728.883065380     A.U. after    9 cycles
 SCF Done:  E(RB3LYP) =  -728.883065629     A.U. after    9 cycles
 SCF Done:  E(RB3LYP) =  -728.883065884     A.U. after    7 cycles
 SCF Done:  E(RB3LYP) =  -728.883065882     A.U. after    6 cycles
 Optimization completed.
    -- Stationary point found.
 Normal termination of Gaussian 16 at Sun Dec 13 20:56:06 2020.

 --------------------------------------------------------------------
 #N Geom=AllCheck Guess=TCheck SCRF=Check GenChk RB3LYP/6-31G(d) Freq
 --------------------------------------------------------------------

 Structure from the checkpoint file:  "JID_7233.chk"
 -------------------------------
 CID_104997804_JID_7233_neutraal
 -------------------------------
 Charge =  0 Multiplicity = 1

 SCF Done:  E(RB3LYP) =  -728.883065882     A.U. after    1 cycles

  Exact polarizability: 162.395   3.978 166.010  -8.985   5.974 137.528
 Approx polarizability: 216.868   9.337 243.699 -20.534  11.551 214.405

                      1                      2                      3
                      A                      A                      A
 Frequencies --     17.6084                41.0422                44.2840
 Red. masses --      2.4337                 1.3991                 3.0056
 Frc consts  --      0.0004                 0.0014                 0.0035
 IR Inten    --      0.7092                 0.7341                 0.5651

                      4                      5                      6
                      A                      A                      A
 Frequencies --     54.8278                68.0327                93.8901
 Red. masses --      3.4384                 2.9023                 2.7212
 Frc consts  --      0.0061                 0.0079                 0.0141
 IR Inten    --      1.4325                 0.4174                 0.4734

                      7                      8                      9
                      A                      A                      A
 Frequencies --    123.9910               137.3426               160.3029
 Red. masses --      2.5954                 1.6551                 1.2522
 Frc consts  --      0.0235                 0.0184                 0.0190
 IR Inten    --      1.9519                 0.2061                 0.0442

                     10                     11                     12
                      A                      A                      A
 Frequencies --    172.5443               176.2703               187.8375
 Red. masses --      1.8216                 1.5314                 2.4817
 Frc consts  --      0.0320                 0.0280                 0.0516
 IR Inten    --      0.4240                 0.0472                 0.5875

                     13                     14                     15
                      A                      A                      A
 Frequencies --    193.1671               205.7654               209.3350
 Red. masses --      1.4542                 1.8761                 1.3953
 Frc consts  --      0.0320                 0.0468                 0.0360
 IR Inten    --      0.2461                 0.7492                 0.3804

                     16                     17                     18
                      A                      A                      A
 Frequencies --    252.1962               275.9715               285.5764
 Red. masses --      1.8524                 2.2929                 2.4530
 Frc consts  --      0.0694                 0.1029                 0.1179
 IR Inten    --      0.7381                 2.1765                 0.2508

                     19                     20                     21
                      A                      A                      A
 Frequencies --    308.5228               340.1570               366.6649
 Red. masses --      2.3550                 2.9454                 2.3241
 Frc consts  --      0.1321                 0.2008                 0.1841
 IR Inten    --      1.1374                 0.0949                 2.0754

                     22                     23                     24
                      A                      A                      A
 Frequencies --    378.3978               410.6719               420.6878
 Red. masses --      2.2222                 2.4109                 2.6988
 Frc consts  --      0.1875                 0.2396                 0.2814
 IR Inten    --      0.2234                 0.3345                 0.8197

                     25                     26                     27
                      A                      A                      A
 Frequencies --    431.7595               441.2636               539.4527
 Red. masses --      2.5996                 2.6621                 3.1854
 Frc consts  --      0.2855                 0.3054                 0.5462
 IR Inten    --      1.4060                 0.3941                 4.3714

                     28                     29                     30
                      A                      A                      A
 Frequencies --    542.8004               591.3479               657.4538
 Red. masses --      2.5372                 3.2746                 5.2766
 Frc consts  --      0.4404                 0.6747                 1.3438
 IR Inten    --      1.7817                 1.8386                 5.4169

                     31                     32                     33
                      A                      A                      A
 Frequencies --    664.3893               680.7016               723.7749
 Red. masses --      3.1813                 4.3278                 4.2811
 Frc consts  --      0.8274                 1.1815                 1.3213
 IR Inten    --      0.3692                 7.9078                11.0746

                     34                     35                     36
                      A                      A                      A
 Frequencies --    736.5259               790.1682               813.4351
 Red. masses --      3.5206                 4.4568                 1.8278
 Frc consts  --      1.1252                 1.6395                 0.7126
 IR Inten    --      2.8885                 6.7027               102.2982

                     37                     38                     39
                      A                      A                      A
 Frequencies --    870.3681               892.0615               927.0800
 Red. masses --      2.1226                 1.3740                 2.2788
 Frc consts  --      0.9474                 0.6442                 1.1540
 IR Inten    --      8.5977                 5.6436                21.1231

                     40                     41                     42
                      A                      A                      A
 Frequencies --    958.6887               963.8046               974.2652
 Red. masses --      2.6027                 1.8067                 1.4659
 Frc consts  --      1.4094                 0.9888                 0.8198
 IR Inten    --     13.4578                11.5294                 2.3007

                     43                     44                     45
                      A                      A                      A
 Frequencies --    987.0174               996.7519              1004.4482
 Red. masses --      1.3865                 3.3030                 1.8529
 Frc consts  --      0.7958                 1.9335                 1.1014
 IR Inten    --      1.8537                 3.6660                 1.6887

                     46                     47                     48
                      A                      A                      A
 Frequencies --   1021.4272              1031.4042              1036.3485
 Red. masses --      1.4326                 2.1168                 1.7007
 Frc consts  --      0.8806                 1.3267                 1.0762
 IR Inten    --      7.5017                 8.3627                 3.6471

                     49                     50                     51
                      A                      A                      A
 Frequencies --   1052.2620              1083.3048              1124.2133
 Red. masses --      1.6684                 1.3396                 1.7766
 Frc consts  --      1.0884                 0.9262                 1.3230
 IR Inten    --      5.6482                 2.1463                24.7103

                     52                     53                     54
                      A                      A                      A
 Frequencies --   1131.6357              1155.7836              1162.3837
 Red. masses --      2.3427                 1.7769                 1.3359
 Frc consts  --      1.7676                 1.3985                 1.0635
 IR Inten    --      6.1876                 8.8623                 2.4852

                     55                     56                     57
                      A                      A                      A
 Frequencies --   1165.5703              1175.5603              1182.4658
 Red. masses --      1.9697                 1.6535                 2.0413
 Frc consts  --      1.5766                 1.3463                 1.6816
 IR Inten    --     19.7593                18.5466                13.6642

                     58                     59                     60
                      A                      A                      A
 Frequencies --   1201.8351              1222.6347              1231.8525
 Red. masses --      2.1000                 2.3814                 1.9605
 Frc consts  --      1.7872                 2.0974                 1.7528
 IR Inten    --     40.0201                 9.5075                13.3162

                     61                     62                     63
                      A                      A                      A
 Frequencies --   1250.0883              1260.1624              1282.4999
 Red. masses --      2.6988                 1.4089                 1.8479
 Frc consts  --      2.4848                 1.3182                 1.7908
 IR Inten    --      1.8188                 6.7785                18.7255

                     64                     65                     66
                      A                      A                      A
 Frequencies --   1310.4912              1311.8824              1325.6782
 Red. masses --      3.1333                 3.3220                 3.0815
 Frc consts  --      3.1705                 3.3685                 3.1907
 IR Inten    --      1.2901                 6.9517                33.8936

                     67                     68                     69
                      A                      A                      A
 Frequencies --   1348.5033              1381.3779              1391.4705
 Red. masses --      1.4081                 1.3919                 1.9032
 Frc consts  --      1.5086                 1.5649                 2.1712
 IR Inten    --      2.8843                10.8179                 2.3613

                     70                     71                     72
                      A                      A                      A
 Frequencies --   1433.8674              1439.2012              1442.3383
 Red. masses --      1.3531                 3.8753                 1.2451
 Frc consts  --      1.6391                 4.7293                 1.5261
 IR Inten    --      0.6500                24.9958                 7.0008

                     73                     74                     75
                      A                      A                      A
 Frequencies --   1444.0644              1460.1027              1471.3149
 Red. masses --      1.2323                 1.2802                 1.3194
 Frc consts  --      1.5140                 1.6080                 1.6828
 IR Inten    --      0.7165                 5.4193                10.8222

                     76                     77                     78
                      A                      A                      A
 Frequencies --   1479.5503              1487.6441              1504.3318
 Red. masses --      1.2934                 1.7000                 1.0498
 Frc consts  --      1.6682                 2.2166                 1.3997
 IR Inten    --      5.6028                 4.8999                10.8442

                     79                     80                     81
                      A                      A                      A
 Frequencies --   1507.1314              1508.0051              1512.6982
 Red. masses --      1.1290                 1.0626                 1.0861
 Frc consts  --      1.5109                 1.4237                 1.4643
 IR Inten    --      2.3886                 1.6829                 2.8907

                     82                     83                     84
                      A                      A                      A
 Frequencies --   1517.6972              1521.7138              1523.4995
 Red. masses --      1.5282                 1.0595                 1.0603
 Frc consts  --      2.0740                 1.4455                 1.4499
 IR Inten    --     16.0050                 1.0232                 8.4455

                     85                     86                     87
                      A                      A                      A
 Frequencies --   1527.5888              1528.7651              1533.9250
 Red. masses --      1.0674                 1.0640                 1.0818
 Frc consts  --      1.4676                 1.4651                 1.4998
 IR Inten    --      2.1783                18.0955                15.8690

                     88                     89                     90
                      A                      A                      A
 Frequencies --   1537.3679              1545.9560              1547.9417
 Red. masses --      1.1380                 1.0635                 2.0883
 Frc consts  --      1.5848                 1.4976                 2.9481
 IR Inten    --     12.7970                 8.3374                18.0025

                     91                     92                     93
                      A                      A                      A
 Frequencies --   1556.8143              1559.5917              1569.2437
 Red. masses --      1.1771                 1.1121                 2.8283
 Frc consts  --      1.6809                 1.5937                 4.1036
 IR Inten    --      4.2390                11.9089                17.3535

                     94                     95                     96
                      A                      A                      A
 Frequencies --   2975.7148              3032.5868              3037.7805
 Red. masses --      1.0567                 1.0428                 1.0391
 Frc consts  --      5.5128                 5.6504                 5.6497
 IR Inten    --     80.8901                20.5774                54.3267

                     97                     98                     99
                      A                      A                      A
 Frequencies --   3041.8791              3049.6997              3068.6232
 Red. masses --      1.0405                 1.0425                 1.0771
 Frc consts  --      5.6727                 5.7128                 5.9757
 IR Inten    --     42.9077                36.1213                16.5029

                    100                    101                    102
                      A                      A                      A
 Frequencies --   3071.2055              3079.3462              3082.0910
 Red. masses --      1.0760                 1.0547                 1.0716
 Frc consts  --      5.9797                 5.8923                 5.9973
 IR Inten    --     45.1959                21.1307                18.9440

                    103                    104                    105
                      A                      A                      A
 Frequencies --   3083.1915              3089.6715              3094.5431
 Red. masses --      1.0780                 1.0995                 1.1011
 Frc consts  --      6.0378                 6.1838                 6.2127
 IR Inten    --     35.5261                63.8643                24.7742

                    106                    107                    108
                      A                      A                      A
 Frequencies --   3108.1562              3117.1416              3118.5055
 Red. masses --      1.0990                 1.1009                 1.0878
 Frc consts  --      6.2552                 6.3027                 6.2331
 IR Inten    --     29.0930                31.5405                13.7956

                    109                    110                    111
                      A                      A                      A
 Frequencies --   3121.1199              3127.4209              3139.5148
 Red. masses --      1.0999                 1.0993                 1.0974
 Frc consts  --      6.3131                 6.3351                 6.3727
 IR Inten    --     21.4874                21.9519                24.9578

                    112                    113                    114
                      A                      A                      A
 Frequencies --   3145.3664              3150.7984              3156.7967
 Red. masses --      1.0952                 1.1040                 1.0930
 Frc consts  --      6.3840                 6.4574                 6.4174
 IR Inten    --     36.0318                13.0463                39.6460

                    115                    116                    117
                      A                      A                      A
 Frequencies --   3189.5167              3273.5244              3480.6878
 Red. masses --      1.1022                 1.0970                 1.0732
 Frc consts  --      6.6064                 6.9263                 7.6605
 IR Inten    --      9.2659                 9.7550                10.9129

 - Thermochemistry -
 -------------------
 Temperature   298.150 Kelvin.  Pressure   1.00000 Atm.
 Atom     1 has atomic number  6 and mass  12.00000

 Molecular mass:   236.20010 amu.
 Principal axes and moments of inertia in atomic units:
                           1         2         3
     Eigenvalues --  2937.567504834.530576135.74566
           X            0.99994  -0.00500   0.00955
           Y            0.00501   0.99999  -0.00106
           Z           -0.00955   0.00111   0.99995
 This molecule is an asymmetric top.
 Rotational symmetry number  1.
 Warning -- assumption of classical behavior for rotation
           may cause significant error
 Rotational temperatures (Kelvin)      0.02948     0.01792     0.01412
 Rotational constants (GHZ):           0.61437     0.37330     0.29414
 Zero-point vibrational energy     962687.1 (Joules/Mol)
                                  230.08774 (Kcal/Mol)
 Warning -- explicit consideration of  29 degrees of freedom as
           vibrations may cause significant error
 Vibrational temperatures:     25.33    59.05    63.71    78.88    97.88
          (Kelvin)            135.09   178.40   197.61   230.64   248.25
                              253.61   270.26   277.92   296.05   301.19
                              362.85   397.06   410.88   443.90   489.41
                              527.55   544.43   590.87   605.28   621.21
                              634.88   776.15   780.97   850.82   945.93
                              955.91   979.38  1041.35  1059.70  1136.88
                             1170.35  1252.27  1283.48  1333.86  1379.34
                             1386.70  1401.75  1420.10  1434.10  1445.18
                             1469.61  1483.96  1491.07  1513.97  1558.63
                             1617.49  1628.17  1662.91  1672.41  1677.00
                             1691.37  1701.30  1729.17  1759.10  1772.36
                             1798.60  1813.09  1845.23  1885.50  1887.51
                             1907.36  1940.20  1987.49  2002.02  2063.02
                             2070.69  2075.20  2077.69  2100.76  2116.89
                             2128.74  2140.39  2164.40  2168.43  2169.68
                             2176.44  2183.63  2189.41  2191.98  2197.86
                             2199.55  2206.98  2211.93  2224.29  2227.14
                             2239.91  2243.90  2257.79  4281.39  4363.22
                             4370.69  4376.59  4387.84  4415.06  4418.78
                             4430.49  4434.44  4436.02  4445.35  4452.36
                             4471.94  4484.87  4486.83  4490.60  4499.66
                             4517.06  4525.48  4533.30  4541.93  4589.00
                             4709.87  5007.93

 Zero-point correction=                           0.366668 (Hartree/Particle)
 Thermal correction to Energy=                    0.386128
 Thermal correction to Enthalpy=                  0.387072
 Thermal correction to Gibbs Free Energy=         0.317971
 Sum of electronic and zero-point Energies=           -728.516398
 Sum of electronic and thermal Energies=              -728.496938
 Sum of electronic and thermal Enthalpies=            -728.495994
 Sum of electronic and thermal Free Energies=         -728.565094

                     E (Thermal)             CV                S
                      KCal/Mol        Cal/Mol-Kelvin    Cal/Mol-Kelvin
 Total                  242.299             71.520            145.435
 Electronic               0.000              0.000              0.000
 Translational            0.889              2.981             42.280
 Rotational               0.889              2.981             32.832
 Vibrational            240.522             65.559             70.322
 Vibration     1          0.593              1.986              6.887
 Vibration     2          0.594              1.981              5.208
 Vibration     3          0.595              1.980              5.058
 Vibration     4          0.596              1.976              4.635
 Vibration     5          0.598              1.969              4.209
 Vibration     6          0.603              1.954              3.577
 Vibration     7          0.610              1.929              3.037
 Vibration     8          0.614              1.916              2.841
 Vibration     9          0.622              1.891              2.546
 Vibration    10          0.626              1.876              2.408
 Vibration    11          0.628              1.872              2.368
 Vibration    12          0.633              1.857              2.249
 Vibration    13          0.635              1.849              2.197
 Vibration    14          0.640              1.832              2.081
 Vibration    15          0.642              1.826              2.049
 Vibration    16          0.664              1.759              1.715
 Vibration    17          0.678              1.718              1.559
 Vibration    18          0.683              1.700              1.500
 Vibration    19          0.698              1.657              1.370
 Vibration    20          0.720              1.595              1.211
 Vibration    21          0.740              1.541              1.094
 Vibration    22          0.749              1.516              1.046
 Vibration    23          0.775              1.447              0.924
 Vibration    24          0.783              1.425              0.890
 Vibration    25          0.793              1.401              0.853
 Vibration    26          0.801              1.380              0.823
 Vibration    27          0.895              1.163              0.566
 Vibration    28          0.898              1.155              0.559
 Vibration    29          0.949              1.050              0.465

 Optimization completed.
    -- Stationary point found.
 Normal termination of Gaussian 16 at Sun Dec 13 21:17:11 2020.

 ----------------------------------------------------------------------
 # B3LYP/6-311++G(d,p) empiricaldispersion=gd3bj scf=xqc pop=npa geom=c
 heck
 ----------------------------------------------------------------------

 ---------------------------------------
 CID_104997804_JID_7233_Energie_neutraal
 ---------------------------------------
 Structure from the checkpoint file:  "JID_7233.chk"
 Charge =  0 Multiplicity = 1

 SCF Done:  E(RB3LYP) =  -729.081537093     A.U. after   15 cycles
 Normal termination of Gaussian 16 at Sun Dec 13 21:27:17 2020.

 ----------------------------------------------------------------------
 # B3LYP/6-311++G(d,p) empiricaldispersion=gd3bj scf=xqc pop=npa geom=c
 heck
 ----------------------------------------------------------------------

 -------------------------------------
 CID_104997804_JID_7233_Energie_kation
 -------------------------------------
 Structure from the checkpoint file:  "JID_7233.chk"
 Charge =  1 Multiplicity = 2

 SCF Done:  E(UB3LYP) =  -728.790401039     A.U. after   25 cycles
 Normal termination of Gaussian 16 at Sun Dec 13 21:50:08 2020.
 Gaussian 16:  ES64L-G16RevA.03 25-Dec-2016

 ----------------------------------------------------------------------
 # B3LYP/6-311++G(d,p) empiricaldispersion=gd3bj scf=xqc pop=npa geom=c
 heck
 ----------------------------------------------------------------------

 ------------------------------------
 CID_104997804_JID_7233_Energie_anion
 ------------------------------------
 Structure from the checkpoint file:  "JID_7233.chk"
 Charge = -1 Multiplicity = 2

                         Standard orientation:
 ---------------------------------------------------------------------
 Center     Atomic      Atomic             Coordinates (Angstroms)
 Number     Number       Type             X           Y           Z
 ---------------------------------------------------------------------
      1          6           0        1.405485   -2.574887    0.292101
      2          6           0        1.711513   -1.194866   -0.271166
      3          6           0        0.915154   -0.013195    0.264184
      4          6           0        2.378143   -0.147674    0.625126
      5          6           0        2.717983   -0.492315    2.067055
      6          6           0        3.388610    0.832245    0.049231
      7          6           0        0.382596    1.118541   -0.591052
      8          6           0       -0.938037    0.680894   -1.305230
      9          6           0       -1.981207    0.260692   -0.326493
     10          7           0       -2.525687    1.065689    0.587792
     11          6           0       -3.348261    0.235658    1.286278
     12          7           0       -3.356538   -1.023202    0.878265
     13          7           0       -2.466906   -0.996568   -0.155896
     14          6           0       -2.203231   -2.221259   -0.884953
     15          7           0        0.264974    2.318580    0.232455
     16          6           0       -0.061714    3.531851   -0.506345
     17          6           0        2.072292   -1.276504   -1.746640
     18          1           0        1.007839   -2.538158    1.309005
     19          1           0        2.304167   -3.205053    0.304844
     20          1           0        0.660001   -3.084873   -0.331276
     21          1           0        0.229780   -0.264970    1.074787
     22          1           0        3.671766   -1.031806    2.132967
     23          1           0        2.816684    0.429409    2.653342
     24          1           0        1.952087   -1.103856    2.550437
     25          1           0        3.223379    1.068994   -1.003277
     26          1           0        3.343597    1.775300    0.604874
     27          1           0        4.405376    0.429523    0.139114
     28          1           0        1.092812    1.356270   -1.389791
     29          1           0       -1.327000    1.517593   -1.894986
     30          1           0       -0.711634   -0.126424   -2.006948
     31          1           0       -3.957455    0.567211    2.116147
     32          1           0       -1.924836   -3.006025   -0.178577
     33          1           0       -3.095640   -2.532280   -1.435585
     34          1           0       -1.381501   -2.058528   -1.581489
     35          1           0       -0.463002    2.156312    0.928462
     36          1           0       -1.033529    3.512692   -1.029708
     37          1           0       -0.077215    4.378053    0.187952
     38          1           0        0.720481    3.725133   -1.250586
     39          1           0        2.987997   -1.864782   -1.886465
     40          1           0        1.275232   -1.782022   -2.308569
     41          1           0        2.233754   -0.304288   -2.215576
 ---------------------------------------------------------------------

 SCF Done:  E(UB3LYP) =  -729.070464907     A.U. after   33 cycles
 SCF Done:  E(UB3LYP) =  -729.070464907     a.u. after    1 cycles

 The electronic state is 2-A.
 Alpha  occ. eigenvalues --  -14.30812 -14.24576 -14.21269 -14.19773 -10.15265
 Alpha  occ. eigenvalues --  -10.12949 -10.11972 -10.10944 -10.09177 -10.08790
 Alpha  occ. eigenvalues --  -10.08603 -10.08403 -10.07130 -10.06592 -10.06163
 Alpha  occ. eigenvalues --  -10.06025 -10.05882  -0.98723  -0.82090  -0.81036
 Alpha  occ. eigenvalues --   -0.77506  -0.75845  -0.67263  -0.65551  -0.63269
 Alpha  occ. eigenvalues --   -0.60966  -0.60369  -0.58126  -0.57714  -0.53579
 Alpha  occ. eigenvalues --   -0.52779  -0.48736  -0.46287  -0.42573  -0.41457
 Alpha  occ. eigenvalues --   -0.40190  -0.38700  -0.38199  -0.36657  -0.36395
 Alpha  occ. eigenvalues --   -0.35104  -0.34777  -0.33054  -0.32695  -0.32440
 Alpha  occ. eigenvalues --   -0.31621  -0.31144  -0.30066  -0.29798  -0.29699
 Alpha  occ. eigenvalues --   -0.29055  -0.28614  -0.28434  -0.28033  -0.27139
 Alpha  occ. eigenvalues --   -0.26554  -0.24560  -0.23032  -0.22979  -0.19839
 Alpha  occ. eigenvalues --   -0.19354  -0.17631  -0.16884  -0.16226  -0.12975
 Alpha  occ. eigenvalues --    0.04186
 Alpha virt. eigenvalues --    0.06565   0.06677   0.07387   0.08149   0.08521
 Alpha virt. eigenvalues --    0.08852   0.09060   0.09386   0.09577   0.10860
 Alpha virt. eigenvalues --    0.11139   0.11264   0.11573   0.11922   0.12157

  Beta  occ. eigenvalues --  -14.30806 -14.24568 -14.21267 -14.19772 -10.15259
  Beta  occ. eigenvalues --  -10.12949 -10.11917 -10.10935 -10.09162 -10.08765
  Beta  occ. eigenvalues --  -10.08600 -10.08399 -10.07129 -10.06580 -10.06133
  Beta  occ. eigenvalues --  -10.06004 -10.05835  -0.98712  -0.82080  -0.81026
  Beta  occ. eigenvalues --   -0.77497  -0.75827  -0.67230  -0.65517  -0.63220
  Beta  occ. eigenvalues --   -0.60926  -0.60321  -0.58090  -0.57656  -0.53569
  Beta  occ. eigenvalues --   -0.52752  -0.48690  -0.46258  -0.42531  -0.41398
  Beta  occ. eigenvalues --   -0.40157  -0.38673  -0.38171  -0.36625  -0.36366
  Beta  occ. eigenvalues --   -0.35080  -0.34753  -0.33023  -0.32661  -0.32399
  Beta  occ. eigenvalues --   -0.31586  -0.31110  -0.30039  -0.29765  -0.29674
  Beta  occ. eigenvalues --   -0.29024  -0.28589  -0.28399  -0.28000  -0.27104
  Beta  occ. eigenvalues --   -0.26530  -0.24540  -0.23013  -0.22953  -0.19818
  Beta  occ. eigenvalues --   -0.19342  -0.17610  -0.16868  -0.16202  -0.12965
  Beta virt. eigenvalues --    0.06374   0.07145   0.07463   0.07602   0.08370
  Beta virt. eigenvalues --    0.08706   0.09245   0.09359   0.09783   0.10012
  Beta virt. eigenvalues --    0.11033   0.11341   0.11574   0.11951   0.12087

 Mulliken charges and spin densities:
               1          2
     1  C   -0.169439  -0.308559
     2  C   -2.098679   1.603293
     3  C    0.422885  -0.575052
     4  C    0.661170  -0.131277
     5  C   -0.091649  -0.197348
     6  C   -0.066463  -0.347654
     7  C   -0.531153  -0.044129
     8  C    1.216360  -1.751074
     9  C   -1.572644   0.901797
    10  N   -0.036416   0.028426
    11  C    0.029627   0.173389
    12  N   -0.111031  -0.005693
    13  N    0.106314   0.123951
    14  C    1.270896  -1.548588
    15  N   -0.022540   0.117914
    16  C    0.138530  -0.463669
    17  C    0.964207  -1.560986
    18  H   -0.068556   0.188444
    19  H   -0.225198   0.402811
    20  H   -0.002490   0.133945
    21  H    0.503688  -0.226535
    22  H    0.061719   0.091568
    23  H    0.109774   0.031046
    24  H   -0.022438   0.145398
    25  H   -0.128798   0.249160
    26  H    0.186459  -0.039686
    27  H   -0.171748   0.340897
    28  H    0.866472  -0.626274
    29  H   -0.410858   0.623650
    30  H   -0.379918   0.511496
    31  H    0.106790   0.046959
    32  H   -0.230721   0.421615
    33  H   -0.377071   0.569920
    34  H   -0.111191   0.242082
    35  H    0.193225   0.037851
    36  H    0.068491   0.057387
    37  H    0.113035   0.017058
    38  H   -0.258119   0.395911
    39  H   -0.096228   0.271226
    40  H   -0.184559   0.335610
    41  H   -0.651737   0.763720
 Sum of Mulliken charges =  -1.00000   1.00000

 Dipole moment (field-independent basis, Debye):
    X=             -1.2283    Y=              3.7584    Z=              5.2161  Tot=              6.5454
 Quadrupole moment (field-independent basis, Debye-Ang):
   XX=           -169.4485   YY=           -162.9287   ZZ=           -152.8593
   XY=             -3.5301   XZ=              0.6764   YZ=             -3.2095

 Summary of Natural Population Analysis:

                                       Natural Population
                Natural  -----------------------------------------------
    Atom  No    Charge         Core      Valence    Rydberg      Total
 -----------------------------------------------------------------------
      C    1   -0.27951      0.99962     2.27354    0.00635     3.27951
      C    2   -0.03662      0.99951     2.02352    0.01359     3.03662
      C    3   -0.10973      0.99948     2.09805    0.01220     3.10973
      C    4   -0.03218      0.99951     2.02058    0.01209     3.03218
      C    5   -0.27966      0.99963     2.27387    0.00616     3.27966
      C    6   -0.28372      0.99962     2.27746    0.00664     3.28372
      C    7   -0.00620      0.99956     1.99159    0.01505     3.00620
      C    8   -0.22139      0.99957     2.21134    0.01048     3.22139
      C    9    0.20750      0.99959     1.77588    0.01704     2.79250
      N   10   -0.28399      0.99970     2.77534    0.00895     3.78399
      C   11    0.08887      0.99969     1.89340    0.01803     2.91113
      N   12   -0.16259      0.99973     2.65199    0.01087     3.66259
      N   13   -0.11391      0.99961     2.60163    0.01267     3.61391
      C   14   -0.17240      0.99963     2.16430    0.00848     3.17240
      N   15   -0.34128      0.99974     2.83150    0.01004     3.84128
      C   16   -0.17867      0.99966     2.17127    0.00775     3.17867
      C   17   -0.28366      0.99962     2.27730    0.00674     3.28366
      H   18    0.09881      0.00000     0.40011    0.00108     0.40119
      H   19    0.10031      0.00000     0.39866    0.00103     0.39969
      H   20    0.10060      0.00000     0.39811    0.00129     0.39940
      H   21    0.10191      0.00000     0.39635    0.00175     0.39809
      H   22    0.09813      0.00000     0.40107    0.00081     0.40187
      H   23    0.09876      0.00000     0.40041    0.00083     0.40124
      H   24    0.09963      0.00000     0.39960    0.00077     0.40037
      H   25    0.10212      0.00000     0.39688    0.00100     0.39788
      H   26    0.10283      0.00000     0.39614    0.00103     0.39717
      H   27    0.09846      0.00000     0.40062    0.00092     0.40154
      H   28    0.09967      0.00000     0.39780    0.00252     0.40033
      H   29    0.11368      0.00000     0.38492    0.00140     0.38632
      H   30    0.11374      0.00000     0.38420    0.00206     0.38626
      H   31    0.09044      0.00000     0.40881    0.00075     0.40956
      H   32    0.10655      0.00000     0.39193    0.00153     0.39345
      H   33    0.10297      0.00000     0.39569    0.00134     0.39703
      H   34    0.10767      0.00000     0.39013    0.00220     0.39233
      H   35    0.18246      0.00000     0.31490    0.00265     0.31754
      H   36    0.08091      0.00000     0.41794    0.00115     0.41909
      H   37    0.09216      0.00000     0.40714    0.00069     0.40784
      H   38    0.09149      0.00000     0.40762    0.00090     0.40851
      H   39    0.10278      0.00000     0.39592    0.00130     0.39722
      H   40    0.10147      0.00000     0.39653    0.00200     0.39853
      H   41    0.10161      0.00000     0.39672    0.00167     0.39839
 =======================================================================
   * Total *   -0.00000     16.99346    47.79076    0.21578    65.00000

 Normal termination of Gaussian 16 at Sun Dec 13 22:18:19 2020.
