 Gaussian 16, Revision A.03,

 -----------------------------------------------------------
 # opt freq B3LYP/6-31G(d) empiricaldispersion=gd3bj scf=xqc
 -----------------------------------------------------------

 -------------------------------
 CID_123552074_JID_5913_neutraal
 -------------------------------
 Symbolic Z-matrix:
 Charge =  0 Multiplicity = 1

 SCF Done:  E(RB3LYP) =  -733.385826269     A.U. after   14 cycles
 SCF Done:  E(RB3LYP) =  -733.391758816     A.U. after   12 cycles
 SCF Done:  E(RB3LYP) =  -733.393313057     A.U. after   12 cycles
 SCF Done:  E(RB3LYP) =  -733.393473846     A.U. after   12 cycles
 SCF Done:  E(RB3LYP) =  -733.393782504     A.U. after   11 cycles
 SCF Done:  E(RB3LYP) =  -733.393900683     A.U. after   11 cycles
 SCF Done:  E(RB3LYP) =  -733.393969573     A.U. after   11 cycles
 SCF Done:  E(RB3LYP) =  -733.394008046     A.U. after   10 cycles
 SCF Done:  E(RB3LYP) =  -733.394014362     A.U. after    9 cycles
 SCF Done:  E(RB3LYP) =  -733.394016682     A.U. after    9 cycles
 SCF Done:  E(RB3LYP) =  -733.394017794     A.U. after    8 cycles
 SCF Done:  E(RB3LYP) =  -733.394018313     A.U. after    8 cycles
 SCF Done:  E(RB3LYP) =  -733.394018522     A.U. after    8 cycles
 SCF Done:  E(RB3LYP) =  -733.394018619     A.U. after    7 cycles
 Optimization completed.
    -- Stationary point found.
 Normal termination of Gaussian 16 at Thu Dec 10 17:39:34 2020.

 --------------------------------------------------------------------
 #N Geom=AllCheck Guess=TCheck SCRF=Check GenChk RB3LYP/6-31G(d) Freq
 --------------------------------------------------------------------

 Structure from the checkpoint file:  "JID_5913.chk"
 -------------------------------
 CID_123552074_JID_5913_neutraal
 -------------------------------
 Charge =  0 Multiplicity = 1

 SCF Done:  E(RB3LYP) =  -733.394018619     A.U. after    1 cycles

  Exact polarizability: 146.663  -1.946 127.636   2.081   3.084 109.532
 Approx polarizability: 184.075  -6.352 177.527  -1.761   6.679 164.458

                      1                      2                      3
                      A                      A                      A
 Frequencies --     19.4482                29.1499                57.2050
 Red. masses --      3.5482                 4.6161                 3.9230
 Frc consts  --      0.0008                 0.0023                 0.0076
 IR Inten    --      0.2854                 1.1972                 1.5093

                      4                      5                      6
                      A                      A                      A
 Frequencies --     91.9963               100.4365               115.7178
 Red. masses --      3.3287                 3.9599                 2.5812
 Frc consts  --      0.0166                 0.0235                 0.0204
 IR Inten    --      0.0115                 0.2927                 0.5008

                      7                      8                      9
                      A                      A                      A
 Frequencies --    143.2174               152.6390               203.8030
 Red. masses --      1.2990                 3.1171                 3.7482
 Frc consts  --      0.0157                 0.0428                 0.0917
 IR Inten    --      0.0214                 0.7323                 3.0933

                     10                     11                     12
                      A                      A                      A
 Frequencies --    221.6730               229.0901               235.9182
 Red. masses --      2.1902                 1.4418                 1.0718
 Frc consts  --      0.0634                 0.0446                 0.0351
 IR Inten    --      2.5778                 1.6416                 2.7257

                     13                     14                     15
                      A                      A                      A
 Frequencies --    261.6416               271.5391               282.4153
 Red. masses --      1.2782                 1.8409                 1.4579
 Frc consts  --      0.0516                 0.0800                 0.0685
 IR Inten    --      0.8490                 8.0207                 0.8811

                     16                     17                     18
                      A                      A                      A
 Frequencies --    283.2263               303.7621               311.4193
 Red. masses --      1.7701                 2.0221                 2.8680
 Frc consts  --      0.0837                 0.1099                 0.1639
 IR Inten    --      1.0381                 0.7309                 8.4734

                     19                     20                     21
                      A                      A                      A
 Frequencies --    322.7861               336.0676               351.7222
 Red. masses --      1.3237                 2.1453                 2.9116
 Frc consts  --      0.0813                 0.1428                 0.2122
 IR Inten    --      4.8898                 0.0764                10.7722

                     22                     23                     24
                      A                      A                      A
 Frequencies --    383.7967               389.6807               419.0620
 Red. masses --      2.4155                 1.4749                 2.2918
 Frc consts  --      0.2096                 0.1320                 0.2371
 IR Inten    --      4.6154                80.2311                25.4183

                     25                     26                     27
                      A                      A                      A
 Frequencies --    432.3299               448.6785               483.1034
 Red. masses --      2.3273                 2.1262                 3.1854
 Frc consts  --      0.2563                 0.2522                 0.4380
 IR Inten    --     22.6193                 5.5606                 6.0280

                     28                     29                     30
                      A                      A                      A
 Frequencies --    500.2424               554.8832               622.7891
 Red. masses --      2.6203                 3.5228                 3.9830
 Frc consts  --      0.3863                 0.6391                 0.9102
 IR Inten    --      2.6660                 9.3082                33.9751

                     31                     32                     33
                      A                      A                      A
 Frequencies --    658.1641               757.7611               772.5377
 Red. masses --      3.5243                 4.3068                 4.2754
 Frc consts  --      0.8995                 1.4570                 1.5034
 IR Inten    --      5.5574                 1.0928                 6.6110

                     34                     35                     36
                      A                      A                      A
 Frequencies --    822.3849               879.2143               894.9936
 Red. masses --      3.5845                 3.2607                 3.1406
 Frc consts  --      1.4283                 1.4851                 1.4822
 IR Inten    --      0.2373                 6.1471                28.2699

                     37                     38                     39
                      A                      A                      A
 Frequencies --    924.1770               927.3965               930.8211
 Red. masses --      2.5788                 2.1425                 1.6699
 Frc consts  --      1.2977                 1.0857                 0.8524
 IR Inten    --     12.1422                 2.9708                 0.0544

                     40                     41                     42
                      A                      A                      A
 Frequencies --    940.4019               966.0373               979.8711
 Red. masses --      1.6233                 1.4161                 1.2006
 Frc consts  --      0.8458                 0.7786                 0.6792
 IR Inten    --      0.2606                 1.2449                 0.0255

                     43                     44                     45
                      A                      A                      A
 Frequencies --   1016.3717              1037.0369              1057.8307
 Red. masses --      1.7751                 1.9123                 2.3788
 Frc consts  --      1.0804                 1.2117                 1.5684
 IR Inten    --      3.3294                18.6893                72.3697

                     46                     47                     48
                      A                      A                      A
 Frequencies --   1062.4197              1063.5932              1070.8724
 Red. masses --      1.4059                 3.5663                 1.6972
 Frc consts  --      0.9350                 2.3769                 1.1467
 IR Inten    --      0.6322                69.6478                71.2310

                     49                     50                     51
                      A                      A                      A
 Frequencies --   1115.1440              1157.1899              1186.0299
 Red. masses --      4.3902                 1.7852                 1.2829
 Frc consts  --      3.2166                 1.4085                 1.0632
 IR Inten    --    254.5739                85.3019                 2.0053

                     52                     53                     54
                      A                      A                      A
 Frequencies --   1201.5160              1220.1437              1236.6881
 Red. masses --      2.1122                 1.5123                 2.2983
 Frc consts  --      1.7965                 1.3265                 2.0710
 IR Inten    --     95.6789                21.4129                62.5287

                     55                     56                     57
                      A                      A                      A
 Frequencies --   1248.9163              1280.6730              1286.4988
 Red. masses --      2.6794                 2.6444                 3.3977
 Frc consts  --      2.4624                 2.5554                 3.3132
 IR Inten    --     27.5811                45.8108               125.9038

                     58                     59                     60
                      A                      A                      A
 Frequencies --   1298.5161              1310.1361              1326.1394
 Red. masses --      2.3490                 1.6157                 1.5848
 Frc consts  --      2.3336                 1.6339                 1.6421
 IR Inten    --     12.4173                27.7158                33.9028

                     61                     62                     63
                      A                      A                      A
 Frequencies --   1377.4264              1409.2947              1422.2390
 Red. masses --      1.7374                 1.2579                 1.2808
 Frc consts  --      1.9421                 1.4720                 1.5264
 IR Inten    --     99.6499                 7.0734                11.9726

                     64                     65                     66
                      A                      A                      A
 Frequencies --   1425.6198              1432.6211              1446.8486
 Red. masses --      1.2724                 1.3032                 1.1927
 Frc consts  --      1.5237                 1.5759                 1.4710
 IR Inten    --      0.8265                15.8859                17.8425

                     67                     68                     69
                      A                      A                      A
 Frequencies --   1453.5688              1457.9362              1489.9640
 Red. masses --      1.2292                 1.2171                 1.1749
 Frc consts  --      1.5302                 1.5243                 1.5368
 IR Inten    --     30.1436                13.6657                 4.9640

                     70                     71                     72
                      A                      A                      A
 Frequencies --   1503.5788              1505.4389              1512.5568
 Red. masses --      1.1287                 1.0538                 1.0483
 Frc consts  --      1.5034                 1.4071                 1.4131
 IR Inten    --      6.9133                 0.9802                 5.9822

                     73                     74                     75
                      A                      A                      A
 Frequencies --   1515.8765              1520.5838              1523.2569
 Red. masses --      1.0672                 1.0465                 1.0528
 Frc consts  --      1.4449                 1.4256                 1.4393
 IR Inten    --      7.5764                 0.1010                 3.9225

                     76                     77                     78
                      A                      A                      A
 Frequencies --   1524.1655              1527.0203              1533.0692
 Red. masses --      1.0485                 1.0505                 1.0579
 Frc consts  --      1.4351                 1.4433                 1.4649
 IR Inten    --      8.0733                 0.6069                 1.0380

                     79                     80                     81
                      A                      A                      A
 Frequencies --   1534.8313              1536.9876              1548.9141
 Red. masses --      1.0504                 1.0536                 1.0603
 Frc consts  --      1.4579                 1.4665                 1.4988
 IR Inten    --      7.1106                 2.9598                12.3254

                     82                     83                     84
                      A                      A                      A
 Frequencies --   1559.2961              1807.9032              3050.4015
 Red. masses --      1.0559                10.5441                 1.0367
 Frc consts  --      1.5126                20.3054                 5.6833
 IR Inten    --     11.4653               218.0132                25.6190

                     85                     86                     87
                      A                      A                      A
 Frequencies --   3051.3427              3055.3401              3055.8150
 Red. masses --      1.0358                 1.0351                 1.0374
 Frc consts  --      5.6819                 5.6934                 5.7076
 IR Inten    --     19.8419                28.6178                 9.9367

                     88                     89                     90
                      A                      A                      A
 Frequencies --   3062.7745              3075.7254              3090.9594
 Red. masses --      1.0364                 1.0297                 1.0603
 Frc consts  --      5.7279                 5.7391                 5.9686
 IR Inten    --     14.8543                30.0828                 9.1233

                     91                     92                     93
                      A                      A                      A
 Frequencies --   3109.8198              3115.7734              3116.1133
 Red. masses --      1.0998                 1.1021                 1.1010
 Frc consts  --      6.2668                 6.3040                 6.2990
 IR Inten    --     24.0791                24.8206                17.7431

                     94                     95                     96
                      A                      A                      A
 Frequencies --   3122.1729              3130.0147              3131.4847
 Red. masses --      1.1011                 1.1024                 1.1031
 Frc consts  --      6.3241                 6.3632                 6.3732
 IR Inten    --     11.6549                48.3449                31.7783

                     97                     98                     99
                      A                      A                      A
 Frequencies --   3136.0377              3140.8556              3145.1746
 Red. masses --      1.0870                 1.1017                 1.1007
 Frc consts  --      6.2988                 6.4035                 6.4152
 IR Inten    --     22.3011                15.9228                23.3080

                    100                    101                    102
                      A                      A                      A
 Frequencies --   3149.4704              3149.6565              3149.7795
 Red. masses --      1.1021                 1.1038                 1.1065
 Frc consts  --      6.4407                 6.4516                 6.4682
 IR Inten    --     21.1864                12.7843                17.8303

                    103                    104                    105
                      A                      A                      A
 Frequencies --   3150.4213              3183.4712              3727.3243
 Red. masses --      1.1029                 1.1071                 1.0649
 Frc consts  --      6.4497                 6.6103                 8.7166
 IR Inten    --     10.4219                18.7723                11.8717

 - Thermochemistry -
 -------------------
 Temperature   298.150 Kelvin.  Pressure   1.00000 Atm.
 Atom     1 has atomic number  6 and mass  12.00000

 Molecular mass:   218.15181 amu.
 Principal axes and moments of inertia in atomic units:
                           1         2         3
     Eigenvalues --  2119.135584508.929505495.20056
           X            0.99979  -0.01870   0.00807
           Y            0.01854   0.99963   0.01986
           Z           -0.00844  -0.01971   0.99977
 This molecule is an asymmetric top.
 Rotational symmetry number  1.
 Warning -- assumption of classical behavior for rotation
           may cause significant error
 Rotational temperatures (Kelvin)      0.04087     0.01921     0.01576
 Rotational constants (GHZ):           0.85164     0.40026     0.32842
 Zero-point vibrational energy     860461.0 (Joules/Mol)
                                  205.65511 (Kcal/Mol)
 Warning -- explicit consideration of  29 degrees of freedom as
           vibrations may cause significant error
 Vibrational temperatures:     27.98    41.94    82.31   132.36   144.51
          (Kelvin)            166.49   206.06   219.61   293.23   318.94
                              329.61   339.43   376.44   390.68   406.33
                              407.50   437.05   448.06   464.42   483.53
                              506.05   552.20   560.66   602.94   622.03
                              645.55   695.08   719.74   798.35   896.05
                              946.95  1090.25  1111.51  1183.23  1264.99
                             1287.70  1329.68  1334.32  1339.24  1353.03
                             1389.91  1409.82  1462.33  1492.06  1521.98
                             1528.58  1530.27  1540.75  1604.44  1664.94
                             1706.43  1728.71  1755.51  1779.32  1796.91
                             1842.60  1850.98  1868.28  1884.99  1908.02
                             1981.81  2027.66  2046.28  2051.15  2061.22
                             2081.69  2091.36  2097.65  2143.73  2163.31
                             2165.99  2176.23  2181.01  2187.78  2191.63
                             2192.93  2197.04  2205.74  2208.28  2211.38
                             2228.54  2243.48  2601.17  4388.85  4390.20
                             4395.95  4396.64  4406.65  4425.28  4447.20
                             4474.34  4482.90  4483.39  4492.11  4503.39
                             4505.51  4512.06  4518.99  4525.20  4531.39
                             4531.65  4531.83  4532.75  4580.31  5362.79

 Zero-point correction=                           0.327732 (Hartree/Particle)
 Thermal correction to Energy=                    0.346035
 Thermal correction to Enthalpy=                  0.346979
 Thermal correction to Gibbs Free Energy=         0.281564
 Sum of electronic and zero-point Energies=           -733.066286
 Sum of electronic and thermal Energies=              -733.047984
 Sum of electronic and thermal Enthalpies=            -733.047040
 Sum of electronic and thermal Free Energies=         -733.112454

                     E (Thermal)             CV                S
                      KCal/Mol        Cal/Mol-Kelvin    Cal/Mol-Kelvin
 Total                  217.140             68.181            137.677
 Electronic               0.000              0.000              0.000
 Translational            0.889              2.981             42.043
 Rotational               0.889              2.981             32.329
 Vibrational            215.363             62.219             63.304
 Vibration     1          0.593              1.986              6.690
 Vibration     2          0.593              1.984              5.886
 Vibration     3          0.596              1.975              4.551
 Vibration     4          0.602              1.955              3.617
 Vibration     5          0.604              1.949              3.446
 Vibration     6          0.608              1.936              3.171
 Vibration     7          0.616              1.910              2.760
 Vibration     8          0.619              1.900              2.639
 Vibration     9          0.639              1.834              2.098
 Vibration    10          0.648              1.808              1.945
 Vibration    11          0.652              1.797              1.886
 Vibration    12          0.655              1.786              1.833
 Vibration    13          0.669              1.743              1.651
 Vibration    14          0.675              1.726              1.586
 Vibration    15          0.681              1.706              1.519
 Vibration    16          0.682              1.705              1.514
 Vibration    17          0.695              1.667              1.396
 Vibration    18          0.700              1.652              1.355
 Vibration    19          0.708              1.630              1.296
 Vibration    20          0.717              1.603              1.231
 Vibration    21          0.728              1.572              1.158
 Vibration    22          0.753              1.505              1.024
 Vibration    23          0.758              1.492              1.001
 Vibration    24          0.782              1.429              0.895
 Vibration    25          0.793              1.400              0.851
 Vibration    26          0.808              1.364              0.800
 Vibration    27          0.839              1.288              0.702
 Vibration    28          0.856              1.249              0.658
 Vibration    29          0.910              1.129              0.534

                           ! Non-Optimized Parameters !
 Normal termination of Gaussian 16 at Thu Dec 10 17:52:39 2020.

 ----------------------------------------------------------------------
 # B3LYP/6-311++G(d,p) empiricaldispersion=gd3bj scf=xqc pop=npa geom=c
 heck
 ----------------------------------------------------------------------

 ---------------------------------------
 CID_123552074_JID_5913_Energie_neutraal
 ---------------------------------------
 Structure from the checkpoint file:  "JID_5913.chk"
 Charge =  0 Multiplicity = 1

 SCF Done:  E(RB3LYP) =  -733.616811881     A.U. after   14 cycles
 Normal termination of Gaussian 16 at Thu Dec 10 17:58:55 2020.

 ----------------------------------------------------------------------
 # B3LYP/6-311++G(d,p) empiricaldispersion=gd3bj scf=xqc pop=npa geom=c
 heck
 ----------------------------------------------------------------------

 -------------------------------------
 CID_123552074_JID_5913_Energie_kation
 -------------------------------------
 Structure from the checkpoint file:  "JID_5913.chk"
 Charge =  1 Multiplicity = 2

 SCF Done:  E(UB3LYP) =  -733.280929292     A.U. after   29 cycles
 Normal termination of Gaussian 16 at Thu Dec 10 18:17:58 2020.
 Gaussian 16:  ES64L-G16RevA.03 25-Dec-2016

 ----------------------------------------------------------------------
 # B3LYP/6-311++G(d,p) empiricaldispersion=gd3bj scf=xqc pop=npa geom=c
 heck
 ----------------------------------------------------------------------

 ------------------------------------
 CID_123552074_JID_5913_Energie_anion
 ------------------------------------
 Structure from the checkpoint file:  "JID_5913.chk"
 Charge = -1 Multiplicity = 2

                         Standard orientation:
 ---------------------------------------------------------------------
 Center     Atomic      Atomic             Coordinates (Angstroms)
 Number     Number       Type             X           Y           Z
 ---------------------------------------------------------------------
      1          6           0        1.933316   -1.775593   -1.021321
      2          6           0        2.426373   -0.828650    0.075690
      3          6           0        2.662423   -1.599542    1.376075
      4          6           0        3.701227   -0.095153   -0.359214
      5          8           0        1.418513    0.152418    0.449354
      6          6           0        0.574767    0.701376   -0.523820
      7          6           0       -0.592344    1.394188    0.227130
      8          6           0       -0.052549    2.506408    1.140929
      9          6           0       -1.561964    1.988391   -0.805215
     10          6           0       -1.320484    0.355029    1.126417
     11          6           0       -2.011174   -0.734893    0.341937
     12          8           0       -1.464261   -1.668008   -0.212929
     13          8           0       -3.348704   -0.541662    0.295514
     14          6           0       -4.079432   -1.507761   -0.476084
     15          8           0        1.263015    1.591268   -1.390258
     16          1           0        2.653274   -2.592099   -1.141416
     17          1           0        1.847062   -1.266793   -1.986683
     18          1           0        0.960627   -2.199483   -0.756468
     19          1           0        3.471262   -2.327786    1.254646
     20          1           0        2.934702   -0.908176    2.180370
     21          1           0        1.752341   -2.131843    1.670604
     22          1           0        3.524169    0.467671   -1.278883
     23          1           0        4.021251    0.600727    0.424354
     24          1           0        4.514074   -0.808558   -0.536819
     25          1           0        0.170177   -0.064841   -1.186818
     26          1           0        0.445795    3.287990    0.555222
     27          1           0       -0.872468    2.987305    1.685237
     28          1           0        0.661936    2.106917    1.865937
     29          1           0       -1.941110    1.221228   -1.490128
     30          1           0       -2.423174    2.446649   -0.306959
     31          1           0       -1.057080    2.747442   -1.407976
     32          1           0       -0.581402   -0.117108    1.777297
     33          1           0       -2.062894    0.873339    1.739223
     34          1           0       -3.741263   -1.501526   -1.515699
     35          1           0       -3.940241   -2.511198   -0.065694
     36          1           0       -5.124681   -1.205606   -0.409480
     37          1           0        1.758197    2.200824   -0.818470
 ---------------------------------------------------------------------

 SCF Done:  E(UB3LYP) =  -733.602013936     A.U. after   32 cycles

 The electronic state is 2-A.
 Alpha  occ. eigenvalues --  -19.07619 -19.02969 -19.02786 -19.01873 -10.20743
 Alpha  occ. eigenvalues --  -10.16701 -10.13813 -10.12714 -10.09873 -10.08355
 Alpha  occ. eigenvalues --  -10.06445 -10.06422 -10.06216 -10.06173 -10.06135
 Alpha  occ. eigenvalues --   -1.01550  -0.97077  -0.92674  -0.90571  -0.73853
 Alpha  occ. eigenvalues --   -0.70267  -0.65669  -0.60380  -0.60075  -0.59693
 Alpha  occ. eigenvalues --   -0.59486  -0.57185  -0.48473  -0.48016  -0.46040
 Alpha  occ. eigenvalues --   -0.41713  -0.40587  -0.39953  -0.39059  -0.38506
 Alpha  occ. eigenvalues --   -0.37709  -0.35444  -0.35285  -0.33773  -0.33173
 Alpha  occ. eigenvalues --   -0.32679  -0.31564  -0.30202  -0.29905  -0.29517
 Alpha  occ. eigenvalues --   -0.28806  -0.28518  -0.27880  -0.27338  -0.27082
 Alpha  occ. eigenvalues --   -0.26849  -0.25482  -0.25171  -0.24398  -0.24039
 Alpha  occ. eigenvalues --   -0.21778  -0.20772  -0.19559  -0.18248  -0.17406
 Alpha  occ. eigenvalues --    0.04270
 Alpha virt. eigenvalues --    0.05855   0.06643   0.07755   0.08257   0.08775
 Alpha virt. eigenvalues --    0.08895   0.09165   0.09709   0.09737   0.10183
 Alpha virt. eigenvalues --    0.11171   0.11378   0.11573   0.12199   0.12706

  Beta  occ. eigenvalues --  -19.07612 -19.02950 -19.02779 -19.01866 -10.20739
  Beta  occ. eigenvalues --  -10.16697 -10.13812 -10.12667 -10.09872 -10.08345
  Beta  occ. eigenvalues --  -10.06411 -10.06402 -10.06196 -10.06160 -10.06110
  Beta  occ. eigenvalues --   -1.01536  -0.97057  -0.92660  -0.90543  -0.73838
  Beta  occ. eigenvalues --   -0.70251  -0.65629  -0.60349  -0.60024  -0.59650
  Beta  occ. eigenvalues --   -0.59437  -0.57148  -0.48426  -0.47980  -0.46002
  Beta  occ. eigenvalues --   -0.41687  -0.40557  -0.39928  -0.39025  -0.38474
  Beta  occ. eigenvalues --   -0.37684  -0.35416  -0.35259  -0.33742  -0.33142
  Beta  occ. eigenvalues --   -0.32651  -0.31538  -0.30179  -0.29878  -0.29492
  Beta  occ. eigenvalues --   -0.28777  -0.28491  -0.27853  -0.27317  -0.27060
  Beta  occ. eigenvalues --   -0.26815  -0.25458  -0.25150  -0.24372  -0.24017
  Beta  occ. eigenvalues --   -0.21758  -0.20754  -0.19539  -0.18235  -0.17384
  Beta virt. eigenvalues --    0.06230   0.06913   0.07352   0.08135   0.08701
  Beta virt. eigenvalues --    0.08975   0.09292   0.09459   0.09944   0.10144
  Beta virt. eigenvalues --    0.10746   0.11445   0.11635   0.11896   0.12325

 Mulliken charges and spin densities:
               1          2
     1  C    0.108583  -0.703505
     2  C   -0.797835   1.059313
     3  C    0.245629  -0.640893
     4  C    0.170426  -0.751101
     5  O    0.085645   0.024354
     6  C   -0.707283  -0.557669
     7  C   -1.446158   2.063047
     8  C    1.214313  -1.451360
     9  C    0.443808  -1.033399
    10  C    1.554220  -1.912038
    11  C   -1.374101   1.034444
    12  O   -0.253197   0.031855
    13  O   -0.081363   0.071552
    14  C    1.032131  -1.239194
    15  O   -0.057192  -0.033392
    16  H   -0.001225   0.167375
    17  H    0.044186   0.130135
    18  H    0.148036   0.052467
    19  H   -0.022526   0.151897
    20  H   -0.029258   0.178913
    21  H   -0.037437   0.191730
    22  H   -0.033359   0.198892
    23  H   -0.107452   0.257602
    24  H   -0.153920   0.294460
    25  H    0.364578  -0.048850
    26  H   -0.194933   0.328419
    27  H   -0.245310   0.421824
    28  H    0.005462   0.160355
    29  H    0.003200   0.147677
    30  H   -0.015011   0.181750
    31  H   -0.017617   0.203337
    32  H    0.241571  -0.049464
    33  H   -0.113661   0.332824
    34  H   -0.167479   0.336528
    35  H   -0.234050   0.407374
    36  H   -0.620267   0.780025
    37  H    0.048847   0.212716
 Sum of Mulliken charges =  -1.00000   1.00000

 Dipole moment (field-independent basis, Debye):
    X=              2.7272    Y=             -0.5411    Z=              0.0671  Tot=              2.7812
 Quadrupole moment (field-independent basis, Debye-Ang):
   XX=           -179.7361   YY=           -142.8143   ZZ=           -128.5950
   XY=             -5.7511   XZ=             -2.8871   YZ=             -2.8728

 Summary of Natural Population Analysis:

                                       Natural Population
                Natural  -----------------------------------------------
    Atom  No    Charge         Core      Valence    Rydberg      Total
 -----------------------------------------------------------------------
      C    1   -0.30811      0.99960     2.30327    0.00524     3.30811
      C    2    0.13457      0.99954     1.85098    0.01491     2.86543
      C    3   -0.28707      0.99960     2.28154    0.00592     3.28707
      C    4   -0.29904      0.99960     2.29237    0.00707     3.29904
      O    5   -0.32126      0.99986     3.30973    0.01167     4.32126
      C    6    0.21650      0.99948     1.76381    0.02021     2.78350
      C    7   -0.04947      0.99955     2.03660    0.01332     3.04947
      C    8   -0.29060      0.99962     2.28257    0.00840     3.29060
      C    9   -0.28808      0.99962     2.28086    0.00761     3.28808
      C   10   -0.23674      0.99953     2.22668    0.01053     3.23674
      C   11    0.41356      0.99968     1.56051    0.02625     2.58644
      O   12   -0.31139      0.99987     3.30594    0.00558     4.31139
      O   13   -0.27679      0.99986     3.26750    0.00943     4.27679
      C   14   -0.10487      0.99959     2.09618    0.00909     3.10487
      O   15   -0.37542      0.99990     3.36965    0.00587     4.37542
      H   16    0.10241      0.00000     0.39681    0.00078     0.39759
      H   17    0.10310      0.00000     0.39606    0.00085     0.39690
      H   18    0.11666      0.00000     0.38210    0.00124     0.38334
      H   19    0.09792      0.00000     0.40120    0.00087     0.40208
      H   20    0.10321      0.00000     0.39578    0.00101     0.39679
      H   21    0.10357      0.00000     0.39535    0.00108     0.39643
      H   22    0.10742      0.00000     0.39152    0.00106     0.39258
      H   23    0.10202      0.00000     0.39683    0.00115     0.39798
      H   24    0.09806      0.00000     0.40100    0.00093     0.40194
      H   25    0.08654      0.00000     0.41079    0.00267     0.41346
      H   26    0.09921      0.00000     0.39944    0.00135     0.40079
      H   27    0.10230      0.00000     0.39658    0.00112     0.39770
      H   28    0.10902      0.00000     0.38949    0.00149     0.39098
      H   29    0.10092      0.00000     0.39805    0.00103     0.39908
      H   30    0.10219      0.00000     0.39679    0.00103     0.39781
      H   31    0.10787      0.00000     0.39107    0.00106     0.39213
      H   32    0.12209      0.00000     0.37665    0.00126     0.37791
      H   33    0.11081      0.00000     0.38760    0.00160     0.38919
      H   34    0.09202      0.00000     0.40660    0.00139     0.40798
      H   35    0.09185      0.00000     0.40682    0.00133     0.40815
      H   36    0.09454      0.00000     0.40346    0.00200     0.40546
      H   37    0.23047      0.00000     0.26632    0.00321     0.26953
 =======================================================================
   * Total *   -0.00000     14.99490    44.81450    0.19060    60.00000

 Normal termination of Gaussian 16 at Thu Dec 10 18:37:46 2020.
