 Gaussian 16, Revision A.03,

 -----------------------------------------------------------
 # opt freq B3LYP/6-31G(d) empiricaldispersion=gd3bj scf=xqc
 -----------------------------------------------------------

 ------------------------------
 CID_23270908_JID_4912_neutraal
 ------------------------------
 Symbolic Z-matrix:
 Charge =  0 Multiplicity = 1

 SCF Done:  E(RB3LYP) =  -1122.37266053     A.U. after   14 cycles
 SCF Done:  E(RB3LYP) =  -1122.37611033     A.U. after   13 cycles
 SCF Done:  E(RB3LYP) =  -1122.37249726     A.U. after   13 cycles
 SCF Done:  E(RB3LYP) =  -1122.37653177     A.U. after   13 cycles
 SCF Done:  E(RB3LYP) =  -1122.37800565     A.U. after   13 cycles
 SCF Done:  E(RB3LYP) =  -1122.37891776     A.U. after   12 cycles
 SCF Done:  E(RB3LYP) =  -1122.37860644     A.U. after   13 cycles
 SCF Done:  E(RB3LYP) =  -1122.37984188     A.U. after   13 cycles
 SCF Done:  E(RB3LYP) =  -1122.38069831     A.U. after   12 cycles
 SCF Done:  E(RB3LYP) =  -1122.38114054     A.U. after   14 cycles
 SCF Done:  E(RB3LYP) =  -1122.38317398     A.U. after   11 cycles
 SCF Done:  E(RB3LYP) =  -1122.38317725     A.U. after   10 cycles
 SCF Done:  E(RB3LYP) =  -1122.38317815     A.U. after    9 cycles
 SCF Done:  E(RB3LYP) =  -1122.38317889     A.U. after    9 cycles
 SCF Done:  E(RB3LYP) =  -1122.38317906     A.U. after    8 cycles
 Optimization completed.
    -- Stationary point found.
 Normal termination of Gaussian 16 at Thu Dec 10 10:52:27 2020.

 --------------------------------------------------------------------
 #N Geom=AllCheck Guess=TCheck SCRF=Check GenChk RB3LYP/6-31G(d) Freq
 --------------------------------------------------------------------

 Structure from the checkpoint file:  "JID_4912.chk"
 ------------------------------
 CID_23270908_JID_4912_neutraal
 ------------------------------
 Charge =  0 Multiplicity = 1

 SCF Done:  E(RB3LYP) =  -1122.38317906     A.U. after    1 cycles

  Exact polarizability: 123.424  -2.866 104.899  -1.662  -2.812  85.314
 Approx polarizability: 174.070  -6.292 161.741  -4.229 -11.845 138.962

                      1                      2                      3
                      A                      A                      A
 Frequencies --     38.1221                45.5679                61.4051
 Red. masses --      8.8842                 8.8903                 6.5752
 Frc consts  --      0.0076                 0.0109                 0.0146
 IR Inten    --      1.8519                 0.1606                 1.3122

                      4                      5                      6
                      A                      A                      A
 Frequencies --     74.5522                86.4923               107.5569
 Red. masses --      8.1120                 7.0347                 7.2776
 Frc consts  --      0.0266                 0.0310                 0.0496
 IR Inten    --      1.1436                 3.5817                 0.7150

                      7                      8                      9
                      A                      A                      A
 Frequencies --    134.4629               167.7291               202.4847
 Red. masses --      5.7103                 7.3488                 5.0052
 Frc consts  --      0.0608                 0.1218                 0.1209
 IR Inten    --      1.5033                 0.9755                 2.5195

                     10                     11                     12
                      A                      A                      A
 Frequencies --    210.4408               253.0864               264.6742
 Red. masses --      8.8202                 1.4888                 2.0960
 Frc consts  --      0.2301                 0.0562                 0.0865
 IR Inten    --      1.3026                 0.2593                 1.0249

                     13                     14                     15
                      A                      A                      A
 Frequencies --    316.1328               320.8277               356.0397
 Red. masses --      3.3247                 5.9168                 2.6066
 Frc consts  --      0.1958                 0.3588                 0.1947
 IR Inten    --      0.4850                 2.2593                 3.5688

                     16                     17                     18
                      A                      A                      A
 Frequencies --    367.3934               425.2709               505.2106
 Red. masses --      7.9268                 2.2236                 2.2072
 Frc consts  --      0.6304                 0.2369                 0.3319
 IR Inten    --      0.1273                 5.4673                 1.7227

                     19                     20                     21
                      A                      A                      A
 Frequencies --    538.2047               558.2907               562.1476
 Red. masses --      2.6956                 3.1259                 3.2845
 Frc consts  --      0.4601                 0.5740                 0.6115
 IR Inten    --     35.0415                53.9347                17.1669

                     22                     23                     24
                      A                      A                      A
 Frequencies --    602.4279               622.8074               625.5089
 Red. masses --      1.9305                 3.1437                 2.2079
 Frc consts  --      0.4128                 0.7185                 0.5090
 IR Inten    --     72.4647                69.1433                73.4909

                     25                     26                     27
                      A                      A                      A
 Frequencies --    683.7222               698.9230               706.3804
 Red. masses --      1.4647                 2.1461                 2.8055
 Frc consts  --      0.4034                 0.6177                 0.8248
 IR Inten    --     96.0400                77.0960                46.3209

                     28                     29                     30
                      A                      A                      A
 Frequencies --    775.1139               802.7233               819.4670
 Red. masses --      4.0666                 5.1581                 4.2346
 Frc consts  --      1.4395                 1.9583                 1.6754
 IR Inten    --     10.2724                19.5609                20.8716

                     31                     32                     33
                      A                      A                      A
 Frequencies --    894.5553               900.3955               913.8509
 Red. masses --      4.0481                 3.1615                 2.0407
 Frc consts  --      1.9086                 1.5101                 1.0041
 IR Inten    --      1.6263                 6.9475                 2.9127

                     34                     35                     36
                      A                      A                      A
 Frequencies --    933.7874               991.1741              1109.2305
 Red. masses --      2.4901                 1.8438                 1.7607
 Frc consts  --      1.2793                 1.0672                 1.2764
 IR Inten    --      5.2875                10.4842               101.4281

                     37                     38                     39
                      A                      A                      A
 Frequencies --   1133.7687              1161.2861              1171.6386
 Red. masses --      2.0718                 1.8000                 2.5934
 Frc consts  --      1.5691                 1.4302                 2.0975
 IR Inten    --    121.1913                56.4560               328.2251

                     40                     41                     42
                      A                      A                      A
 Frequencies --   1191.9263              1252.9048              1257.0404
 Red. masses --      2.5603                 1.8819                 1.5317
 Frc consts  --      2.1431                 1.7405                 1.4260
 IR Inten    --    173.8302                16.9698               138.9667

                     43                     44                     45
                      A                      A                      A
 Frequencies --   1288.1836              1302.2080              1345.0216
 Red. masses --      1.2455                 1.3951                 1.4856
 Frc consts  --      1.2177                 1.3938                 1.5835
 IR Inten    --      1.7827                 1.6560                 1.8624

                     46                     47                     48
                      A                      A                      A
 Frequencies --   1395.1857              1400.0845              1432.6581
 Red. masses --      2.3929                 2.5125                 1.6716
 Frc consts  --      2.7444                 2.9018                 2.0215
 IR Inten    --    120.1071                18.9223                58.7353

                     49                     50                     51
                      A                      A                      A
 Frequencies --   1445.9021              1472.7677              1495.7950
 Red. masses --      1.5439                 1.0942                 1.1256
 Frc consts  --      1.9017                 1.3983                 1.4838
 IR Inten    --     49.3717                41.9132                13.3631

                     52                     53                     54
                      A                      A                      A
 Frequencies --   1523.1395              1536.4580              1811.3344
 Red. masses --      1.0511                 1.0609                 9.7601
 Frc consts  --      1.4368                 1.4756                18.8669
 IR Inten    --      8.4365                24.0144               236.6534

                     55                     56                     57
                      A                      A                      A
 Frequencies --   1831.8182              1839.6391              3077.0371
 Red. masses --      9.3555                 9.5560                 1.0374
 Frc consts  --     18.4962                19.0543                 5.7872
 IR Inten    --    194.2742               266.9228                10.8217

                     58                     59                     60
                      A                      A                      A
 Frequencies --   3095.5371              3108.1512              3138.8973
 Red. masses --      1.0625                 1.0579                 1.1001
 Frc consts  --      5.9986                 6.0216                 6.3863
 IR Inten    --      9.2739                 6.6250                11.4123

                     61                     62                     63
                      A                      A                      A
 Frequencies --   3152.4250              3171.8496              3173.1198
 Red. masses --      1.1005                 1.1032                 1.1092
 Frc consts  --      6.4434                 6.5390                 6.5799
 IR Inten    --     10.0837                 3.2487                 5.0155

                     64                     65                     66
                      A                      A                      A
 Frequencies --   3682.9604              3684.3180              3689.0381
 Red. masses --      1.0640                 1.0639                 1.0640
 Frc consts  --      8.5029                 8.5090                 8.5311
 IR Inten    --     53.3238                57.9458                64.2490

 - Thermochemistry -
 -------------------
 Temperature   298.150 Kelvin.  Pressure   1.00000 Atm.
 Atom     1 has atomic number  6 and mass  12.00000

 Molecular mass:   222.01981 amu.
 Principal axes and moments of inertia in atomic units:
                           1         2         3
     Eigenvalues --  2205.620883951.376464965.45571
           X            0.99992  -0.00500   0.01134
           Y            0.00497   0.99998   0.00273
           Z           -0.01135  -0.00267   0.99993
 This molecule is an asymmetric top.
 Rotational symmetry number  1.
 Warning -- assumption of classical behavior for rotation
           may cause significant error
 Rotational temperatures (Kelvin)      0.03927     0.02192     0.01744
 Rotational constants (GHZ):           0.81825     0.45674     0.36346
 Zero-point vibrational energy     472155.6 (Joules/Mol)
                                  112.84790 (Kcal/Mol)
 Warning -- explicit consideration of  22 degrees of freedom as
           vibrations may cause significant error
 Vibrational temperatures:     54.85    65.56    88.35   107.26   124.44
          (Kelvin)            154.75   193.46   241.32   291.33   302.78
                              364.13   380.81   454.84   461.60   512.26
                              528.60   611.87   726.89   774.36   803.26
                              808.81   866.76   896.08   899.97   983.72
                             1005.59  1016.32  1115.22  1154.94  1179.03
                             1287.07  1295.47  1314.83  1343.51  1426.08
                             1595.94  1631.24  1670.83  1685.73  1714.92
                             1802.65  1808.60  1853.41  1873.59  1935.19
                             2007.36  2014.41  2061.28  2080.33  2118.98
                             2152.12  2191.46  2210.62  2606.11  2635.58
                             2646.83  4427.17  4453.79  4471.94  4516.17
                             4535.64  4563.58  4565.41  5298.96  5300.91
                             5307.70

 Zero-point correction=                           0.179835 (Hartree/Particle)
 Thermal correction to Energy=                    0.194832
 Thermal correction to Enthalpy=                  0.195777
 Thermal correction to Gibbs Free Energy=         0.136439
 Sum of electronic and zero-point Energies=          -1122.203344
 Sum of electronic and thermal Energies=             -1122.188347
 Sum of electronic and thermal Enthalpies=           -1122.187402
 Sum of electronic and thermal Free Energies=        -1122.246740

                     E (Thermal)             CV                S
                      KCal/Mol        Cal/Mol-Kelvin    Cal/Mol-Kelvin
 Total                  122.259             53.663            124.886
 Electronic               0.000              0.000              0.000
 Translational            0.889              2.981             42.095
 Rotational               0.889              2.981             32.137
 Vibrational            120.482             47.702             50.654
 Vibration     1          0.594              1.982              5.354
 Vibration     2          0.595              1.979              5.001
 Vibration     3          0.597              1.973              4.412
 Vibration     4          0.599              1.966              4.029
 Vibration     5          0.601              1.959              3.738
 Vibration     6          0.606              1.943              3.313
 Vibration     7          0.613              1.919              2.881
 Vibration     8          0.624              1.882              2.461
 Vibration     9          0.639              1.836              2.110
 Vibration    10          0.643              1.825              2.040
 Vibration    11          0.664              1.758              1.709
 Vibration    12          0.671              1.738              1.631
 Vibration    13          0.703              1.643              1.330
 Vibration    14          0.706              1.634              1.306
 Vibration    15          0.732              1.563              1.139
 Vibration    16          0.740              1.539              1.091
 Vibration    17          0.787              1.415              0.874
 Vibration    18          0.860              1.238              0.645
 Vibration    19          0.893              1.166              0.569
 Vibration    20          0.914              1.122              0.527
 Vibration    21          0.918              1.113              0.520
 Vibration    22          0.961              1.027              0.445

 Optimization completed.
    -- Stationary point found.
 Normal termination of Gaussian 16 at Thu Dec 10 10:59:00 2020.

 ----------------------------------------------------------------------
 # B3LYP/6-311++G(d,p) empiricaldispersion=gd3bj scf=xqc pop=npa geom=c
 heck
 ----------------------------------------------------------------------

 --------------------------------------
 CID_23270908_JID_4912_Energie_neutraal
 --------------------------------------
 Structure from the checkpoint file:  "JID_4912.chk"
 Charge =  0 Multiplicity = 1

 SCF Done:  E(RB3LYP) =  -1122.65314781     A.U. after   15 cycles
 Normal termination of Gaussian 16 at Thu Dec 10 11:01:55 2020.

 ----------------------------------------------------------------------
 # B3LYP/6-311++G(d,p) empiricaldispersion=gd3bj scf=xqc pop=npa geom=c
 heck
 ----------------------------------------------------------------------

 ------------------------------------
 CID_23270908_JID_4912_Energie_kation
 ------------------------------------
 Structure from the checkpoint file:  "JID_4912.chk"
 Charge =  1 Multiplicity = 2

 SCF Done:  E(UB3LYP) =  -1122.32633741     A.U. after   23 cycles
 Normal termination of Gaussian 16 at Thu Dec 10 11:06:51 2020.
 Gaussian 16:  ES64L-G16RevA.03 25-Dec-2016

 ----------------------------------------------------------------------
 # B3LYP/6-311++G(d,p) empiricaldispersion=gd3bj scf=xqc pop=npa geom=c
 heck
 ----------------------------------------------------------------------

 -----------------------------------
 CID_23270908_JID_4912_Energie_anion
 -----------------------------------
 Structure from the checkpoint file:  "JID_4912.chk"
 Charge = -1 Multiplicity = 2

                         Standard orientation:
 ---------------------------------------------------------------------
 Center     Atomic      Atomic             Coordinates (Angstroms)
 Number     Number       Type             X           Y           Z
 ---------------------------------------------------------------------
      1          6           0        1.443079   -1.067483    1.732262
      2          6           0        0.634340   -0.576648    0.525132
      3          6           0        0.634305    0.951882    0.412940
      4          6           0        2.004178    1.500845    0.086111
      5          8           0        2.986233    0.848357   -0.201301
      6          8           0        2.017492    2.850731    0.137527
      7          6           0        1.085202   -1.187003   -0.796244
      8          8           0        0.798661   -0.727789   -1.884855
      9          8           0        1.781746   -2.329419   -0.650506
     10         16           0       -1.092247   -1.227550    0.836105
     11          6           0       -2.058049   -0.638658   -0.618360
     12          6           0       -2.772398    0.656518   -0.317206
     13          8           0       -2.325673    1.769025   -0.498800
     14          8           0       -3.994908    0.437186    0.217444
     15          1           0        2.491723   -0.794493    1.599436
     16          1           0        1.380177   -2.152256    1.837938
     17          1           0        1.063309   -0.599793    2.645842
     18          1           0       -0.053777    1.300334   -0.362055
     19          1           0        0.281409    1.394726    1.349439
     20          1           0        2.920946    3.123080   -0.111609
     21          1           0        1.984127   -2.636478   -1.554108
     22          1           0       -1.379370   -0.504227   -1.462624
     23          1           0       -2.777792   -1.427949   -0.843323
     24          1           0       -4.367145    1.316412    0.419510
 ---------------------------------------------------------------------

 SCF Done:  E(UB3LYP) =  -1122.64093300     A.U. after   33 cycles
 SCF Done:  E(UB3LYP) =  -1122.64161961     a.u. after    6 cycles

 The electronic state is 2-A.
 Alpha  occ. eigenvalues --  -88.76703 -19.08039 -19.07953 -19.07703 -19.02746
 Alpha  occ. eigenvalues --  -19.02523 -19.02205 -10.22076 -10.21986 -10.21410
 Alpha  occ. eigenvalues --  -10.14736 -10.12007 -10.09814 -10.08157  -7.85272
 Alpha  occ. eigenvalues --   -5.81690  -5.81312  -5.80590  -1.02442  -1.02119
 Alpha  occ. eigenvalues --   -1.01829  -0.93426  -0.93141  -0.92886  -0.76184
 Alpha  occ. eigenvalues --   -0.69935  -0.65085  -0.59735  -0.57513  -0.53441
 Alpha  occ. eigenvalues --   -0.51233  -0.47224  -0.42477  -0.41032  -0.40723
 Alpha  occ. eigenvalues --   -0.40329  -0.39853  -0.39347  -0.38004  -0.37317
 Alpha  occ. eigenvalues --   -0.35422  -0.34241  -0.33107  -0.32721  -0.31288
 Alpha  occ. eigenvalues --   -0.31121  -0.30700  -0.29112  -0.27965  -0.26386
 Alpha  occ. eigenvalues --   -0.24420  -0.23812  -0.23302  -0.23016  -0.20225
 Alpha  occ. eigenvalues --   -0.19896  -0.19069  -0.14928   0.04240
 Alpha virt. eigenvalues --    0.05788   0.06004   0.06699   0.06862   0.07861
 Alpha virt. eigenvalues --    0.08574   0.08736   0.10240   0.11191   0.11841
 Alpha virt. eigenvalues --    0.12714   0.13060   0.13702   0.14419   0.15099

  Beta  occ. eigenvalues --  -88.76695 -19.07996 -19.07907 -19.07643 -19.02735
  Beta  occ. eigenvalues --  -19.02512 -19.02159 -10.22075 -10.21984 -10.21355
  Beta  occ. eigenvalues --  -10.14731 -10.11991 -10.09799 -10.08139  -7.85262
  Beta  occ. eigenvalues --   -5.81678  -5.81305  -5.80582  -1.02388  -1.02060
  Beta  occ. eigenvalues --   -1.01717  -0.93380  -0.93098  -0.92787  -0.76162
  Beta  occ. eigenvalues --   -0.69870  -0.65036  -0.59661  -0.57435  -0.53349
  Beta  occ. eigenvalues --   -0.51110  -0.47148  -0.42430  -0.41004  -0.40636
  Beta  occ. eigenvalues --   -0.40293  -0.39816  -0.39295  -0.37936  -0.37275
  Beta  occ. eigenvalues --   -0.35302  -0.34184  -0.33065  -0.32682  -0.31252
  Beta  occ. eigenvalues --   -0.31058  -0.30663  -0.29080  -0.27939  -0.26342
  Beta  occ. eigenvalues --   -0.24361  -0.23767  -0.23240  -0.22922  -0.20187
  Beta  occ. eigenvalues --   -0.19854  -0.19027  -0.14893
  Beta virt. eigenvalues --    0.06530   0.06724   0.06966   0.07417   0.07761
  Beta virt. eigenvalues --    0.08170   0.08803   0.09253   0.10441   0.11159
  Beta virt. eigenvalues --    0.11851   0.12786   0.13057   0.13795   0.14466

 Mulliken charges and spin densities:
               1          2
     1  C    0.500989  -0.974313
     2  C    0.152471   0.842554
     3  C    0.336731  -1.163859
     4  C   -0.529036   0.522906
     5  O   -0.226841  -0.035966
     6  O   -0.132840   0.006249
     7  C   -0.078652  -0.411057
     8  O   -0.235646   0.009196
     9  O   -0.129412   0.060619
    10  S    0.142700  -0.154984
    11  C    0.213457  -0.866088
    12  C   -0.118647   0.168941
    13  O   -0.275824   0.010800
    14  O   -0.110649   0.013481
    15  H    0.165481   0.029345
    16  H    0.027320   0.166993
    17  H   -0.082208   0.231846
    18  H    0.264031   0.005709
    19  H    0.120577   0.140809
    20  H   -0.417925   0.712401
    21  H   -0.341366   0.612688
    22  H    0.263574  -0.015350
    23  H   -0.093181   0.369735
    24  H   -0.415105   0.717346
 Sum of Mulliken charges =  -1.00000   1.00000

 Dipole moment (field-independent basis, Debye):
    X=              0.6053    Y=             -2.1929    Z=              1.3149  Tot=              2.6276
 Quadrupole moment (field-independent basis, Debye-Ang):
   XX=           -159.2691   YY=           -139.1120   ZZ=           -113.5954
   XY=              3.2181   XZ=              7.9686   YZ=             -2.6517

 Summary of Natural Population Analysis:

                                       Natural Population
                Natural  -----------------------------------------------
    Atom  No    Charge         Core      Valence    Rydberg      Total
 -----------------------------------------------------------------------
      C    1   -0.29555      0.99961     2.28868    0.00726     3.29555
      C    2   -0.12165      0.99951     2.10418    0.01796     3.12165
      C    3   -0.25677      0.99951     2.24491    0.01235     3.25677
      C    4    0.41265      0.99972     1.56219    0.02544     2.58735
      O    5   -0.30881      0.99987     3.30275    0.00620     4.30881
      O    6   -0.33959      0.99987     3.33320    0.00652     4.33959
      C    7    0.40787      0.99958     1.56478    0.02777     2.59213
      O    8   -0.31472      0.99987     3.30884    0.00601     4.31472
      O    9   -0.33761      0.99987     3.33034    0.00740     4.33761
      S   10    0.12815      4.99959     2.85735    0.01492     7.87185
      C   11   -0.30601      0.99953     2.29633    0.01015     3.30601
      C   12    0.40229      0.99970     1.57210    0.02590     2.59771
      O   13   -0.30409      0.99987     3.29768    0.00654     4.30409
      O   14   -0.34243      0.99988     3.33570    0.00685     4.34243
      H   15    0.11800      0.00000     0.38079    0.00121     0.38200
      H   16    0.11213      0.00000     0.38651    0.00136     0.38787
      H   17    0.10255      0.00000     0.39630    0.00115     0.39745
      H   18    0.13988      0.00000     0.35820    0.00192     0.36012
      H   19    0.12112      0.00000     0.37767    0.00121     0.37888
      H   20    0.24338      0.00000     0.24439    0.01223     0.25662
      H   21    0.24448      0.00000     0.24537    0.01015     0.25552
      H   22    0.13133      0.00000     0.36708    0.00159     0.36867
      H   23    0.11879      0.00000     0.37989    0.00132     0.38121
      H   24    0.24462      0.00000     0.23819    0.01719     0.25538
 =======================================================================
   * Total *   -0.00000     17.99598    39.77344    0.23059    58.00000

 Normal termination of Gaussian 16 at Thu Dec 10 11:45:52 2020.
