 Gaussian 16, Revision A.03,

 -----------------------------------------------------------
 # opt freq B3LYP/6-31G(d) empiricaldispersion=gd3bj scf=xqc
 -----------------------------------------------------------

 -------------------------------
 CID_105779509_JID_6992_neutraal
 -------------------------------
 Symbolic Z-matrix:
 Charge =  0 Multiplicity = 1

 SCF Done:  E(RB3LYP) =  -751.556950688     A.U. after   14 cycles
 SCF Done:  E(RB3LYP) =  -751.552730011     A.U. after   13 cycles
 SCF Done:  E(RB3LYP) =  -751.564362376     A.U. after   12 cycles
 SCF Done:  E(RB3LYP) =  -751.564437591     A.U. after   12 cycles
 SCF Done:  E(RB3LYP) =  -751.565279447     A.U. after   12 cycles
 SCF Done:  E(RB3LYP) =  -751.565581323     A.U. after   10 cycles
 SCF Done:  E(RB3LYP) =  -751.565672682     A.U. after   10 cycles
 SCF Done:  E(RB3LYP) =  -751.565685923     A.U. after   11 cycles
 SCF Done:  E(RB3LYP) =  -751.565746706     A.U. after    9 cycles
 SCF Done:  E(RB3LYP) =  -751.565799472     A.U. after   10 cycles
 SCF Done:  E(RB3LYP) =  -751.565823939     A.U. after    9 cycles
 SCF Done:  E(RB3LYP) =  -751.565824838     A.U. after    8 cycles
 SCF Done:  E(RB3LYP) =  -751.565825751     A.U. after    9 cycles
 SCF Done:  E(RB3LYP) =  -751.565825971     A.U. after    7 cycles
 SCF Done:  E(RB3LYP) =  -751.565826176     A.U. after    7 cycles
 Optimization completed.
    -- Stationary point found.
 Normal termination of Gaussian 16 at Fri Dec 11 01:35:14 2020.

 --------------------------------------------------------------------
 #N Geom=AllCheck Guess=TCheck SCRF=Check GenChk RB3LYP/6-31G(d) Freq
 --------------------------------------------------------------------

 Structure from the checkpoint file:  "JID_6992.chk"
 -------------------------------
 CID_105779509_JID_6992_neutraal
 -------------------------------
 Charge =  0 Multiplicity = 1

 SCF Done:  E(RB3LYP) =  -751.565826176     A.U. after    1 cycles

  Exact polarizability: 152.533   1.024 139.232   4.078  -2.094 127.706
 Approx polarizability: 201.731   7.148 190.897   4.421  -0.470 182.030

                      1                      2                      3
                      A                      A                      A
 Frequencies --     18.6792                31.9669                39.8644
 Red. masses --      3.9853                 4.2692                 3.6854
 Frc consts  --      0.0008                 0.0026                 0.0035
 IR Inten    --      0.5204                 0.2942                 0.2708

                      4                      5                      6
                      A                      A                      A
 Frequencies --     49.1997                62.7222                78.1252
 Red. masses --      3.0074                 2.4487                 3.2320
 Frc consts  --      0.0043                 0.0057                 0.0116
 IR Inten    --      0.6313                 0.0497                 0.1586

                      7                      8                      9
                      A                      A                      A
 Frequencies --     87.5383               102.2160               119.8302
 Red. masses --      6.1406                 2.7824                 4.0922
 Frc consts  --      0.0277                 0.0171                 0.0346
 IR Inten    --      2.5026                 0.0263                 0.8463

                     10                     11                     12
                      A                      A                      A
 Frequencies --    159.4257               178.1342               190.1633
 Red. masses --      3.5196                 2.6590                 1.9356
 Frc consts  --      0.0527                 0.0497                 0.0412
 IR Inten    --      3.9127                 2.9532                 1.4707

                     13                     14                     15
                      A                      A                      A
 Frequencies --    205.2054               229.1404               261.1853
 Red. masses --      2.1201                 1.3650                 1.6559
 Frc consts  --      0.0526                 0.0422                 0.0666
 IR Inten    --      1.5173                 1.9493                 0.9134

                     16                     17                     18
                      A                      A                      A
 Frequencies --    292.7833               327.9331               331.6873
 Red. masses --      2.6332                 2.2763                 2.1432
 Frc consts  --      0.1330                 0.1442                 0.1389
 IR Inten    --      4.8862                 5.7806                 8.3887

                     19                     20                     21
                      A                      A                      A
 Frequencies --    370.1921               386.4190               389.6045
 Red. masses --      3.5607                 2.8825                 2.2359
 Frc consts  --      0.2875                 0.2536                 0.2000
 IR Inten    --     13.4890                 2.2324                 1.7527

                     22                     23                     24
                      A                      A                      A
 Frequencies --    414.3703               474.7445               486.4055
 Red. masses --      2.4854                 3.3843                 2.3176
 Frc consts  --      0.2514                 0.4494                 0.3231
 IR Inten    --      3.2783                 2.1869                 3.5012

                     25                     26                     27
                      A                      A                      A
 Frequencies --    513.1965               555.8850               608.4030
 Red. masses --      2.0125                 2.4279                 4.2815
 Frc consts  --      0.3123                 0.4420                 0.9338
 IR Inten    --      3.4071                 4.7546                 8.2792

                     28                     29                     30
                      A                      A                      A
 Frequencies --    724.0647               734.5331               761.0007
 Red. masses --      2.0146                 1.6824                 3.7731
 Frc consts  --      0.6223                 0.5348                 1.2874
 IR Inten    --     85.2145                39.3115                11.0091

                     31                     32                     33
                      A                      A                      A
 Frequencies --    790.4259               800.5248               815.5266
 Red. masses --      1.8069                 1.4651                 1.6944
 Frc consts  --      0.6651                 0.5532                 0.6640
 IR Inten    --      2.7822                 6.3415                20.3333

                     34                     35                     36
                      A                      A                      A
 Frequencies --    853.3079               863.8055               876.4710
 Red. masses --      1.4683                 2.2442                 2.1090
 Frc consts  --      0.6299                 0.9866                 0.9545
 IR Inten    --      4.1760                 9.6844                12.9044

                     37                     38                     39
                      A                      A                      A
 Frequencies --    897.2407               907.5623               934.9581
 Red. masses --      1.7251                 1.6244                 2.7537
 Frc consts  --      0.8182                 0.7883                 1.4182
 IR Inten    --      3.1522                 2.1243                13.4854

                     40                     41                     42
                      A                      A                      A
 Frequencies --    944.0398               993.5089               999.3932
 Red. masses --      2.6184                 2.3210                 2.2337
 Frc consts  --      1.3749                 1.3498                 1.3144
 IR Inten    --     12.8295                26.4891                 8.0595

                     43                     44                     45
                      A                      A                      A
 Frequencies --   1017.4425              1035.1831              1042.5227
 Red. masses --      1.6458                 2.4731                 1.3970
 Frc consts  --      1.0038                 1.5614                 0.8946
 IR Inten    --      6.9572                22.9504                 3.7003

                     46                     47                     48
                      A                      A                      A
 Frequencies --   1063.7518              1072.2702              1079.4719
 Red. masses --      1.9877                 2.3878                 2.7516
 Frc consts  --      1.3252                 1.6176                 1.8891
 IR Inten    --     10.9216                10.7993                55.7419

                     49                     50                     51
                      A                      A                      A
 Frequencies --   1096.3300              1123.8092              1129.8959
 Red. masses --      1.8354                 1.6138                 2.0022
 Frc consts  --      1.2997                 1.2008                 1.5060
 IR Inten    --      2.5987                 2.7039                31.7314

                     52                     53                     54
                      A                      A                      A
 Frequencies --   1139.4968              1154.5305              1168.8586
 Red. masses --      3.2487                 1.3974                 3.1749
 Frc consts  --      2.4854                 1.0974                 2.5557
 IR Inten    --     97.2742                 8.0011                33.9461

                     55                     56                     57
                      A                      A                      A
 Frequencies --   1195.6760              1210.0833              1211.3627
 Red. masses --      1.6897                 1.7560                 1.8298
 Frc consts  --      1.4233                 1.5150                 1.5820
 IR Inten    --      9.6029                 3.2086                 1.4485

                     58                     59                     60
                      A                      A                      A
 Frequencies --   1258.2926              1274.7679              1280.4775
 Red. masses --      1.3725                 1.7747                 1.3737
 Frc consts  --      1.2804                 1.6992                 1.3270
 IR Inten    --     19.3531                93.9692                 2.0574

                     61                     62                     63
                      A                      A                      A
 Frequencies --   1307.3517              1318.3968              1328.7954
 Red. masses --      1.5140                 1.2061                 1.3191
 Frc consts  --      1.5246                 1.2351                 1.3723
 IR Inten    --     91.4619                 5.8024                32.2673

                     64                     65                     66
                      A                      A                      A
 Frequencies --   1343.7299              1351.6473              1367.0789
 Red. masses --      1.2652                 1.3751                 1.2503
 Frc consts  --      1.3460                 1.4802                 1.3767
 IR Inten    --     18.2042                79.3055                15.7387

                     67                     68                     69
                      A                      A                      A
 Frequencies --   1383.3793              1397.0220              1401.7346
 Red. masses --      1.2593                 1.4062                 1.2789
 Frc consts  --      1.4199                 1.6170                 1.4805
 IR Inten    --      6.5466                 7.6304                 8.0889

                     70                     71                     72
                      A                      A                      A
 Frequencies --   1419.0252              1423.9240              1426.9379
 Red. masses --      1.2787                 1.3709                 1.3337
 Frc consts  --      1.5171                 1.6377                 1.6000
 IR Inten    --      3.4079                14.1743                 2.6401

                     73                     74                     75
                      A                      A                      A
 Frequencies --   1441.7071              1446.3549              1450.1961
 Red. masses --      1.4420                 1.3339                 1.3329
 Frc consts  --      1.7659                 1.6441                 1.6516
 IR Inten    --      2.0448                 5.5178                 2.5323

                     76                     77                     78
                      A                      A                      A
 Frequencies --   1500.8139              1503.5915              1516.7036
 Red. masses --      1.0842                 1.1810                 1.0425
 Frc consts  --      1.4389                 1.5731                 1.4130
 IR Inten    --      6.5556                 1.3431                 6.3824

                     79                     80                     81
                      A                      A                      A
 Frequencies --   1517.4647              1521.7495              1522.5540
 Red. masses --      1.0633                 1.1447                 1.0819
 Frc consts  --      1.4426                 1.5618                 1.4776
 IR Inten    --      3.6125                10.8245                 2.0840

                     82                     83                     84
                      A                      A                      A
 Frequencies --   1524.8311              1527.0011              1531.5036
 Red. masses --      1.0861                 1.0905                 1.0721
 Frc consts  --      1.4879                 1.4982                 1.4815
 IR Inten    --      0.0149                 1.7633                14.3897

                     85                     86                     87
                      A                      A                      A
 Frequencies --   1533.9628              1536.6947              1563.1686
 Red. masses --      1.0690                 1.0841                 1.2975
 Frc consts  --      1.4821                 1.5084                 1.8680
 IR Inten    --      6.6043                10.8001                31.3234

                     88                     89                     90
                      A                      A                      A
 Frequencies --   1799.0423              3020.9626              3032.0791
 Red. masses --     10.5910                 1.0636                 1.0690
 Frc consts  --     20.1962                 5.7191                 5.7902
 IR Inten    --    264.6217                23.1951                52.0744

                     91                     92                     93
                      A                      A                      A
 Frequencies --   3035.5614              3042.6880              3044.1237
 Red. masses --      1.0661                 1.0606                 1.0434
 Frc consts  --      5.7882                 5.7853                 5.6966
 IR Inten    --     18.8607                43.0143                31.5163

                     94                     95                     96
                      A                      A                      A
 Frequencies --   3052.2025              3057.3783              3064.1157
 Red. masses --      1.0631                 1.0947                 1.0360
 Frc consts  --      5.8351                 6.0288                 5.7311
 IR Inten    --     24.3734                48.9902                12.5812

                     97                     98                     99
                      A                      A                      A
 Frequencies --   3083.1694              3088.5595              3100.3625
 Red. masses --      1.1040                 1.0931                 1.0601
 Frc consts  --      6.1834                 6.1434                 6.0038
 IR Inten    --     28.5348                 9.5856                30.0961

                    100                    101                    102
                      A                      A                      A
 Frequencies --   3102.6781              3110.4368              3113.5914
 Red. masses --      1.1014                 1.0982                 1.1020
 Frc consts  --      6.2468                 6.2599                 6.2944
 IR Inten    --     57.9322                43.7508                19.8960

                    103                    104                    105
                      A                      A                      A
 Frequencies --   3124.2838              3132.7914              3134.4583
 Red. masses --      1.0874                 1.1016                 1.0641
 Frc consts  --      6.2540                 6.3700                 6.1596
 IR Inten    --     23.9720                22.6353                28.6833

                    106                    107                    108
                      A                      A                      A
 Frequencies --   3140.2925              3140.4209              3142.2736
 Red. masses --      1.0863                 1.0990                 1.0957
 Frc consts  --      6.3117                 6.3860                 6.3743
 IR Inten    --     30.9092                16.1400                17.6590

                    109                    110                    111
                      A                      A                      A
 Frequencies --   3164.3090              3225.6668              3537.5509
 Red. masses --      1.1089                 1.1148                 1.0739
 Frc consts  --      6.5417                 6.8343                 7.9183
 IR Inten    --     21.3242                14.8509                11.5222

 - Thermochemistry -
 -------------------
 Temperature   298.150 Kelvin.  Pressure   1.00000 Atm.
 Atom     1 has atomic number  6 and mass  12.00000

 Molecular mass:   229.16779 amu.
 Principal axes and moments of inertia in atomic units:
                           1         2         3
     Eigenvalues --  2707.497375450.671756231.70839
           X            0.99971  -0.01281   0.02034
           Y            0.01327   0.99966  -0.02261
           Z           -0.02005   0.02288   0.99954
 This molecule is an asymmetric top.
 Rotational symmetry number  1.
 Warning -- assumption of classical behavior for rotation
           may cause significant error
 Rotational temperatures (Kelvin)      0.03199     0.01589     0.01390
 Rotational constants (GHZ):           0.66657     0.33110     0.28961
 Zero-point vibrational energy     915214.6 (Joules/Mol)
                                  218.74153 (Kcal/Mol)
 Warning -- explicit consideration of  27 degrees of freedom as
           vibrations may cause significant error
 Vibrational temperatures:     26.88    45.99    57.36    70.79    90.24
          (Kelvin)            112.40   125.95   147.07   172.41   229.38
                              256.30   273.60   295.24   329.68   375.79
                              421.25   471.82   477.22   532.62   555.97
                              560.55   596.19   683.05   699.83   738.38
                              799.79   875.36  1041.77  1056.83  1094.91
                             1137.25  1151.78  1173.36  1227.72  1242.82
                             1261.05  1290.93  1305.78  1345.20  1358.26
                             1429.44  1437.90  1463.87  1489.40  1499.96
                             1530.50  1542.76  1553.12  1577.37  1616.91
                             1625.67  1639.48  1661.11  1681.73  1720.31
                             1741.04  1742.88  1810.40  1834.11  1842.32
                             1880.99  1896.88  1911.84  1933.33  1944.72
                             1966.92  1990.37  2010.00  2016.78  2041.66
                             2048.71  2053.05  2074.30  2080.98  2086.51
                             2159.34  2163.33  2182.20  2183.29  2189.46
                             2190.62  2193.89  2197.01  2203.49  2207.03
                             2210.96  2249.05  2588.42  4346.49  4362.49
                             4367.50  4377.75  4379.82  4391.44  4398.89
                             4408.58  4435.99  4443.75  4460.73  4464.06
                             4475.22  4479.76  4495.15  4507.39  4509.79
                             4518.18  4518.37  4521.03  4552.73  4641.02
                             5089.75

 Zero-point correction=                           0.348587 (Hartree/Particle)
 Thermal correction to Energy=                    0.367068
 Thermal correction to Enthalpy=                  0.368012
 Thermal correction to Gibbs Free Energy=         0.299611
 Sum of electronic and zero-point Energies=           -751.217239
 Sum of electronic and thermal Energies=              -751.198758
 Sum of electronic and thermal Enthalpies=            -751.197814
 Sum of electronic and thermal Free Energies=         -751.266215

                     E (Thermal)             CV                S
                      KCal/Mol        Cal/Mol-Kelvin    Cal/Mol-Kelvin
 Total                  230.339             67.072            143.962
 Electronic               0.000              0.000              0.000
 Translational            0.889              2.981             42.190
 Rotational               0.889              2.981             32.886
 Vibrational            228.561             61.111             68.886
 Vibration     1          0.593              1.986              6.770
 Vibration     2          0.594              1.983              5.703
 Vibration     3          0.594              1.981              5.266
 Vibration     4          0.595              1.978              4.849
 Vibration     5          0.597              1.972              4.370
 Vibration     6          0.599              1.964              3.937
 Vibration     7          0.601              1.958              3.714
 Vibration     8          0.604              1.947              3.412
 Vibration     9          0.609              1.933              3.103
 Vibration    10          0.621              1.892              2.557
 Vibration    11          0.629              1.869              2.348
 Vibration    12          0.633              1.853              2.226
 Vibration    13          0.640              1.832              2.086
 Vibration    14          0.652              1.797              1.886
 Vibration    15          0.669              1.744              1.654
 Vibration    16          0.688              1.687              1.458
 Vibration    17          0.711              1.620              1.270
 Vibration    18          0.714              1.612              1.252
 Vibration    19          0.742              1.533              1.079
 Vibration    20          0.755              1.499              1.014
 Vibration    21          0.758              1.492              1.002
 Vibration    22          0.778              1.439              0.911
 Vibration    23          0.831              1.306              0.724
 Vibration    24          0.842              1.280              0.693
 Vibration    25          0.868              1.221              0.626
 Vibration    26          0.911              1.127              0.532
 Vibration    27          0.967              1.014              0.435

                           ! Non-Optimized Parameters !
 Normal termination of Gaussian 16 at Fri Dec 11 01:50:55 2020.

 ----------------------------------------------------------------------
 # B3LYP/6-311++G(d,p) empiricaldispersion=gd3bj scf=xqc pop=npa geom=c
 heck
 ----------------------------------------------------------------------

 ---------------------------------------
 CID_105779509_JID_6992_Energie_neutraal
 ---------------------------------------
 Structure from the checkpoint file:  "JID_6992.chk"
 Charge =  0 Multiplicity = 1

 SCF Done:  E(RB3LYP) =  -751.785166352     A.U. after   13 cycles
 Normal termination of Gaussian 16 at Fri Dec 11 01:58:07 2020.

 ----------------------------------------------------------------------
 # B3LYP/6-311++G(d,p) empiricaldispersion=gd3bj scf=xqc pop=npa geom=c
 heck
 ----------------------------------------------------------------------

 -------------------------------------
 CID_105779509_JID_6992_Energie_kation
 -------------------------------------
 Structure from the checkpoint file:  "JID_6992.chk"
 Charge =  1 Multiplicity = 2

 SCF Done:  E(UB3LYP) =  -751.504357360     A.U. after   18 cycles
 Normal termination of Gaussian 16 at Fri Dec 11 02:12:00 2020.
 Gaussian 16:  ES64L-G16RevA.03 25-Dec-2016

 ----------------------------------------------------------------------
 # B3LYP/6-311++G(d,p) empiricaldispersion=gd3bj scf=xqc pop=npa geom=c
 heck
 ----------------------------------------------------------------------

 ------------------------------------
 CID_105779509_JID_6992_Energie_anion
 ------------------------------------
 Structure from the checkpoint file:  "JID_6992.chk"
 Charge = -1 Multiplicity = 2

                         Standard orientation:
 ---------------------------------------------------------------------
 Center     Atomic      Atomic             Coordinates (Angstroms)
 Number     Number       Type             X           Y           Z
 ---------------------------------------------------------------------
      1          6           0       -3.864008    0.319369   -1.407363
      2          6           0       -3.818852   -1.117488   -0.880484
      3          6           0       -2.496133   -1.494090   -0.193495
      4          6           0       -2.304352   -0.849700    1.168870
      5          6           0       -0.929145   -0.810285    1.811834
      6          6           0       -1.626494    0.475450    1.393797
      7          7           0       -1.207460    1.323265    0.307273
      8          6           0       -0.252775    2.362735    0.686604
      9          6           0        1.214841    1.959081    0.940681
     10          8           0        2.078290    2.148622   -0.186207
     11          6           0        1.732678    1.413319   -1.335876
     12          6           0        1.743571   -0.096789   -1.102047
     13          8           0        0.771894   -0.814201   -1.249591
     14          8           0        2.951394   -0.513971   -0.700271
     15          6           0        3.098798   -1.917037   -0.364683
     16          6           0        2.975440   -2.112071    1.136880
     17          1           0       -3.655208    1.046664   -0.617873
     18          1           0       -4.842706    0.547664   -1.845622
     19          1           0       -3.106435    0.469600   -2.186619
     20          1           0       -4.645223   -1.277701   -0.172956
     21          1           0       -3.993436   -1.813033   -1.712398
     22          1           0       -2.466318   -2.583667   -0.051455
     23          1           0       -1.652338   -1.259760   -0.853113
     24          1           0       -3.132946   -1.047529    1.849383
     25          1           0       -0.820221   -1.051364    2.866948
     26          1           0       -0.113593   -1.149224    1.179338
     27          1           0       -2.039834    1.070977    2.207041
     28          1           0       -0.870634    0.764125   -0.471297
     29          1           0       -0.253515    3.148613   -0.080323
     30          1           0       -0.643097    2.828473    1.599576
     31          1           0        1.656057    2.599125    1.710310
     32          1           0        1.268310    0.920891    1.298023
     33          1           0        0.742596    1.677785   -1.728648
     34          1           0        2.484479    1.661814   -2.091506
     35          1           0        2.348910   -2.490804   -0.912268
     36          1           0        4.096431   -2.182204   -0.722101
     37          1           0        1.969451   -1.858359    1.483141
     38          1           0        3.170543   -3.159364    1.393159
     39          1           0        3.696908   -1.484133    1.668594
 ---------------------------------------------------------------------

 SCF Done:  E(UB3LYP) =  -751.769990656     A.U. after   33 cycles
 SCF Done:  E(UB3LYP) =  -751.769990656     a.u. after    2 cycles

 The electronic state is 2-A.
 Alpha  occ. eigenvalues --  -19.08277 -19.04746 -19.03281 -14.20559 -10.21820
 Alpha  occ. eigenvalues --  -10.14816 -10.13461 -10.12672 -10.10585 -10.10403
 Alpha  occ. eigenvalues --  -10.07737 -10.07380 -10.07095 -10.06962 -10.06408
 Alpha  occ. eigenvalues --  -10.06204  -1.02550  -0.95780  -0.93999  -0.82467
 Alpha  occ. eigenvalues --   -0.74398  -0.69509  -0.68629  -0.66177  -0.61601
 Alpha  occ. eigenvalues --   -0.59694  -0.56477  -0.52765  -0.50944  -0.50210
 Alpha  occ. eigenvalues --   -0.47219  -0.46374  -0.43169  -0.42186  -0.41729
 Alpha  occ. eigenvalues --   -0.40922  -0.38983  -0.37669  -0.37416  -0.36220
 Alpha  occ. eigenvalues --   -0.35179  -0.34239  -0.33880  -0.32326  -0.31571
 Alpha  occ. eigenvalues --   -0.31006  -0.30445  -0.29651  -0.29136  -0.28013
 Alpha  occ. eigenvalues --   -0.27719  -0.26832  -0.25801  -0.25593  -0.25180
 Alpha  occ. eigenvalues --   -0.24741  -0.23291  -0.22234  -0.21685  -0.20640
 Alpha  occ. eigenvalues --   -0.18330  -0.17926  -0.11830   0.04343
 Alpha virt. eigenvalues --    0.05912   0.06295   0.06528   0.07183   0.07965
 Alpha virt. eigenvalues --    0.08215   0.08587   0.08869   0.09478   0.10243
 Alpha virt. eigenvalues --    0.10478   0.10832   0.11352   0.11982   0.12168

  Beta  occ. eigenvalues --  -19.08276 -19.04736 -19.03249 -14.20557 -10.21792
  Beta  occ. eigenvalues --  -10.14805 -10.13433 -10.12663 -10.10573 -10.10393
  Beta  occ. eigenvalues --  -10.07731 -10.07373 -10.07055 -10.06957 -10.06392
  Beta  occ. eigenvalues --  -10.06197  -1.02518  -0.95754  -0.93959  -0.82454
  Beta  occ. eigenvalues --   -0.74379  -0.69463  -0.68614  -0.66143  -0.61568
  Beta  occ. eigenvalues --   -0.59677  -0.56415  -0.52726  -0.50922  -0.50170
  Beta  occ. eigenvalues --   -0.47164  -0.46350  -0.43134  -0.42153  -0.41684
  Beta  occ. eigenvalues --   -0.40883  -0.38944  -0.37632  -0.37375  -0.36187
  Beta  occ. eigenvalues --   -0.35155  -0.34212  -0.33864  -0.32280  -0.31544
  Beta  occ. eigenvalues --   -0.30961  -0.30430  -0.29579  -0.29094  -0.27979
  Beta  occ. eigenvalues --   -0.27695  -0.26813  -0.25784  -0.25569  -0.25158
  Beta  occ. eigenvalues --   -0.24717  -0.23273  -0.22173  -0.21669  -0.20617
  Beta  occ. eigenvalues --   -0.18312  -0.17902  -0.11815
  Beta virt. eigenvalues --    0.06108   0.06528   0.06977   0.07125   0.07587
  Beta virt. eigenvalues --    0.08414   0.08669   0.09023   0.09220   0.09686
  Beta virt. eigenvalues --    0.10617   0.10880   0.11199   0.11542   0.12139

 Mulliken charges and spin densities:
               1          2
     1  C   -0.342392  -0.127881
     2  C   -0.130919  -0.337652
     3  C   -0.310307   0.073111
     4  C    0.717546  -0.529736
     5  C    0.202836  -0.696562
     6  C   -1.027043   0.598431
     7  N    0.129791  -0.043826
     8  C    0.419096  -0.571291
     9  C   -0.614063   0.107127
    10  O   -0.048227   0.002860
    11  C   -0.353473  -0.028738
    12  C    0.357791  -0.502303
    13  O   -0.217096   0.029083
    14  O   -0.007078   0.060122
    15  C    0.202417  -0.332232
    16  C    0.861593  -1.256012
    17  H    0.101321   0.082998
    18  H   -0.008715   0.149730
    19  H    0.089145   0.028482
    20  H    0.082376   0.021173
    21  H    0.033242   0.106523
    22  H   -0.036053   0.194111
    23  H    0.176194   0.002305
    24  H   -0.025894   0.238962
    25  H   -0.573444   0.752573
    26  H    0.669695  -0.567963
    27  H   -0.297399   0.493054
    28  H    0.331483  -0.275789
    29  H    0.151583   0.054449
    30  H   -0.091794   0.213046
    31  H   -0.335359   0.523503
    32  H    0.482406  -0.265907
    33  H    0.083184   0.116793
    34  H   -0.094526   0.299682
    35  H    0.167559  -0.004765
    36  H   -0.803426   0.995629
    37  H   -0.347327   0.484559
    38  H   -0.553793   0.714326
    39  H   -0.040930   0.198024
 Sum of Mulliken charges =  -1.00000   1.00000

 Dipole moment (field-independent basis, Debye):
    X=             -4.0963    Y=              3.7141    Z=             -4.1396  Tot=              6.9073
 Quadrupole moment (field-independent basis, Debye-Ang):
   XX=           -180.8981   YY=           -153.7724   ZZ=           -145.2200
   XY=             15.5051   XZ=              0.1218   YZ=              1.2760

 Summary of Natural Population Analysis:

                                       Natural Population
                Natural  -----------------------------------------------
    Atom  No    Charge         Core      Valence    Rydberg      Total
 -----------------------------------------------------------------------
      C    1   -0.28890      0.99966     2.28464    0.00460     3.28890
      C    2   -0.18562      0.99964     2.17928    0.00671     3.18562
      C    3   -0.19688      0.99960     2.18790    0.00937     3.19688
      C    4   -0.11539      0.99958     2.10423    0.01159     3.11539
      C    5   -0.21325      0.99959     2.20392    0.00974     3.21325
      C    6   -0.01077      0.99955     1.99716    0.01406     3.01077
      N    7   -0.34760      0.99973     2.83586    0.01201     3.84760
      C    8   -0.10415      0.99962     2.09354    0.01100     3.10415
      C    9   -0.02459      0.99957     2.01280    0.01223     3.02459
      O   10   -0.28910      0.99989     3.28043    0.00877     4.28910
      C   11   -0.05328      0.99954     2.04101    0.01273     3.05328
      C   12    0.39821      0.99971     1.57682    0.02527     2.60179
      O   13   -0.31088      0.99987     3.30516    0.00585     4.31088
      O   14   -0.27527      0.99986     3.26483    0.01058     4.27527
      C   15   -0.01697      0.99957     2.00601    0.01139     3.01697
      C   16   -0.29658      0.99965     2.29161    0.00532     3.29658
      H   17    0.10744      0.00000     0.39112    0.00145     0.39256
      H   18    0.09219      0.00000     0.40698    0.00083     0.40781
      H   19    0.09419      0.00000     0.40468    0.00113     0.40581
      H   20    0.09004      0.00000     0.40869    0.00127     0.40996
      H   21    0.09141      0.00000     0.40754    0.00105     0.40859
      H   22    0.09900      0.00000     0.39994    0.00106     0.40100
      H   23    0.10573      0.00000     0.39218    0.00210     0.39427
      H   24    0.10039      0.00000     0.39836    0.00125     0.39961
      H   25    0.10296      0.00000     0.39553    0.00151     0.39704
      H   26    0.10400      0.00000     0.39387    0.00213     0.39600
      H   27    0.09726      0.00000     0.40128    0.00145     0.40274
      H   28    0.18277      0.00000     0.31278    0.00446     0.31723
      H   29    0.09492      0.00000     0.40406    0.00103     0.40508
      H   30    0.09931      0.00000     0.39945    0.00123     0.40069
      H   31    0.09382      0.00000     0.40488    0.00130     0.40618
      H   32    0.08608      0.00000     0.41223    0.00170     0.41392
      H   33    0.08584      0.00000     0.41290    0.00126     0.41416
      H   34    0.10285      0.00000     0.39596    0.00119     0.39715
      H   35    0.09683      0.00000     0.40177    0.00140     0.40317
      H   36    0.09418      0.00000     0.40307    0.00274     0.40582
      H   37    0.10031      0.00000     0.39785    0.00185     0.39969
      H   38    0.10704      0.00000     0.39061    0.00235     0.39296
      H   39    0.10249      0.00000     0.39617    0.00133     0.39751
 =======================================================================
   * Total *   -0.00000     15.99463    46.79708    0.20830    63.00000

 Normal termination of Gaussian 16 at Fri Dec 11 03:19:19 2020.
