 Gaussian 16, Revision A.03,

 -----------------------------------------------------------
 # opt freq B3LYP/6-31G(d) empiricaldispersion=gd3bj scf=xqc
 -----------------------------------------------------------

 -------------------------------
 CID_66241466_JID_10354_neutraal
 -------------------------------
 Symbolic Z-matrix:
 Charge =  0 Multiplicity = 1

 SCF Done:  E(RB3LYP) =  -1350.72287724     A.U. after   15 cycles
 SCF Done:  E(RB3LYP) =  -1350.65282641     A.U. after   14 cycles
 SCF Done:  E(RB3LYP) =  -1350.72940002     A.U. after   13 cycles
 SCF Done:  E(RB3LYP) =  -1350.73079742     A.U. after   13 cycles
 SCF Done:  E(RB3LYP) =  -1350.73089049     A.U. after   12 cycles
 SCF Done:  E(RB3LYP) =  -1350.73139233     A.U. after   13 cycles
 SCF Done:  E(RB3LYP) =  -1350.73164761     A.U. after   11 cycles
 SCF Done:  E(RB3LYP) =  -1350.73187828     A.U. after   12 cycles
 SCF Done:  E(RB3LYP) =  -1350.73194898     A.U. after   11 cycles
 SCF Done:  E(RB3LYP) =  -1350.73199631     A.U. after   11 cycles
 SCF Done:  E(RB3LYP) =  -1350.73271371     A.U. after   10 cycles
 SCF Done:  E(RB3LYP) =  -1350.73271444     A.U. after    9 cycles
 SCF Done:  E(RB3LYP) =  -1350.73271473     A.U. after    8 cycles
 SCF Done:  E(RB3LYP) =  -1350.73271461     A.U. after    8 cycles
 SCF Done:  E(RB3LYP) =  -1350.73271470     A.U. after    8 cycles
 Optimization completed.
    -- Stationary point found.
 Normal termination of Gaussian 16 at Sun Dec 13 21:54:38 2020.

 --------------------------------------------------------------------
 #N Geom=AllCheck Guess=TCheck SCRF=Check GenChk RB3LYP/6-31G(d) Freq
 --------------------------------------------------------------------

 Structure from the checkpoint file:  "JID_10354.chk"
 -------------------------------
 CID_66241466_JID_10354_neutraal
 -------------------------------
 Charge =  0 Multiplicity = 1

 SCF Done:  E(RB3LYP) =  -1350.73271470     A.U. after    1 cycles

  Exact polarizability: 145.017   2.895 175.151   1.734   0.343 144.811
 Approx polarizability: 193.030   4.754 269.280   2.376  -5.124 269.300

                      1                      2                      3
                      A                      A                      A
 Frequencies --      8.6668                29.3583                43.0558
 Red. masses --      5.6356                 5.6958                 4.6596
 Frc consts  --      0.0002                 0.0029                 0.0051
 IR Inten    --      1.3938                 0.5671                 3.6381

                      4                      5                      6
                      A                      A                      A
 Frequencies --     50.4956                56.7852                85.8596
 Red. masses --      5.5912                 3.9511                 8.7031
 Frc consts  --      0.0084                 0.0075                 0.0378
 IR Inten    --      0.5917                 1.6523                 1.7879

                      7                      8                      9
                      A                      A                      A
 Frequencies --     91.1011               113.8383               141.1928
 Red. masses --      7.4574                 4.3445                 5.2451
 Frc consts  --      0.0365                 0.0332                 0.0616
 IR Inten    --      0.2049                 6.8284                 0.3873

                     10                     11                     12
                      A                      A                      A
 Frequencies --    155.0102               172.0348               194.0387
 Red. masses --      5.5139                 5.4378                 5.3904
 Frc consts  --      0.0781                 0.0948                 0.1196
 IR Inten    --      3.5822                 2.6368                 3.3539

                     13                     14                     15
                      A                      A                      A
 Frequencies --    218.9929               260.8798               284.8477
 Red. masses --      5.0122                 3.5354                 3.3479
 Frc consts  --      0.1416                 0.1418                 0.1600
 IR Inten    --      1.3895                 0.8645                 0.6387

                     16                     17                     18
                      A                      A                      A
 Frequencies --    308.5308               349.7728               371.2014
 Red. masses --      4.3732                 3.1590                 2.4953
 Frc consts  --      0.2453                 0.2277                 0.2026
 IR Inten    --      3.1374                11.7007                 6.6201

                     19                     20                     21
                      A                      A                      A
 Frequencies --    398.9534               407.4349               416.4161
 Red. masses --      4.5364                 4.1623                 4.2916
 Frc consts  --      0.4254                 0.4071                 0.4385
 IR Inten    --      8.7345                 0.6027                 3.9851

                     22                     23                     24
                      A                      A                      A
 Frequencies --    435.1955               498.5601               503.6187
 Red. masses --      3.8817                 6.6828                 4.2556
 Frc consts  --      0.4332                 0.9787                 0.6359
 IR Inten    --     14.2823                38.6715                17.7993

                     25                     26                     27
                      A                      A                      A
 Frequencies --    526.3285               575.6807               592.0794
 Red. masses --      4.7258                 3.6755                 2.9319
 Frc consts  --      0.7713                 0.7177                 0.6056
 IR Inten    --      5.2807                64.6777                14.1415

                     28                     29                     30
                      A                      A                      A
 Frequencies --    606.3148               637.1324               642.9250
 Red. masses --      1.4629                 3.2452                 2.9435
 Frc consts  --      0.3168                 0.7762                 0.7169
 IR Inten    --    110.9324                36.2213                67.9637

                     31                     32                     33
                      A                      A                      A
 Frequencies --    690.2184               711.4378               764.4169
 Red. masses --      4.3875                 3.6586                 2.9099
 Frc consts  --      1.2315                 1.0910                 1.0018
 IR Inten    --     82.4394                 3.8423                 2.4563

                     34                     35                     36
                      A                      A                      A
 Frequencies --    776.1099               785.0849               794.0644
 Red. masses --      2.0000                 2.1848                 3.4051
 Frc consts  --      0.7098                 0.7934                 1.2650
 IR Inten    --     33.5972                10.1803                 5.1391

                     37                     38                     39
                      A                      A                      A
 Frequencies --    801.1276               845.6143               876.3045
 Red. masses --      4.6977                 4.0745                 2.0118
 Frc consts  --      1.7764                 1.7166                 0.9102
 IR Inten    --     44.1466                10.5152               106.8088

                     40                     41                     42
                      A                      A                      A
 Frequencies --    900.7373               906.5544               939.7546
 Red. masses --      2.6245                 1.4161                 2.2906
 Frc consts  --      1.2546                 0.6857                 1.1919
 IR Inten    --     36.8626                19.2488                26.2078

                     43                     44                     45
                      A                      A                      A
 Frequencies --    946.2784               953.1099               978.1936
 Red. masses --      3.3890                 1.8456                 1.4577
 Frc consts  --      1.7879                 0.9878                 0.8218
 IR Inten    --     13.4810                 8.7434                 1.2257

                     46                     47                     48
                      A                      A                      A
 Frequencies --    989.6026              1001.9962              1011.8006
 Red. masses --      2.1896                 1.2929                 6.7101
 Frc consts  --      1.2634                 0.7648                 4.0473
 IR Inten    --     23.2311                 0.4364                 7.4720

                     49                     50                     51
                      A                      A                      A
 Frequencies --   1021.1184              1043.7063              1060.1702
 Red. masses --      2.1078                 2.8704                 2.1207
 Frc consts  --      1.2949                 1.8423                 1.4043
 IR Inten    --      0.6852                 4.3833                45.1227

                     52                     53                     54
                      A                      A                      A
 Frequencies --   1078.6852              1095.7411              1116.6870
 Red. masses --      2.2669                 3.3299                 3.1406
 Frc consts  --      1.5541                 2.3556                 2.3074
 IR Inten    --      2.9396                57.9529               104.2908

                     55                     56                     57
                      A                      A                      A
 Frequencies --   1124.8321              1145.8302              1156.5188
 Red. masses --      2.2088                 4.3260                 3.3037
 Frc consts  --      1.6466                 3.3464                 2.6035
 IR Inten    --     45.2647               125.5833                38.8715

                     58                     59                     60
                      A                      A                      A
 Frequencies --   1174.7612              1189.5038              1203.9211
 Red. masses --      1.2787                 1.1238                 1.8073
 Frc consts  --      1.0398                 0.9369                 1.5434
 IR Inten    --      8.4805                 2.8041                65.6772

                     61                     62                     63
                      A                      A                      A
 Frequencies --   1231.6101              1240.4362              1258.2912
 Red. masses --      1.2851                 1.3342                 1.2066
 Frc consts  --      1.1485                 1.2095                 1.1256
 IR Inten    --     40.7577                 8.6253                18.9018

                     64                     65                     66
                      A                      A                      A
 Frequencies --   1261.6580              1263.1556              1307.1774
 Red. masses --      1.3495                 2.1865                 3.2916
 Frc consts  --      1.2656                 2.0555                 3.3138
 IR Inten    --      2.7645                 2.1783                91.1239

                     67                     68                     69
                      A                      A                      A
 Frequencies --   1316.7168              1324.2530              1331.1778
 Red. masses --      3.4535                 1.4185                 1.3343
 Frc consts  --      3.5278                 1.4657                 1.3931
 IR Inten    --      4.7193                19.1305                 1.0117

                     70                     71                     72
                      A                      A                      A
 Frequencies --   1345.9160              1364.1280              1366.4991
 Red. masses --      1.7160                 1.4585                 1.4048
 Frc consts  --      1.8315                 1.5991                 1.5456
 IR Inten    --     59.5038                20.6796                 1.9371

                     73                     74                     75
                      A                      A                      A
 Frequencies --   1373.1989              1394.0638              1400.2017
 Red. masses --      1.3223                 1.4936                 1.7069
 Frc consts  --      1.4690                 1.7102                 1.9717
 IR Inten    --     10.4884                 4.1668                19.1688

                     76                     77                     78
                      A                      A                      A
 Frequencies --   1432.9248              1478.3497              1478.9600
 Red. masses --      1.5487                 1.5936                 1.2056
 Frc consts  --      1.8736                 2.0521                 1.5536
 IR Inten    --     13.2696                31.2228                25.4659

                     79                     80                     81
                      A                      A                      A
 Frequencies --   1482.7503              1504.0985              1526.8755
 Red. masses --      1.4566                 1.1010                 2.2264
 Frc consts  --      1.8868                 1.4676                 3.0582
 IR Inten    --     30.7802                 6.3749                20.0069

                     82                     83                     84
                      A                      A                      A
 Frequencies --   1541.7794              1553.4443              1627.8533
 Red. masses --      1.0843                 1.0962                 5.6393
 Frc consts  --      1.5186                 1.5586                 8.8045
 IR Inten    --      1.1382                 0.7773                16.7194

                     85                     86                     87
                      A                      A                      A
 Frequencies --   1650.4101              1843.5630              2997.4631
 Red. masses --      5.4105                 9.5614                 1.0723
 Frc consts  --      8.6830                19.1464                 5.6764
 IR Inten    --     42.4881               231.4819                75.4754

                     88                     89                     90
                      A                      A                      A
 Frequencies --   3043.0268              3056.2197              3091.6379
 Red. masses --      1.0649                 1.0689                 1.0594
 Frc consts  --      5.8097                 5.8822                 5.9662
 IR Inten    --     48.5364                15.0984                 5.0610

                     91                     92                     93
                      A                      A                      A
 Frequencies --   3098.7671              3117.9685              3133.3181
 Red. masses --      1.1019                 1.0935                 1.0871
 Frc consts  --      6.2340                 6.2634                 6.2881
 IR Inten    --     23.8530                23.7748                 3.9071

                     94                     95                     96
                      A                      A                      A
 Frequencies --   3137.6129              3143.4015              3154.9466
 Red. masses --      1.0972                 1.0860                 1.1043
 Frc consts  --      6.3639                 6.3225                 6.4760
 IR Inten    --      0.2531                 7.4611                 3.3304

                     97                     98                     99
                      A                      A                      A
 Frequencies --   3173.7120              3197.1223              3202.3882
 Red. masses --      1.0888                 1.0893                 1.0930
 Frc consts  --      6.4613                 6.5602                 6.6044
 IR Inten    --     15.3995                 0.6957                18.5754

                    100                    101                    102
                      A                      A                      A
 Frequencies --   3226.4800              3527.3866              3660.3211
 Red. masses --      1.0965                 1.0752                 1.0638
 Frc consts  --      6.7256                 7.8825                 8.3976
 IR Inten    --      5.9987                40.5954               107.1187

 - Thermochemistry -
 -------------------
 Temperature   298.150 Kelvin.  Pressure   1.00000 Atm.
 Atom     1 has atomic number  6 and mass  12.00000

 Molecular mass:   300.07799 amu.
 Principal axes and moments of inertia in atomic units:
                           1         2         3
     Eigenvalues --  4698.552445427.364948325.52678
           X            0.99998   0.00309   0.00476
           Y           -0.00313   0.99996   0.00855
           Z           -0.00473  -0.00856   0.99995
 This molecule is an asymmetric top.
 Rotational symmetry number  1.
 Warning -- assumption of classical behavior for rotation
           may cause significant error
 Rotational temperatures (Kelvin)      0.01843     0.01596     0.01040
 Rotational constants (GHZ):           0.38411     0.33253     0.21677
 Zero-point vibrational energy     754373.8 (Joules/Mol)
                                  180.29966 (Kcal/Mol)
 Warning -- explicit consideration of  28 degrees of freedom as
           vibrations may cause significant error
 Vibrational temperatures:     12.47    42.24    61.95    72.65    81.70
          (Kelvin)            123.53   131.07   163.79   203.15   223.03
                              247.52   279.18   315.08   375.35   409.83
                              443.91   503.25   534.08   574.00   586.21
                              599.13   626.15   717.32   724.59   757.27
                              828.28   851.87   872.35   916.69   925.03
                              993.07  1023.60  1099.83  1116.65  1129.56
                             1142.48  1152.64  1216.65  1260.81  1295.96
                             1304.33  1352.10  1361.48  1371.31  1407.40
                             1423.82  1441.65  1455.76  1469.16  1501.66
                             1525.35  1551.99  1576.53  1606.66  1618.38
                             1648.59  1663.97  1690.22  1711.43  1732.17
                             1772.01  1784.71  1810.40  1815.24  1817.40
                             1880.74  1894.46  1905.30  1915.27  1936.47
                             1962.68  1966.09  1975.73  2005.75  2014.58
                             2061.66  2127.02  2127.89  2133.35  2164.06
                             2196.83  2218.28  2235.06  2342.12  2374.57
                             2652.48  4312.68  4378.24  4397.22  4448.18
                             4458.43  4486.06  4508.15  4514.33  4522.65
                             4539.26  4566.26  4599.95  4607.52  4642.19
                             5075.12  5266.39

 Zero-point correction=                           0.287326 (Hartree/Particle)
 Thermal correction to Energy=                    0.305968
 Thermal correction to Enthalpy=                  0.306912
 Thermal correction to Gibbs Free Energy=         0.237225
 Sum of electronic and zero-point Energies=          -1350.445389
 Sum of electronic and thermal Energies=             -1350.426747
 Sum of electronic and thermal Enthalpies=           -1350.425803
 Sum of electronic and thermal Free Energies=        -1350.495490

                     E (Thermal)             CV                S
                      KCal/Mol        Cal/Mol-Kelvin    Cal/Mol-Kelvin
 Total                  191.998             69.819            146.669
 Electronic               0.000              0.000              0.000
 Translational            0.889              2.981             42.994
 Rotational               0.889              2.981             33.717
 Vibrational            190.220             63.858             69.958
 Vibration     1          0.593              1.987              8.295
 Vibration     2          0.593              1.984              5.872
 Vibration     3          0.595              1.980              5.113
 Vibration     4          0.595              1.977              4.798
 Vibration     5          0.596              1.975              4.566
 Vibration     6          0.601              1.959              3.752
 Vibration     7          0.602              1.956              3.636
 Vibration     8          0.607              1.938              3.202
 Vibration     9          0.615              1.912              2.788
 Vibration    10          0.620              1.897              2.610
 Vibration    11          0.626              1.877              2.413
 Vibration    12          0.635              1.848              2.189
 Vibration    13          0.647              1.812              1.967
 Vibration    14          0.669              1.744              1.656
 Vibration    15          0.683              1.702              1.504
 Vibration    16          0.698              1.657              1.370
 Vibration    17          0.727              1.576              1.167
 Vibration    18          0.743              1.531              1.075
 Vibration    19          0.765              1.472              0.967
 Vibration    20          0.772              1.454              0.936
 Vibration    21          0.780              1.435              0.904
 Vibration    22          0.796              1.394              0.842
 Vibration    23          0.854              1.253              0.662
 Vibration    24          0.859              1.242              0.649
 Vibration    25          0.881              1.192              0.595
 Vibration    26          0.932              1.084              0.493
 Vibration    27          0.950              1.049              0.463
 Vibration    28          0.965              1.018              0.439

 Optimization completed.
    -- Stationary point found.
 Normal termination of Gaussian 16 at Sun Dec 13 22:15:54 2020.

 ----------------------------------------------------------------------
 # B3LYP/6-311++G(d,p) empiricaldispersion=gd3bj scf=xqc pop=npa geom=c
 heck
 ----------------------------------------------------------------------

 ---------------------------------------
 CID_66241466_JID_10354_Energie_neutraal
 ---------------------------------------
 Structure from the checkpoint file:  "JID_10354.chk"
 Charge =  0 Multiplicity = 1

 SCF Done:  E(RB3LYP) =  -1351.03886609     A.U. after   15 cycles
 Normal termination of Gaussian 16 at Sun Dec 13 22:23:48 2020.

 ----------------------------------------------------------------------
 # B3LYP/6-311++G(d,p) empiricaldispersion=gd3bj scf=xqc pop=npa geom=c
 heck
 ----------------------------------------------------------------------

 -------------------------------------
 CID_66241466_JID_10354_Energie_kation
 -------------------------------------
 Structure from the checkpoint file:  "JID_10354.chk"
 Charge =  1 Multiplicity = 2

 SCF Done:  E(UB3LYP) =  -1350.71281773     A.U. after   30 cycles
 Normal termination of Gaussian 16 at Sun Dec 13 22:45:31 2020.
 Gaussian 16:  ES64L-G16RevA.03 25-Dec-2016

 ----------------------------------------------------------------------
 # B3LYP/6-311++G(d,p) empiricaldispersion=gd3bj scf=xqc pop=npa geom=c
 heck
 ----------------------------------------------------------------------

 ------------------------------------
 CID_66241466_JID_10354_Energie_anion
 ------------------------------------
 Structure from the checkpoint file:  "JID_10354.chk"
 Charge = -1 Multiplicity = 2

                         Standard orientation:
 ---------------------------------------------------------------------
 Center     Atomic      Atomic             Coordinates (Angstroms)
 Number     Number       Type             X           Y           Z
 ---------------------------------------------------------------------
      1          6           0        3.642790    0.953480   -0.376639
      2          6           0        2.226415    0.685328   -0.920439
      3          6           0        1.876334   -0.624083   -0.168387
      4          6           0        2.724648   -0.548853    1.127913
      5          8           0        3.629189    0.542635    0.980120
      6          7           0        0.440740   -0.800995    0.040091
      7         16           0       -0.209197   -2.354825   -0.052861
      8          8           0        0.694080   -3.143356   -0.899262
      9          8           0       -0.597661   -2.825485    1.280901
     10          6           0       -1.725783   -2.064996   -1.002369
     11          6           0       -2.811426   -1.309111   -0.227975
     12          6           0       -2.535619    0.157501    0.025029
     13          6           0       -2.524903    1.089019   -1.021699
     14          6           0       -2.317494    2.432475   -0.732499
     15          6           0       -2.142310    2.812194    0.600785
     16          6           0       -2.144295    1.812981    1.573044
     17          7           0       -2.325711    0.513208    1.302193
     18          6           0        1.266432    1.816310   -0.636903
     19          8           0        0.795946    2.556035   -1.472424
     20          8           0        0.981489    1.929127    0.684538
     21          1           0        4.369442    0.369858   -0.964809
     22          1           0        3.938145    2.005740   -0.410012
     23          1           0        2.226324    0.544081   -2.002462
     24          1           0        2.203821   -1.462436   -0.784163
     25          1           0        2.097594   -0.356458    2.004216
     26          1           0        3.273242   -1.485883    1.290920
     27          1           0        0.067517   -0.305661    0.848014
     28          1           0       -1.414991   -1.556403   -1.918163
     29          1           0       -2.068933   -3.072119   -1.258864
     30          1           0       -3.737731   -1.401730   -0.809008
     31          1           0       -2.971932   -1.798801    0.735347
     32          1           0       -2.676665    0.760887   -2.045854
     33          1           0       -2.290034    3.170505   -1.527209
     34          1           0       -2.010800    3.854445    0.877511
     35          1           0       -1.991840    2.060089    2.622210
     36          1           0        0.295711    2.620490    0.761962
 ---------------------------------------------------------------------

 SCF Done:  E(UB3LYP) =  -1351.03933701     A.U. after   33 cycles
 SCF Done:  E(UB3LYP) =  -1351.03933701     a.u. after    1 cycles

 The electronic state is 2-A.
 Alpha  occ. eigenvalues --  -88.96197 -19.07179 -19.04475 -19.02218 -19.02091
 Alpha  occ. eigenvalues --  -19.01725 -14.24400 -14.17326 -10.21402 -10.14734
 Alpha  occ. eigenvalues --  -10.13769 -10.13393 -10.10959 -10.10808 -10.08795
 Alpha  occ. eigenvalues --  -10.07964 -10.07284 -10.05806 -10.05515 -10.05345
 Alpha  occ. eigenvalues --   -8.02420  -5.98727  -5.98668  -5.98456  -1.02052
 Alpha  occ. eigenvalues --   -1.01514  -0.96521  -0.92658  -0.91110  -0.83626
 Alpha  occ. eigenvalues --   -0.81986  -0.72047  -0.70427  -0.67937  -0.66359
 Alpha  occ. eigenvalues --   -0.64129  -0.58326  -0.57081  -0.53560  -0.51724
 Alpha  occ. eigenvalues --   -0.50993  -0.49987  -0.48171  -0.44865  -0.43366
 Alpha  occ. eigenvalues --   -0.41654  -0.40307  -0.39822  -0.39243  -0.38589
 Alpha  occ. eigenvalues --   -0.37347  -0.36773  -0.36093  -0.35228  -0.35151
 Alpha  occ. eigenvalues --   -0.33546  -0.33409  -0.33305  -0.32374  -0.30242
 Alpha  occ. eigenvalues --   -0.29920  -0.29125  -0.28659  -0.27700  -0.26779
 Alpha  occ. eigenvalues --   -0.26363  -0.25776  -0.25034  -0.23993  -0.23386
 Alpha  occ. eigenvalues --   -0.22626  -0.21246  -0.20821  -0.19342  -0.18306
 Alpha  occ. eigenvalues --   -0.17066  -0.16870  -0.14307  -0.13674   0.04242
 Alpha virt. eigenvalues --    0.05986   0.07080   0.07631   0.08622   0.08625
 Alpha virt. eigenvalues --    0.08743   0.09163   0.09500   0.09934   0.10253
 Alpha virt. eigenvalues --    0.10908   0.11308   0.12067   0.12209   0.12980

  Beta  occ. eigenvalues --  -88.96195 -19.07142 -19.04473 -19.02220 -19.02087
  Beta  occ. eigenvalues --  -19.01720 -14.24392 -14.17047 -10.21394 -10.14724
  Beta  occ. eigenvalues --  -10.13765 -10.13389 -10.10952 -10.10750 -10.08837
  Beta  occ. eigenvalues --  -10.07696 -10.07299 -10.05885 -10.05264 -10.05210
  Beta  occ. eigenvalues --   -8.02418  -5.98726  -5.98667  -5.98455  -1.02040
  Beta  occ. eigenvalues --   -1.01466  -0.96515  -0.92625  -0.91099  -0.83605
  Beta  occ. eigenvalues --   -0.81535  -0.72008  -0.70315  -0.67491  -0.66311
  Beta  occ. eigenvalues --   -0.63922  -0.58256  -0.57013  -0.53485  -0.51660
  Beta  occ. eigenvalues --   -0.50824  -0.49920  -0.47789  -0.44837  -0.43340
  Beta  occ. eigenvalues --   -0.41628  -0.40203  -0.39795  -0.39178  -0.38567
  Beta  occ. eigenvalues --   -0.37274  -0.36702  -0.36006  -0.35169  -0.35034
  Beta  occ. eigenvalues --   -0.33434  -0.33368  -0.33256  -0.32133  -0.30204
  Beta  occ. eigenvalues --   -0.29889  -0.28988  -0.28555  -0.27486  -0.26381
  Beta  occ. eigenvalues --   -0.26174  -0.25672  -0.25001  -0.23856  -0.23360
  Beta  occ. eigenvalues --   -0.22602  -0.21210  -0.20779  -0.19297  -0.18253
  Beta  occ. eigenvalues --   -0.16860  -0.15687  -0.13557  -0.13326
  Beta virt. eigenvalues --    0.06104   0.07347   0.07700   0.08500   0.08706
  Beta virt. eigenvalues --    0.08815   0.09280   0.09594   0.09742   0.10214
  Beta virt. eigenvalues --    0.10424   0.10997   0.11573   0.12031   0.12256

 Mulliken charges and spin densities:
               1          2
     1  C   -0.078357  -0.455903
     2  C    0.874748   0.359614
     3  C   -1.234862  -0.064049
     4  C   -0.169812  -0.099419
     5  O   -0.126582   0.005383
     6  N    0.147224   0.007754
     7  S    0.507145  -0.245755
     8  O   -0.187329   0.004395
     9  O   -0.112082   0.001587
    10  C    0.040065  -0.521468
    11  C    0.188536  -0.651177
    12  C   -0.279697   0.472011
    13  C   -0.819523   0.452797
    14  C    0.446979  -0.472069
    15  C   -0.292056   0.105602
    16  C   -0.079412  -0.096854
    17  N   -0.039831   0.129084
    18  C   -0.602962  -0.243416
    19  O   -0.162256   0.015509
    20  O   -0.026731  -0.047113
    21  H    0.001004   0.138549
    22  H    0.085777   0.127479
    23  H    0.065027   0.228367
    24  H    0.156056   0.092205
    25  H    0.191960   0.036302
    26  H    0.151870   0.015094
    27  H    0.247554  -0.053355
    28  H    0.148159   0.083055
    29  H   -0.196551   0.440382
    30  H   -0.243549   0.427587
    31  H    0.212734   0.026786
    32  H   -0.177368   0.330005
    33  H    0.083103   0.067979
    34  H   -0.018598   0.151340
    35  H    0.100558   0.059743
    36  H    0.199061   0.171971
 Sum of Mulliken charges =  -1.00000   1.00000

 Dipole moment (field-independent basis, Debye):
    X=              4.2931    Y=              1.4981    Z=              0.1943  Tot=              4.5511
 Quadrupole moment (field-independent basis, Debye-Ang):
   XX=           -172.8419   YY=           -176.2486   ZZ=           -153.4841
   XY=             -2.9084   XZ=             -3.0434   YZ=              1.8093

 Summary of Natural Population Analysis:

                                       Natural Population
                Natural  -----------------------------------------------
    Atom  No    Charge         Core      Valence    Rydberg      Total
 -----------------------------------------------------------------------
      C    1   -0.00276      0.99959     1.99167    0.01150     3.00276
      C    2   -0.16801      0.99953     2.15603    0.01245     3.16801
      C    3   -0.02951      0.99958     2.01429    0.01565     3.02951
      C    4   -0.01398      0.99957     2.00350    0.01091     3.01398
      O    5   -0.29769      0.99989     3.28896    0.00884     4.29769
      N    6   -0.44578      0.99972     2.93361    0.01245     3.94578
      S    7    1.09555      4.99928     1.80600    0.09917     6.90445
      O    8   -0.47205      0.99991     3.46679    0.00535     4.47205
      O    9   -0.46125      0.99991     3.45614    0.00521     4.46125
      C   10   -0.27485      0.99957     2.26401    0.01127     3.27485
      C   11   -0.21933      0.99958     2.20782    0.01192     3.21933
      C   12    0.14261      0.99953     1.84172    0.01614     2.85739
      C   13   -0.13891      0.99950     2.13024    0.00917     3.13891
      C   14   -0.02738      0.99956     2.01744    0.01038     3.02738
      C   15   -0.13677      0.99956     2.12704    0.01017     3.13677
      C   16    0.01342      0.99958     1.97229    0.01471     2.98658
      N   17   -0.22126      0.99968     2.71108    0.01049     3.72126
      C   18    0.41039      0.99968     1.56432    0.02561     2.58961
      O   19   -0.29864      0.99987     3.29255    0.00623     4.29864
      O   20   -0.35433      0.99987     3.34715    0.00730     4.35433
      H   21    0.08064      0.00000     0.41792    0.00144     0.41936
      H   22    0.09530      0.00000     0.40334    0.00136     0.40470
      H   23    0.11859      0.00000     0.38025    0.00116     0.38141
      H   24    0.12020      0.00000     0.37822    0.00158     0.37980
      H   25    0.09366      0.00000     0.40498    0.00137     0.40634
      H   26    0.08520      0.00000     0.41350    0.00130     0.41480
      H   27    0.21256      0.00000     0.28434    0.00311     0.28744
      H   28    0.11466      0.00000     0.38414    0.00121     0.38534
      H   29    0.11641      0.00000     0.38188    0.00170     0.38359
      H   30    0.11122      0.00000     0.38665    0.00213     0.38878
      H   31    0.11817      0.00000     0.38017    0.00165     0.38183
      H   32    0.09882      0.00000     0.40007    0.00111     0.40118
      H   33    0.09714      0.00000     0.40205    0.00081     0.40286
      H   34    0.09937      0.00000     0.39979    0.00084     0.40063
      H   35    0.08556      0.00000     0.41345    0.00099     0.41444
      H   36    0.25303      0.00000     0.24291    0.00406     0.24697
 =======================================================================
   * Total *    0.00000     23.99295    54.66632    0.34073    79.00000

 Normal termination of Gaussian 16 at Sun Dec 13 23:10:06 2020.
