 Gaussian 16, Revision A.03,

 -----------------------------------------------------------
 # opt freq B3LYP/6-31G(d) empiricaldispersion=gd3bj scf=xqc
 -----------------------------------------------------------

 ------------------------------
 CID_65222240_JID_5307_neutraal
 ------------------------------
 Symbolic Z-matrix:
 Charge =  0 Multiplicity = 1

 SCF Done:  E(RB3LYP) =  -1106.99791301     A.U. after   14 cycles
 SCF Done:  E(RB3LYP) =  -1107.00540158     A.U. after   12 cycles
 SCF Done:  E(RB3LYP) =  -1107.00652774     A.U. after   13 cycles
 SCF Done:  E(RB3LYP) =  -1107.00675124     A.U. after   12 cycles
 SCF Done:  E(RB3LYP) =  -1107.00778695     A.U. after   12 cycles
 SCF Done:  E(RB3LYP) =  -1107.00840287     A.U. after   12 cycles
 SCF Done:  E(RB3LYP) =  -1107.00928710     A.U. after   14 cycles
 SCF Done:  E(RB3LYP) =  -1107.01007040     A.U. after   12 cycles
 SCF Done:  E(RB3LYP) =  -1107.01046941     A.U. after   12 cycles
 SCF Done:  E(RB3LYP) =  -1107.01100086     A.U. after   12 cycles
 SCF Done:  E(RB3LYP) =  -1107.01157978     A.U. after   11 cycles
 SCF Done:  E(RB3LYP) =  -1107.01158387     A.U. after   10 cycles
 SCF Done:  E(RB3LYP) =  -1107.01158779     A.U. after   10 cycles
 SCF Done:  E(RB3LYP) =  -1107.01158877     A.U. after    9 cycles
 SCF Done:  E(RB3LYP) =  -1107.01158894     A.U. after    8 cycles
 Optimization completed.
    -- Stationary point found.
 Normal termination of Gaussian 16 at Thu Dec 10 15:34:50 2020.

 --------------------------------------------------------------------
 #N Geom=AllCheck Guess=TCheck SCRF=Check GenChk RB3LYP/6-31G(d) Freq
 --------------------------------------------------------------------

 Structure from the checkpoint file:  "JID_5307.chk"
 ------------------------------
 CID_65222240_JID_5307_neutraal
 ------------------------------
 Charge =  0 Multiplicity = 1

 SCF Done:  E(RB3LYP) =  -1107.01158894     A.U. after    1 cycles

  Exact polarizability: 148.082  -6.992 120.818   0.618   1.945 106.278
 Approx polarizability: 189.674  -0.181 171.328   5.474  -2.409 173.780

                      1                      2                      3
                      A                      A                      A
 Frequencies --     20.1511                36.2193                49.5838
 Red. masses --      5.4414                 5.9279                 3.9399
 Frc consts  --      0.0013                 0.0046                 0.0057
 IR Inten    --      0.9134                 0.5691                 0.4792

                      4                      5                      6
                      A                      A                      A
 Frequencies --     58.0787                83.0812                97.4664
 Red. masses --      3.7117                 3.6496                 3.1194
 Frc consts  --      0.0074                 0.0148                 0.0175
 IR Inten    --      1.3105                 0.0222                 3.6028

                      7                      8                      9
                      A                      A                      A
 Frequencies --    116.7563               158.2406               175.5819
 Red. masses --      4.3136                 3.1833                 2.6513
 Frc consts  --      0.0346                 0.0470                 0.0482
 IR Inten    --      1.0822                 0.1595                 1.1664

                     10                     11                     12
                      A                      A                      A
 Frequencies --    204.8332               218.0603               228.4699
 Red. masses --      3.3375                 2.9110                 5.3092
 Frc consts  --      0.0825                 0.0816                 0.1633
 IR Inten    --      1.6482                 2.8157                 2.1598

                     13                     14                     15
                      A                      A                      A
 Frequencies --    249.4379               309.7309               322.7504
 Red. masses --      1.7576                 2.3246                 4.2494
 Frc consts  --      0.0644                 0.1314                 0.2608
 IR Inten    --      0.4334                 0.5745                 2.8577

                     16                     17                     18
                      A                      A                      A
 Frequencies --    331.7196               365.3523               400.6070
 Red. masses --      3.5492                 2.5207                 3.2547
 Frc consts  --      0.2301                 0.1982                 0.3077
 IR Inten    --      2.0346                16.9799                10.1411

                     19                     20                     21
                      A                      A                      A
 Frequencies --    405.0667               446.0235               481.1096
 Red. masses --      3.3605                 2.6612                 5.3838
 Frc consts  --      0.3249                 0.3119                 0.7342
 IR Inten    --     17.0761                 5.6170                 8.7040

                     22                     23                     24
                      A                      A                      A
 Frequencies --    531.1376               575.9971               588.1945
 Red. masses --      4.5133                 2.3131                 2.7357
 Frc consts  --      0.7502                 0.4522                 0.5577
 IR Inten    --     27.8886                31.8599                57.9622

                     25                     26                     27
                      A                      A                      A
 Frequencies --    607.4185               657.3841               688.6258
 Red. masses --      2.5757                 1.9201                 2.7415
 Frc consts  --      0.5599                 0.4889                 0.7659
 IR Inten    --     90.5017                22.5151                33.1718

                     28                     29                     30
                      A                      A                      A
 Frequencies --    733.8035               752.3675               789.4904
 Red. masses --      2.9306                 1.5917                 1.2619
 Frc consts  --      0.9298                 0.5308                 0.4634
 IR Inten    --     50.1415                47.2719                20.2476

                     31                     32                     33
                      A                      A                      A
 Frequencies --    799.8516               843.5378               857.5752
 Red. masses --      1.5735                 1.3220                 1.8206
 Frc consts  --      0.5931                 0.5542                 0.7889
 IR Inten    --     74.5597                 4.7123                83.2787

                     34                     35                     36
                      A                      A                      A
 Frequencies --    883.2214               919.5388               922.3131
 Red. masses --      2.4130                 3.2481                 2.6384
 Frc consts  --      1.1090                 1.6182                 1.3224
 IR Inten    --      3.3444                27.3378                46.8363

                     37                     38                     39
                      A                      A                      A
 Frequencies --    942.6788               955.9388              1014.0147
 Red. masses --      1.8043                 3.9132                 1.9477
 Frc consts  --      0.9447                 2.1069                 1.1799
 IR Inten    --     13.1106                 0.7309                29.9087

                     40                     41                     42
                      A                      A                      A
 Frequencies --   1065.5755              1072.6473              1077.3724
 Red. masses --      1.6853                 1.9202                 1.5316
 Frc consts  --      1.1274                 1.3017                 1.0474
 IR Inten    --     12.9438                 7.8462                37.8968

                     43                     44                     45
                      A                      A                      A
 Frequencies --   1093.8787              1101.7405              1101.9475
 Red. masses --      1.5511                 1.9650                 1.5384
 Frc consts  --      1.0935                 1.4053                 1.1006
 IR Inten    --     20.2889                28.9204                11.6848

                     46                     47                     48
                      A                      A                      A
 Frequencies --   1123.7048              1137.6646              1151.3828
 Red. masses --      3.4023                 1.1637                 2.4560
 Frc consts  --      2.5312                 0.8874                 1.9183
 IR Inten    --    151.0369                 7.9321                40.8216

                     49                     50                     51
                      A                      A                      A
 Frequencies --   1157.8623              1191.2716              1210.1246
 Red. masses --      2.2366                 2.0350                 1.3581
 Frc consts  --      1.7666                 1.7015                 1.1718
 IR Inten    --     10.1240               204.1577                 1.2692

                     52                     53                     54
                      A                      A                      A
 Frequencies --   1234.6817              1249.3690              1288.1438
 Red. masses --      1.9865                 1.3727                 1.2668
 Frc consts  --      1.7842                 1.2624                 1.2385
 IR Inten    --      6.7675                 2.5810                19.8485

                     55                     56                     57
                      A                      A                      A
 Frequencies --   1298.0124              1317.1147              1326.8587
 Red. masses --      1.5119                 3.1560                 1.3371
 Frc consts  --      1.5009                 3.2258                 1.3869
 IR Inten    --     25.8926               108.8422                15.7882

                     58                     59                     60
                      A                      A                      A
 Frequencies --   1357.4021              1362.1216              1387.7470
 Red. masses --      1.3820                 1.7144                 1.7217
 Frc consts  --      1.5002                 1.8741                 1.9536
 IR Inten    --      0.2015                33.2877                23.5919

                     61                     62                     63
                      A                      A                      A
 Frequencies --   1401.1624              1412.4572              1422.1457
 Red. masses --      1.3551                 1.4696                 1.6475
 Frc consts  --      1.5675                 1.7275                 1.9631
 IR Inten    --      6.3568                 7.1490                23.2759

                     64                     65                     66
                      A                      A                      A
 Frequencies --   1446.1430              1452.1758              1483.7382
 Red. masses --      1.2624                 1.2794                 1.0878
 Frc consts  --      1.5555                 1.5897                 1.4110
 IR Inten    --      7.2101                42.8815                 3.3177

                     67                     68                     69
                      A                      A                      A
 Frequencies --   1513.2608              1521.7485              1523.7363
 Red. masses --      1.0724                 1.0749                 1.3143
 Frc consts  --      1.4468                 1.4666                 1.7978
 IR Inten    --      4.5013                 2.8432                 0.4030

                     70                     71                     72
                      A                      A                      A
 Frequencies --   1530.3218              1533.9715              1540.2327
 Red. masses --      1.0630                 1.0579                 1.0723
 Frc consts  --      1.4668                 1.4666                 1.4989
 IR Inten    --     14.4503                 5.8192                 8.7520

                     73                     74                     75
                      A                      A                      A
 Frequencies --   1831.2871              3032.7492              3035.2677
 Red. masses --      9.7523                 1.0782                 1.0662
 Frc consts  --     19.2694                 5.8429                 5.7875
 IR Inten    --    301.5749                12.8461                21.1133

                     76                     77                     78
                      A                      A                      A
 Frequencies --   3047.9241              3061.6992              3071.4032
 Red. masses --      1.0372                 1.0759                 1.0775
 Frc consts  --      5.6769                 5.9422                 5.9890
 IR Inten    --     26.4036                11.9711                21.5893

                     79                     80                     81
                      A                      A                      A
 Frequencies --   3074.6882              3109.6489              3114.7307
 Red. masses --      1.0779                 1.1023                 1.1017
 Frc consts  --      6.0039                 6.2803                 6.2971
 IR Inten    --     43.9742                15.5262                66.3190

                     82                     83                     84
                      A                      A                      A
 Frequencies --   3119.8207              3160.6387              3161.5843
 Red. masses --      1.1015                 1.0943                 1.0527
 Frc consts  --      6.3166                 6.4409                 6.1995
 IR Inten    --     37.4270                 1.2752                 9.3564

                     85                     86                     87
                      A                      A                      A
 Frequencies --   3164.8659              3235.2009              3243.6847
 Red. masses --      1.0561                 1.0922                 1.1199
 Frc consts  --      6.2324                 6.7354                 6.9423
 IR Inten    --      9.7972                 9.1014                 0.7009

                     88                     89                     90
                      A                      A                      A
 Frequencies --   3256.1549              3562.4452              3683.4567
 Red. masses --      1.1152                 1.0756                 1.0640
 Frc consts  --      6.9663                 8.0427                 8.5056
 IR Inten    --      3.1490                26.3069                49.7859

 - Thermochemistry -
 -------------------
 Temperature   298.150 Kelvin.  Pressure   1.00000 Atm.
 Atom     1 has atomic number  6 and mass  12.00000

 Molecular mass:   235.08783 amu.
 Principal axes and moments of inertia in atomic units:
                           1         2         3
     Eigenvalues --  2249.655255383.373276411.14621
           X            0.99904  -0.04354  -0.00466
           Y            0.04357   0.99903   0.00590
           Z            0.00440  -0.00609   0.99997
 This molecule is an asymmetric top.
 Rotational symmetry number  1.
 Warning -- assumption of classical behavior for rotation
           may cause significant error
 Rotational temperatures (Kelvin)      0.03850     0.01609     0.01351
 Rotational constants (GHZ):           0.80223     0.33524     0.28150
 Zero-point vibrational energy     705057.3 (Joules/Mol)
                                  168.51274 (Kcal/Mol)
 Warning -- explicit consideration of  25 degrees of freedom as
           vibrations may cause significant error
 Vibrational temperatures:     28.99    52.11    71.34    83.56   119.54
          (Kelvin)            140.23   167.99   227.67   252.62   294.71
                              313.74   328.72   358.89   445.63   464.37
                              477.27   525.66   576.38   582.80   641.73
                              692.21   764.19   828.73   846.28   873.94
                              945.83   990.78  1055.78  1082.49  1135.90
                             1150.81  1213.66  1233.86  1270.76  1323.01
                             1327.00  1356.30  1375.38  1458.94  1533.13
                             1543.30  1550.10  1573.85  1585.16  1585.46
                             1616.76  1636.85  1656.58  1665.91  1713.97
                             1741.10  1776.43  1797.56  1853.35  1867.55
                             1895.03  1909.05  1953.00  1959.79  1996.66
                             2015.96  2032.21  2046.15  2080.68  2089.36
                             2134.77  2177.24  2189.46  2192.32  2201.79
                             2207.04  2216.05  2634.81  4363.45  4367.07
                             4385.28  4405.10  4419.06  4423.79  4474.09
                             4481.40  4488.73  4547.45  4548.81  4553.54
                             4654.73  4666.94  4684.88  5125.56  5299.67

 Zero-point correction=                           0.268542 (Hartree/Particle)
 Thermal correction to Energy=                    0.285119
 Thermal correction to Enthalpy=                  0.286063
 Thermal correction to Gibbs Free Energy=         0.222532
 Sum of electronic and zero-point Energies=          -1106.743047
 Sum of electronic and thermal Energies=             -1106.726470
 Sum of electronic and thermal Enthalpies=           -1106.725526
 Sum of electronic and thermal Free Energies=        -1106.789056

                     E (Thermal)             CV                S
                      KCal/Mol        Cal/Mol-Kelvin    Cal/Mol-Kelvin
 Total                  178.915             60.930            133.712
 Electronic               0.000              0.000              0.000
 Translational            0.889              2.981             42.266
 Rotational               0.889              2.981             32.718
 Vibrational            177.137             54.968             58.728
 Vibration     1          0.593              1.986              6.619
 Vibration     2          0.594              1.982              5.456
 Vibration     3          0.595              1.978              4.834
 Vibration     4          0.596              1.974              4.521
 Vibration     5          0.600              1.961              3.817
 Vibration     6          0.603              1.951              3.504
 Vibration     7          0.608              1.935              3.153
 Vibration     8          0.621              1.893              2.571
 Vibration     9          0.628              1.872              2.375
 Vibration    10          0.640              1.833              2.089
 Vibration    11          0.646              1.814              1.975
 Vibration    12          0.651              1.798              1.891
 Vibration    13          0.662              1.764              1.735
 Vibration    14          0.699              1.655              1.364
 Vibration    15          0.708              1.630              1.296
 Vibration    16          0.714              1.612              1.252
 Vibration    17          0.739              1.544              1.099
 Vibration    18          0.766              1.469              0.960
 Vibration    19          0.770              1.459              0.944
 Vibration    20          0.805              1.370              0.808
 Vibration    21          0.837              1.292              0.707
 Vibration    22          0.886              1.181              0.585
 Vibration    23          0.932              1.083              0.493
 Vibration    24          0.945              1.057              0.470
 Vibration    25          0.966              1.016              0.437

 Optimization completed.
    -- Stationary point found.
 Normal termination of Gaussian 16 at Thu Dec 10 15:45:12 2020.

 ----------------------------------------------------------------------
 # B3LYP/6-311++G(d,p) empiricaldispersion=gd3bj scf=xqc pop=npa geom=c
 heck
 ----------------------------------------------------------------------

 --------------------------------------
 CID_65222240_JID_5307_Energie_neutraal
 --------------------------------------
 Structure from the checkpoint file:  "JID_5307.chk"
 Charge =  0 Multiplicity = 1

 SCF Done:  E(RB3LYP) =  -1107.25706380     A.U. after   14 cycles
 Normal termination of Gaussian 16 at Thu Dec 10 15:50:15 2020.

 ----------------------------------------------------------------------
 # B3LYP/6-311++G(d,p) empiricaldispersion=gd3bj scf=xqc pop=npa geom=c
 heck
 ----------------------------------------------------------------------

 ------------------------------------
 CID_65222240_JID_5307_Energie_kation
 ------------------------------------
 Structure from the checkpoint file:  "JID_5307.chk"
 Charge =  1 Multiplicity = 2

 SCF Done:  E(UB3LYP) =  -1106.91373883     A.U. after   24 cycles
 Normal termination of Gaussian 16 at Thu Dec 10 16:01:36 2020.
 Gaussian 16:  ES64L-G16RevA.03 25-Dec-2016

 ----------------------------------------------------------------------
 # B3LYP/6-311++G(d,p) empiricaldispersion=gd3bj scf=xqc pop=npa geom=c
 heck
 ----------------------------------------------------------------------

 -----------------------------------
 CID_65222240_JID_5307_Energie_anion
 -----------------------------------
 Structure from the checkpoint file:  "JID_5307.chk"
 Charge = -1 Multiplicity = 2

                         Standard orientation:
 ---------------------------------------------------------------------
 Center     Atomic      Atomic             Coordinates (Angstroms)
 Number     Number       Type             X           Y           Z
 ---------------------------------------------------------------------
      1          6           0        4.325506   -1.527217    0.013664
      2          6           0        3.186683   -1.315687    1.015265
      3          6           0        2.533665    0.071998    0.939897
      4          6           0        1.907829    0.407841   -0.431256
      5          6           0        0.868645   -0.617355   -0.899745
      6          7           0       -0.162812   -0.834738    0.120866
      7         16           0       -1.789449   -0.903864   -0.338278
      8          8           0       -1.880878   -0.996069   -1.798957
      9          8           0       -2.387754   -1.926927    0.532084
     10          6           0       -2.424983    0.680753    0.155391
     11          6           0       -3.880088    0.755105    0.536850
     12          6           0       -2.814095    0.889712    1.591982
     13          6           0        1.306188    1.802244   -0.443389
     14          8           0        0.222890    2.109058   -0.895571
     15          8           0        2.143196    2.726028    0.086684
     16          1           0        3.968444   -1.510537   -1.022462
     17          1           0        4.815283   -2.493501    0.173742
     18          1           0        5.086865   -0.744258    0.114575
     19          1           0        2.430928   -2.101476    0.879315
     20          1           0        3.572218   -1.449265    2.033730
     21          1           0        1.750730    0.148251    1.703480
     22          1           0        3.281085    0.835319    1.177914
     23          1           0        2.711990    0.431896   -1.181366
     24          1           0        0.377662   -0.265457   -1.807478
     25          1           0        1.366269   -1.561039   -1.147972
     26          1           0        0.008833   -1.613139    0.749846
     27          1           0       -1.954172    1.480676   -0.404008
     28          1           0       -4.425931    1.635127    0.211451
     29          1           0       -4.446316   -0.170679    0.526522
     30          1           0       -2.686781    0.052189    2.270246
     31          1           0       -2.603982    1.867411    2.014883
     32          1           0        1.682017    3.582402    0.008086
 ---------------------------------------------------------------------

 SCF Done:  E(UB3LYP) =  -1107.24900508     A.U. after   33 cycles
 SCF Done:  E(UB3LYP) =  -1107.24900508     a.u. after    1 cycles

 The electronic state is 2-A.
 Alpha  occ. eigenvalues --  -88.97371 -19.07185 -19.02909 -19.02843 -19.02255
 Alpha  occ. eigenvalues --  -14.25168 -10.21262 -10.12513 -10.12093 -10.10889
 Alpha  occ. eigenvalues --  -10.10497 -10.10157 -10.07810 -10.07739 -10.06630
 Alpha  occ. eigenvalues --   -8.03553  -5.99848  -5.99811  -5.99611  -1.03023
 Alpha  occ. eigenvalues --   -1.01557  -0.92648  -0.92122  -0.83727  -0.79803
 Alpha  occ. eigenvalues --   -0.72846  -0.67201  -0.62503  -0.59100  -0.57094
 Alpha  occ. eigenvalues --   -0.53476  -0.50665  -0.49961  -0.47599  -0.45818
 Alpha  occ. eigenvalues --   -0.43620  -0.41912  -0.41587  -0.39754  -0.38868
 Alpha  occ. eigenvalues --   -0.38162  -0.36149  -0.35000  -0.34474  -0.33730
 Alpha  occ. eigenvalues --   -0.32954  -0.31719  -0.30066  -0.29708  -0.29379
 Alpha  occ. eigenvalues --   -0.27549  -0.26341  -0.25506  -0.25102  -0.24813
 Alpha  occ. eigenvalues --   -0.24330  -0.23887  -0.23054  -0.22939  -0.22383
 Alpha  occ. eigenvalues --   -0.21203  -0.19209  -0.18016   0.03984
 Alpha virt. eigenvalues --    0.05857   0.06722   0.07197   0.07973   0.08643
 Alpha virt. eigenvalues --    0.08719   0.09226   0.09564   0.10690   0.11054
 Alpha virt. eigenvalues --    0.11207   0.11587   0.12463   0.12707   0.13517

  Beta  occ. eigenvalues --  -88.97370 -19.07126 -19.02905 -19.02838 -19.02229
  Beta  occ. eigenvalues --  -14.25158 -10.21243 -10.12511 -10.12081 -10.10884
  Beta  occ. eigenvalues --  -10.10482 -10.10138 -10.07787 -10.07719 -10.06586
  Beta  occ. eigenvalues --   -8.03552  -5.99847  -5.99810  -5.99610  -1.03013
  Beta  occ. eigenvalues --   -1.01472  -0.92572  -0.92112  -0.83710  -0.79795
  Beta  occ. eigenvalues --   -0.72803  -0.67151  -0.62473  -0.59053  -0.57007
  Beta  occ. eigenvalues --   -0.53445  -0.50563  -0.49928  -0.47521  -0.45806
  Beta  occ. eigenvalues --   -0.43580  -0.41884  -0.41561  -0.39715  -0.38830
  Beta  occ. eigenvalues --   -0.38117  -0.36131  -0.34931  -0.34431  -0.33713
  Beta  occ. eigenvalues --   -0.32902  -0.31679  -0.30045  -0.29669  -0.29316
  Beta  occ. eigenvalues --   -0.27518  -0.26330  -0.25493  -0.25056  -0.24794
  Beta  occ. eigenvalues --   -0.24288  -0.23835  -0.23010  -0.22911  -0.22365
  Beta  occ. eigenvalues --   -0.21192  -0.19161  -0.17988
  Beta virt. eigenvalues --    0.06261   0.06667   0.07470   0.07732   0.08392
  Beta virt. eigenvalues --    0.08910   0.09091   0.09382   0.10198   0.11036
  Beta virt. eigenvalues --    0.11180   0.11389   0.11926   0.12590   0.13059

 Mulliken charges and spin densities:
               1          2
     1  C    1.273477  -1.882814
     2  C   -1.075214   0.944244
     3  C    0.490963  -0.968806
     4  C    0.684443  -0.033891
     5  C    0.011337  -0.755407
     6  N   -0.393023   0.147422
     7  S    0.511356  -0.424117
     8  O   -0.157596   0.000024
     9  O   -0.294427   0.004063
    10  C   -0.556641   0.441224
    11  C   -0.209646  -0.176175
    12  C    0.156382  -0.503104
    13  C    0.111027  -0.422901
    14  O   -0.282798   0.018804
    15  O   -0.191009   0.050964
    16  H   -0.180539   0.315344
    17  H   -0.447176   0.594984
    18  H   -0.121912   0.265523
    19  H    0.024518   0.068563
    20  H   -0.406647   0.583263
    21  H   -0.021977   0.191323
    22  H   -0.074661   0.279918
    23  H   -0.220700   0.461145
    24  H    0.312040  -0.071532
    25  H    0.154990   0.073783
    26  H    0.144015   0.184035
    27  H    0.171679   0.209443
    28  H    0.084735   0.056642
    29  H    0.133256   0.040138
    30  H    0.129487   0.066235
    31  H   -0.201160   0.379709
    32  H   -0.558580   0.861954
 Sum of Mulliken charges =  -1.00000   1.00000

 Dipole moment (field-independent basis, Debye):
    X=             -6.1466    Y=             -1.9962    Z=             -0.3635  Tot=              6.4729
 Quadrupole moment (field-independent basis, Debye-Ang):
   XX=           -171.6850   YY=           -160.0761   ZZ=           -131.9813
   XY=             -3.4782   XZ=             -7.0742   YZ=             -2.2423

 Summary of Natural Population Analysis:

                                       Natural Population
                Natural  -----------------------------------------------
    Atom  No    Charge         Core      Valence    Rydberg      Total
 -----------------------------------------------------------------------
      C    1   -0.28815      0.99967     2.28319    0.00529     3.28815
      C    2   -0.19082      0.99964     2.18303    0.00816     3.19082
      C    3   -0.19039      0.99961     2.18125    0.00953     3.19039
      C    4   -0.15979      0.99953     2.14809    0.01216     3.15979
      C    5   -0.09580      0.99959     2.08400    0.01220     3.09580
      N    6   -0.44101      0.99974     2.92904    0.01223     3.94101
      S    7    1.10558      4.99925     1.79639    0.09878     6.89442
      O    8   -0.46151      0.99991     3.45664    0.00496     4.46151
      O    9   -0.47448      0.99991     3.46927    0.00530     4.47448
      C   10   -0.22907      0.99950     2.21368    0.01590     3.22907
      C   11   -0.19606      0.99962     2.18710    0.00934     3.19606
      C   12   -0.19532      0.99962     2.18576    0.00995     3.19532
      C   13    0.42057      0.99968     1.55433    0.02542     2.57943
      O   14   -0.31717      0.99986     3.31046    0.00684     4.31717
      O   15   -0.34240      0.99988     3.33552    0.00700     4.34240
      H   16    0.09453      0.00000     0.40428    0.00119     0.40547
      H   17    0.10200      0.00000     0.39664    0.00136     0.39800
      H   18    0.09903      0.00000     0.39973    0.00123     0.40097
      H   19    0.08824      0.00000     0.41032    0.00145     0.41176
      H   20    0.10041      0.00000     0.39836    0.00123     0.39959
      H   21    0.10245      0.00000     0.39582    0.00173     0.39755
      H   22    0.10963      0.00000     0.38861    0.00176     0.39037
      H   23    0.11833      0.00000     0.38012    0.00155     0.38167
      H   24    0.11937      0.00000     0.37923    0.00140     0.38063
      H   25    0.09699      0.00000     0.40177    0.00124     0.40301
      H   26    0.20011      0.00000     0.29784    0.00204     0.29989
      H   27    0.13783      0.00000     0.36083    0.00135     0.36217
      H   28    0.10592      0.00000     0.39331    0.00077     0.39408
      H   29    0.11189      0.00000     0.38714    0.00097     0.38811
      H   30    0.11303      0.00000     0.38596    0.00101     0.38697
      H   31    0.10974      0.00000     0.38911    0.00114     0.39026
      H   32    0.24631      0.00000     0.22865    0.02504     0.25369
 =======================================================================
   * Total *    0.00000     18.99501    43.71547    0.28952    63.00000

 Normal termination of Gaussian 16 at Thu Dec 10 16:17:12 2020.
