 Gaussian 16, Revision A.03,

 -----------------------------------------------------------
 # opt freq B3LYP/6-31G(d) empiricaldispersion=gd3bj scf=xqc
 -----------------------------------------------------------

 ------------------------------
 CID_61501733_JID_9701_neutraal
 ------------------------------
 Symbolic Z-matrix:
 Charge =  0 Multiplicity = 1

 SCF Done:  E(RB3LYP) =  -1504.44819792     A.U. after   16 cycles
 SCF Done:  E(RB3LYP) =  -1504.45430629     A.U. after   15 cycles
 SCF Done:  E(RB3LYP) =  -1504.45200764     A.U. after   14 cycles
 SCF Done:  E(RB3LYP) =  -1504.45543114     A.U. after   12 cycles
 SCF Done:  E(RB3LYP) =  -1504.45625204     A.U. after   13 cycles
 SCF Done:  E(RB3LYP) =  -1504.45640707     A.U. after   12 cycles
 SCF Done:  E(RB3LYP) =  -1504.45643012     A.U. after   11 cycles
 SCF Done:  E(RB3LYP) =  -1504.45644868     A.U. after   11 cycles
 SCF Done:  E(RB3LYP) =  -1504.45646712     A.U. after   11 cycles
 SCF Done:  E(RB3LYP) =  -1504.45647572     A.U. after   11 cycles
 SCF Done:  E(RB3LYP) =  -1504.45648339     A.U. after   10 cycles
 SCF Done:  E(RB3LYP) =  -1504.45648863     A.U. after   10 cycles
 SCF Done:  E(RB3LYP) =  -1504.45649150     A.U. after    9 cycles
 SCF Done:  E(RB3LYP) =  -1504.45649219     A.U. after    8 cycles
 SCF Done:  E(RB3LYP) =  -1504.45649228     A.U. after    7 cycles
 SCF Done:  E(RB3LYP) =  -1504.45649230     A.U. after    7 cycles
 Optimization completed.
    -- Stationary point found.
 Normal termination of Gaussian 16 at Sat Dec 12 10:05:17 2020.

 --------------------------------------------------------------------
 #N Geom=AllCheck Guess=TCheck SCRF=Check GenChk RB3LYP/6-31G(d) Freq
 --------------------------------------------------------------------

 Structure from the checkpoint file:  "JID_9701.chk"
 ------------------------------
 CID_61501733_JID_9701_neutraal
 ------------------------------
 Charge =  0 Multiplicity = 1

 SCF Done:  E(RB3LYP) =  -1504.45649230     A.U. after    1 cycles

  Exact polarizability: 256.542  -6.678 205.203  25.634  12.182 141.499
 Approx polarizability: 353.418   7.598 345.450  62.973  50.895 265.265

                      1                      2                      3
                      A                      A                      A
 Frequencies --     15.1084                31.0553                51.9499
 Red. masses --      5.9412                 3.9135                 5.9284
 Frc consts  --      0.0008                 0.0022                 0.0094
 IR Inten    --      0.2117                 0.8888                 1.2801

                      4                      5                      6
                      A                      A                      A
 Frequencies --     54.3525                93.8743               112.9504
 Red. masses --      6.2443                 5.5672                 4.5370
 Frc consts  --      0.0109                 0.0289                 0.0341
 IR Inten    --      0.9370                 0.8577                 2.1707

                      7                      8                      9
                      A                      A                      A
 Frequencies --    115.3529               138.8526               217.4529
 Red. masses --      4.4479                 4.3343                 5.3687
 Frc consts  --      0.0349                 0.0492                 0.1496
 IR Inten    --      0.4740                 0.1732                 4.2155

                     10                     11                     12
                      A                      A                      A
 Frequencies --    224.4359               236.1621               248.5219
 Red. masses --      5.0790                 1.1079                 3.9952
 Frc consts  --      0.1507                 0.0364                 0.1454
 IR Inten    --      3.4170                 0.3506                 0.7135

                     13                     14                     15
                      A                      A                      A
 Frequencies --    267.8923               289.8924               302.8797
 Red. masses --      2.0205                 1.4083                 1.0474
 Frc consts  --      0.0854                 0.0697                 0.0566
 IR Inten    --      2.5810                 0.6618                 0.0025

                     16                     17                     18
                      A                      A                      A
 Frequencies --    314.5732               324.4574               330.8840
 Red. masses --      3.2533                 3.1191                 4.7461
 Frc consts  --      0.1897                 0.1935                 0.3062
 IR Inten    --      0.3759                 1.0729                 0.7245

                     19                     20                     21
                      A                      A                      A
 Frequencies --    360.3935               392.5340               406.5115
 Red. masses --      3.1810                 3.4518                 2.8357
 Frc consts  --      0.2434                 0.3134                 0.2761
 IR Inten    --      2.5359                 5.0667                 1.0534

                     22                     23                     24
                      A                      A                      A
 Frequencies --    418.1871               455.9634               479.0030
 Red. masses --      3.4526                 4.1001                 2.2044
 Frc consts  --      0.3557                 0.5022                 0.2980
 IR Inten    --      4.5825                 8.8424                21.7812

                     25                     26                     27
                      A                      A                      A
 Frequencies --    488.0916               531.8725               542.2729
 Red. masses --      2.4456                 2.1550                 5.1732
 Frc consts  --      0.3433                 0.3592                 0.8963
 IR Inten    --     36.3461               153.5751                13.2838

                     28                     29                     30
                      A                      A                      A
 Frequencies --    547.4663               554.1405               589.0461
 Red. masses --      2.5039                 3.3053                 4.4956
 Frc consts  --      0.4422                 0.5980                 0.9190
 IR Inten    --     87.7345                 7.8240                11.1736

                     31                     32                     33
                      A                      A                      A
 Frequencies --    616.5745               638.9226               656.4873
 Red. masses --      5.5483                 5.3354                 1.0964
 Frc consts  --      1.2427                 1.2833                 0.2784
 IR Inten    --     22.4582                 9.7936                31.8510

                     34                     35                     36
                      A                      A                      A
 Frequencies --    686.1494               704.9724               719.5269
 Red. masses --      4.8149                 2.6450                 2.6885
 Frc consts  --      1.3356                 0.7745                 0.8201
 IR Inten    --     35.4261                59.7323                 3.4632

                     37                     38                     39
                      A                      A                      A
 Frequencies --    729.2633               738.2681               773.6683
 Red. masses --      3.8941                 2.2349                 3.7305
 Frc consts  --      1.2202                 0.7177                 1.3156
 IR Inten    --     28.6940                 9.4903                 8.4084

                     40                     41                     42
                      A                      A                      A
 Frequencies --    782.2535               814.1846               860.1991
 Red. masses --      1.3910                 3.5445                 3.2322
 Frc consts  --      0.5015                 1.3844                 1.4091
 IR Inten    --     34.5495                 4.8557                 2.7984

                     43                     44                     45
                      A                      A                      A
 Frequencies --    873.3363               892.2334               929.1531
 Red. masses --      2.5841                 2.0262                 3.1704
 Frc consts  --      1.1612                 0.9504                 1.6126
 IR Inten    --      8.5730                 1.8018                25.1357

                     46                     47                     48
                      A                      A                      A
 Frequencies --    944.3698               955.8355               965.0089
 Red. masses --      1.7820                 1.7136                 1.3584
 Frc consts  --      0.9364                 0.9224                 0.7453
 IR Inten    --      0.6106                 1.5566                 1.0161

                     49                     50                     51
                      A                      A                      A
 Frequencies --    976.0543               977.6880               997.9568
 Red. masses --      3.9452                 1.1990                 1.3075
 Frc consts  --      2.2145                 0.6753                 0.7672
 IR Inten    --     22.2704                 0.0448                 0.4788

                     52                     53                     54
                      A                      A                      A
 Frequencies --   1060.2816              1061.7567              1079.9415
 Red. masses --      1.4037                 1.3967                 2.3821
 Frc consts  --      0.9298                 0.9277                 1.6368
 IR Inten    --      3.4057                 0.0537                 3.4901

                     55                     56                     57
                      A                      A                      A
 Frequencies --   1118.2040              1142.1129              1180.3096
 Red. masses --      2.2856                 1.5318                 1.6479
 Frc consts  --      1.6838                 1.1772                 1.3526
 IR Inten    --     32.9674                23.2151                 3.0904

                     58                     59                     60
                      A                      A                      A
 Frequencies --   1199.2494              1236.9219              1245.1046
 Red. masses --      1.1066                 3.3134                 2.6682
 Frc consts  --      0.9377                 2.9868                 2.4371
 IR Inten    --      0.4302                21.6068                 3.0173

                     61                     62                     63
                      A                      A                      A
 Frequencies --   1250.3900              1274.5011              1287.6763
 Red. masses --      2.6741                 2.1858                 1.9632
 Frc consts  --      2.4633                 2.0919                 1.9179
 IR Inten    --     35.6912                33.8011                23.6181

                     64                     65                     66
                      A                      A                      A
 Frequencies --   1315.9763              1328.8707              1352.1397
 Red. masses --      2.7966                 4.2570                 4.0438
 Frc consts  --      2.8535                 4.4292                 4.3560
 IR Inten    --     41.9609               113.9475                19.3616

                     67                     68                     69
                      A                      A                      A
 Frequencies --   1363.7866              1409.6756              1418.7159
 Red. masses --      4.2558                 3.2269                 1.2208
 Frc consts  --      4.6637                 3.7781                 1.4477
 IR Inten    --     70.1924               111.4898                 5.0436

                     70                     71                     72
                      A                      A                      A
 Frequencies --   1424.5546              1439.9767              1452.7915
 Red. masses --      1.2503                 1.5971                 1.2360
 Frc consts  --      1.4950                 1.9512                 1.5370
 IR Inten    --      4.6975                11.7898                10.3428

                     73                     74                     75
                      A                      A                      A
 Frequencies --   1507.7244              1508.3591              1521.8254
 Red. masses --      1.0496                 2.6572                 1.0459
 Frc consts  --      1.4058                 3.5619                 1.4272
 IR Inten    --      0.0605                30.2173                 0.0539

                     76                     77                     78
                      A                      A                      A
 Frequencies --   1522.5954              1529.9631              1530.8518
 Red. masses --      1.0542                 1.5248                 1.5059
 Frc consts  --      1.4399                 2.1029                 2.0792
 IR Inten    --      5.1294                82.0594                54.0355

                     79                     80                     81
                      A                      A                      A
 Frequencies --   1534.2291              1548.4048              1575.4499
 Red. masses --      1.0500                 1.2566                 3.3858
 Frc consts  --      1.4563                 1.7750                 4.9514
 IR Inten    --      5.3216                21.2041                26.9669

                     82                     83                     84
                      A                      A                      A
 Frequencies --   1585.2471              1635.3510              1655.5078
 Red. masses --      5.4238                 5.3941                 1.6264
 Frc consts  --      8.0306                 8.4994                 2.6263
 IR Inten    --    279.2820                29.1600               187.9668

                     85                     86                     87
                      A                      A                      A
 Frequencies --   1662.5607              3045.3651              3045.8794
 Red. masses --      3.1567                 1.0348                 1.0353
 Frc consts  --      5.1408                 5.6543                 5.6590
 IR Inten    --     14.7135                20.6009                29.7388

                     88                     89                     90
                      A                      A                      A
 Frequencies --   3053.0114              3110.5087              3112.8721
 Red. masses --      1.0364                 1.1032                 1.1025
 Frc consts  --      5.6914                 6.2885                 6.2946
 IR Inten    --     30.9160                 3.5231                14.6896

                     91                     92                     93
                      A                      A                      A
 Frequencies --   3116.3313              3120.5823              3135.2094
 Red. masses --      1.1025                 1.1018                 1.1017
 Frc consts  --      6.3082                 6.3213                 6.3803
 IR Inten    --     40.4720                75.5172                 3.4342

                     94                     95                     96
                      A                      A                      A
 Frequencies --   3138.9284              3186.4050              3201.9832
 Red. masses --      1.1008                 1.0879                 1.0898
 Frc consts  --      6.3906                 6.5077                 6.5831
 IR Inten    --     40.9374                 6.4171                 9.8668

                     97                     98                     99
                      A                      A                      A
 Frequencies --   3215.9389              3233.2545              3292.0053
 Red. masses --      1.0951                 1.0931                 1.0941
 Frc consts  --      6.6733                 6.7326                 6.9862
 IR Inten    --     18.2317                 5.5626                 1.3421

                    100                    101                    102
                      A                      A                      A
 Frequencies --   3530.3054              3560.9886              3676.8747
 Red. masses --      1.0487                 1.0748                 1.1015
 Frc consts  --      7.7004                 8.0300                 8.7743
 IR Inten    --     91.2773                26.1286                70.1102

 - Thermochemistry -
 -------------------
 Temperature   298.150 Kelvin.  Pressure   1.00000 Atm.
 Atom     1 has atomic number  6 and mass  12.00000

 Molecular mass:   291.08639 amu.
 Principal axes and moments of inertia in atomic units:
                           1         2         3
     Eigenvalues --  2970.505049915.00268**********
           X            0.99994  -0.01019   0.00270
           Y            0.01021   0.99992  -0.00706
           Z           -0.00263   0.00709   0.99997
 This molecule is an asymmetric top.
 Rotational symmetry number  1.
 Warning -- assumption of classical behavior for rotation
           may cause significant error
 Rotational temperatures (Kelvin)      0.02916     0.00874     0.00766
 Rotational constants (GHZ):           0.60755     0.18202     0.15966
 Zero-point vibrational energy     766242.2 (Joules/Mol)
                                  183.13627 (Kcal/Mol)
 Warning -- explicit consideration of  31 degrees of freedom as
           vibrations may cause significant error
 Vibrational temperatures:     21.74    44.68    74.74    78.20   135.06
          (Kelvin)            162.51   165.97   199.78   312.87   322.91
                              339.78   357.57   385.44   417.09   435.78
                              452.60   466.82   476.07   518.53   564.77
                              584.88   601.68   656.03   689.18   702.26
                              765.25   780.21   787.68   797.28   847.51
                              887.11   919.27   944.54   987.22  1014.30
                             1035.24  1049.25  1062.20  1113.14  1125.49
                             1171.43  1237.63  1256.54  1283.72  1336.84
                             1358.74  1375.23  1388.43  1404.32  1406.67
                             1435.84  1525.51  1527.63  1553.79  1608.85
                             1643.25  1698.20  1725.45  1779.65  1791.43
                             1799.03  1833.72  1852.68  1893.40  1911.95
                             1945.43  1962.18  2028.21  2041.22  2049.62
                             2071.81  2090.24  2169.28  2170.19  2189.57
                             2190.68  2201.28  2202.55  2207.41  2227.81
                             2266.72  2280.82  2352.91  2381.91  2392.05
                             4381.60  4382.34  4392.60  4475.33  4478.73
                             4483.71  4489.82  4510.87  4516.22  4584.53
                             4606.94  4627.02  4651.93  4736.46  5079.32
                             5123.47  5290.20

 Zero-point correction=                           0.291846 (Hartree/Particle)
 Thermal correction to Energy=                    0.310447
 Thermal correction to Enthalpy=                  0.311391
 Thermal correction to Gibbs Free Energy=         0.243816
 Sum of electronic and zero-point Energies=          -1504.164646
 Sum of electronic and thermal Energies=             -1504.146045
 Sum of electronic and thermal Enthalpies=           -1504.145101
 Sum of electronic and thermal Free Energies=        -1504.212676

                     E (Thermal)             CV                S
                      KCal/Mol        Cal/Mol-Kelvin    Cal/Mol-Kelvin
 Total                  194.809             72.198            142.224
 Electronic               0.000              0.000              0.000
 Translational            0.889              2.981             42.903
 Rotational               0.889              2.981             34.164
 Vibrational            193.031             66.237             65.157
 Vibration     1          0.593              1.986              7.191
 Vibration     2          0.594              1.983              5.761
 Vibration     3          0.596              1.977              4.742
 Vibration     4          0.596              1.976              4.652
 Vibration     5          0.603              1.954              3.578
 Vibration     6          0.607              1.939              3.218
 Vibration     7          0.608              1.937              3.177
 Vibration     8          0.614              1.914              2.820
 Vibration     9          0.646              1.814              1.980
 Vibration    10          0.649              1.804              1.923
 Vibration    11          0.655              1.785              1.832
 Vibration    12          0.662              1.765              1.741
 Vibration    13          0.673              1.732              1.610
 Vibration    14          0.686              1.693              1.475
 Vibration    15          0.694              1.668              1.401
 Vibration    16          0.702              1.646              1.338
 Vibration    17          0.709              1.627              1.288
 Vibration    18          0.713              1.614              1.256
 Vibration    19          0.735              1.554              1.120
 Vibration    20          0.760              1.486              0.990
 Vibration    21          0.771              1.456              0.939
 Vibration    22          0.781              1.431              0.898
 Vibration    23          0.814              1.348              0.778
 Vibration    24          0.835              1.297              0.713
 Vibration    25          0.844              1.276              0.689
 Vibration    26          0.887              1.179              0.583
 Vibration    27          0.897              1.157              0.560
 Vibration    28          0.903              1.145              0.549
 Vibration    29          0.910              1.131              0.536
 Vibration    30          0.946              1.055              0.469
 Vibration    31          0.976              0.997              0.422

 Optimization completed.
    -- Stationary point found.
 Normal termination of Gaussian 16 at Sat Dec 12 10:22:15 2020.

 ----------------------------------------------------------------------
 # B3LYP/6-311++G(d,p) empiricaldispersion=gd3bj scf=xqc pop=npa geom=c
 heck
 ----------------------------------------------------------------------

 --------------------------------------
 CID_61501733_JID_9701_Energie_neutraal
 --------------------------------------
 Structure from the checkpoint file:  "JID_9701.chk"
 Charge =  0 Multiplicity = 1

 SCF Done:  E(RB3LYP) =  -1504.70210908     A.U. after   18 cycles
 Normal termination of Gaussian 16 at Sat Dec 12 10:31:36 2020.

 ----------------------------------------------------------------------
 # B3LYP/6-311++G(d,p) empiricaldispersion=gd3bj scf=xqc pop=npa geom=c
 heck
 ----------------------------------------------------------------------

 ------------------------------------
 CID_61501733_JID_9701_Energie_kation
 ------------------------------------
 Structure from the checkpoint file:  "JID_9701.chk"
 Charge =  1 Multiplicity = 2

 SCF Done:  E(UB3LYP) =  -1504.42569918     A.U. after   31 cycles
 Normal termination of Gaussian 16 at Sat Dec 12 10:54:45 2020.
 Gaussian 16:  ES64L-G16RevA.03 25-Dec-2016

 ----------------------------------------------------------------------
 # B3LYP/6-311++G(d,p) empiricaldispersion=gd3bj scf=xqc pop=npa geom=c
 heck
 ----------------------------------------------------------------------

 -----------------------------------
 CID_61501733_JID_9701_Energie_anion
 -----------------------------------
 Structure from the checkpoint file:  "JID_9701.chk"
 Charge = -1 Multiplicity = 2

                         Standard orientation:
 ---------------------------------------------------------------------
 Center     Atomic      Atomic             Coordinates (Angstroms)
 Number     Number       Type             X           Y           Z
 ---------------------------------------------------------------------
      1          6           0        4.348955   -0.647690    1.408269
      2          6           0        4.126328    0.084466    0.068521
      3          6           0        4.579833    1.552720    0.206439
      4          6           0        4.942896   -0.603715   -1.034526
      5          6           0        2.644844    0.063383   -0.255996
      6          6           0        2.048741   -0.480519   -1.355540
      7         16           0        0.315229   -0.263230   -1.301017
      8          6           0        0.538493    0.550099    0.241129
      9          7           0        1.768318    0.645029    0.650986
     10          7           0       -0.525885    1.058657    0.987211
     11          6           0       -1.849348    1.140501    0.463587
     12          6           0       -2.365379    2.407778    0.173166
     13          6           0       -3.656530    2.556830   -0.321685
     14          6           0       -4.434888    1.424291   -0.563505
     15          6           0       -3.922746    0.162375   -0.287492
     16          6           0       -2.638913   -0.014417    0.252972
     17          6           0       -2.212706   -1.407597    0.604075
     18         16           0       -2.777449   -2.752566   -0.210935
     19          7           0       -1.369424   -1.524618    1.645910
     20          1           0        5.407277   -0.609235    1.691946
     21          1           0        4.052864   -1.699970    1.330749
     22          1           0        3.757178   -0.184303    2.202792
     23          1           0        5.638752    1.599234    0.486661
     24          1           0        4.451353    2.090804   -0.739543
     25          1           0        3.992801    2.066133    0.973273
     26          1           0        4.653093   -1.654184   -1.150364
     27          1           0        4.813222   -0.101802   -2.000019
     28          1           0        6.008585   -0.576359   -0.783154
     29          1           0        2.500397   -1.004085   -2.184143
     30          1           0       -0.232554    1.871284    1.519347
     31          1           0       -1.731054    3.277105    0.324891
     32          1           0       -4.042316    3.549241   -0.534959
     33          1           0       -5.439291    1.522793   -0.963165
     34          1           0       -4.516035   -0.726298   -0.468340
     35          1           0       -0.914876   -0.707238    2.037158
     36          1           0       -1.012403   -2.444892    1.862864
 ---------------------------------------------------------------------

 SCF Done:  E(UB3LYP) =  -1504.72277225     A.U. after   26 cycles

 The electronic state is 2-A.
 Alpha  occ. eigenvalues --  -88.76866 -88.62959 -14.23633 -14.19707 -14.18555
 Alpha  occ. eigenvalues --  -10.15913 -10.10673 -10.10308 -10.08688 -10.08389
 Alpha  occ. eigenvalues --  -10.08355 -10.08290 -10.07717 -10.07530 -10.05196
 Alpha  occ. eigenvalues --  -10.04287 -10.04118 -10.03891 -10.03435  -7.85433
 Alpha  occ. eigenvalues --   -7.71748  -5.81737  -5.81372  -5.80988  -5.68102
 Alpha  occ. eigenvalues --   -5.67651  -5.67323  -0.87995  -0.82215  -0.79008
 Alpha  occ. eigenvalues --   -0.73887  -0.71992  -0.68877  -0.63353  -0.63215
 Alpha  occ. eigenvalues --   -0.61046  -0.60393  -0.59975  -0.57110  -0.51053
 Alpha  occ. eigenvalues --   -0.50471  -0.49266  -0.46315  -0.44197  -0.43298
 Alpha  occ. eigenvalues --   -0.40876  -0.40669  -0.38777  -0.37810  -0.36211
 Alpha  occ. eigenvalues --   -0.35680  -0.34506  -0.33551  -0.32283  -0.31512
 Alpha  occ. eigenvalues --   -0.31060  -0.30313  -0.29803  -0.29502  -0.28841
 Alpha  occ. eigenvalues --   -0.28628  -0.26485  -0.25537  -0.25266  -0.23877
 Alpha  occ. eigenvalues --   -0.23399  -0.23167  -0.22669  -0.21063  -0.19150
 Alpha  occ. eigenvalues --   -0.17737  -0.16810  -0.13362  -0.13203  -0.10166
 Alpha  occ. eigenvalues --   -0.08044  -0.05755   0.03334
 Alpha virt. eigenvalues --    0.05743   0.07649   0.07882   0.08313   0.08779
 Alpha virt. eigenvalues --    0.08917   0.09757   0.10309   0.10404   0.10590
 Alpha virt. eigenvalues --    0.11050   0.11250   0.11565   0.12492   0.13142

  Beta  occ. eigenvalues --  -88.76866 -88.62894 -14.23656 -14.19702 -14.18406
  Beta  occ. eigenvalues --  -10.15857 -10.10674 -10.10298 -10.08663 -10.08289
  Beta  occ. eigenvalues --  -10.08140 -10.07936 -10.07714 -10.07529 -10.05284
  Beta  occ. eigenvalues --  -10.04152 -10.04134 -10.03601 -10.03325  -7.85433
  Beta  occ. eigenvalues --   -7.71690  -5.81737  -5.81373  -5.80984  -5.68082
  Beta  occ. eigenvalues --   -5.67437  -5.67283  -0.87925  -0.82093  -0.78544
  Beta  occ. eigenvalues --   -0.73852  -0.71737  -0.68842  -0.63055  -0.62807
  Beta  occ. eigenvalues --   -0.61032  -0.60389  -0.59852  -0.56620  -0.50978
  Beta  occ. eigenvalues --   -0.50187  -0.49075  -0.46035  -0.44141  -0.42968
  Beta  occ. eigenvalues --   -0.40758  -0.40610  -0.38623  -0.37743  -0.36199
  Beta  occ. eigenvalues --   -0.35518  -0.34471  -0.33418  -0.32183  -0.31452
  Beta  occ. eigenvalues --   -0.30843  -0.30250  -0.29713  -0.29327  -0.28788
  Beta  occ. eigenvalues --   -0.28623  -0.25858  -0.25323  -0.25146  -0.23647
  Beta  occ. eigenvalues --   -0.23159  -0.22993  -0.21926  -0.20225  -0.18796
  Beta  occ. eigenvalues --   -0.17713  -0.16626  -0.12788  -0.12088  -0.09825
  Beta  occ. eigenvalues --   -0.06777  -0.05535
  Beta virt. eigenvalues --    0.05671   0.07572   0.07771   0.08268   0.08587
  Beta virt. eigenvalues --    0.08760   0.09364   0.09880   0.10283   0.10395
  Beta virt. eigenvalues --    0.10595   0.11065   0.11235   0.11678   0.12549

 Mulliken charges and spin densities:
               1          2
     1  C   -0.613118  -0.003779
     2  C    0.647124   0.046727
     3  C   -0.592545  -0.031894
     4  C   -0.549162  -0.060701
     5  C   -1.089713  -0.296924
     6  C    0.696361   0.177805
     7  S   -0.387005  -0.038653
     8  C    0.124407   0.106213
     9  N    0.166963  -0.027724
    10  N   -0.180296   0.064194
    11  C   -0.223481   0.176636
    12  C   -0.050454  -0.047276
    13  C   -0.389194   0.225814
    14  C   -0.448781  -0.007800
    15  C   -0.344115   0.129358
    16  C    0.505797  -0.050941
    17  C    0.089907   0.234451
    18  S   -0.815780   0.205630
    19  N   -0.228426   0.104623
    20  H    0.136958  -0.000408
    21  H    0.122326   0.017484
    22  H    0.158248   0.003211
    23  H    0.126092   0.011421
    24  H    0.126812   0.008135
    25  H    0.154897   0.007770
    26  H    0.121628   0.004336
    27  H    0.120528   0.000904
    28  H    0.142389   0.004314
    29  H    0.234968   0.034264
    30  H    0.287892   0.010253
    31  H    0.092299   0.019056
    32  H    0.113404  -0.018824
    33  H    0.127369  -0.000206
    34  H    0.119206  -0.000494
    35  H    0.281192  -0.006456
    36  H    0.215301  -0.000517
 Sum of Mulliken charges =  -1.00000   1.00000

 Dipole moment (field-independent basis, Debye):
    X=              9.8949    Y=              5.0836    Z=              0.6537  Tot=             11.1436
 Quadrupole moment (field-independent basis, Debye-Ang):
   XX=           -184.0293   YY=           -162.2390   ZZ=           -139.1410
   XY=            -17.1053   XZ=             -2.0516   YZ=             -0.0532

 Summary of Natural Population Analysis:

                                       Natural Population
                Natural  -----------------------------------------------
    Atom  No    Charge         Core      Valence    Rydberg      Total
 -----------------------------------------------------------------------
      C    1   -0.28027      0.99964     2.27482    0.00581     3.28027
      C    2   -0.05542      0.99955     2.04594    0.00993     3.05542
      C    3   -0.28004      0.99964     2.27463    0.00577     3.28004
      C    4   -0.28372      0.99965     2.27856    0.00552     3.28372
      C    5    0.07054      0.99945     1.91445    0.01556     2.92946
      C    6   -0.21949      0.99944     2.21079    0.00926     3.21949
      S    7    0.20616      4.99944     2.77452    0.01989     7.79384
      C    8    0.14641      0.99959     1.83408    0.01992     2.85359
      N    9   -0.28624      0.99962     2.77502    0.01161     3.78624
      N   10   -0.32771      0.99964     2.81509    0.01297     3.82771
      C   11    0.10457      0.99943     1.88279    0.01321     2.89543
      C   12   -0.13798      0.99953     2.13035    0.00810     3.13798
      C   13   -0.04730      0.99957     2.03878    0.00895     3.04730
      C   14   -0.11996      0.99957     2.11151    0.00888     3.11996
      C   15   -0.05103      0.99954     2.04319    0.00830     3.05103
      C   16   -0.03820      0.99942     2.02731    0.01147     3.03820
      C   17    0.12431      0.99961     1.85622    0.01986     2.87569
      S   18   -0.12625      4.99955     3.11244    0.01426     8.12625
      N   19   -0.36889      0.99967     2.85831    0.01091     3.86889
      H   20    0.09132      0.00000     0.40780    0.00088     0.40868
      H   21    0.10060      0.00000     0.39852    0.00089     0.39940
      H   22    0.10851      0.00000     0.39050    0.00099     0.39149
      H   23    0.09184      0.00000     0.40729    0.00088     0.40816
      H   24    0.09892      0.00000     0.40022    0.00086     0.40108
      H   25    0.10807      0.00000     0.39092    0.00101     0.39193
      H   26    0.10149      0.00000     0.39759    0.00093     0.39851
      H   27    0.10009      0.00000     0.39899    0.00091     0.39991
      H   28    0.09636      0.00000     0.40284    0.00079     0.40364
      H   29    0.10973      0.00000     0.38904    0.00122     0.39027
      H   30    0.19455      0.00000     0.30317    0.00229     0.30545
      H   31    0.09190      0.00000     0.40667    0.00143     0.40810
      H   32    0.08776      0.00000     0.41075    0.00148     0.41224
      H   33    0.09250      0.00000     0.40651    0.00100     0.40750
      H   34    0.11120      0.00000     0.38751    0.00129     0.38880
      H   35    0.19585      0.00000     0.30278    0.00137     0.30415
      H   36    0.18984      0.00000     0.30837    0.00179     0.31016
 =======================================================================
   * Total *    0.00000     26.99153    49.76826    0.24021    77.00000

 Normal termination of Gaussian 16 at Sat Dec 12 11:13:56 2020.
