 Gaussian 16, Revision A.03,

 -----------------------------------------------------------
 # opt freq B3LYP/6-31G(d) empiricaldispersion=gd3bj scf=xqc
 -----------------------------------------------------------

 -------------------------------
 CID_149037673_JID_4275_neutraal
 -------------------------------
 Symbolic Z-matrix:
 Charge =  0 Multiplicity = 1

 SCF Done:  E(RB3LYP) =  -955.192224423     A.U. after   15 cycles
 SCF Done:  E(RB3LYP) =  -955.197293882     A.U. after   12 cycles
 SCF Done:  E(RB3LYP) =  -955.197992229     A.U. after   12 cycles
 SCF Done:  E(RB3LYP) =  -955.198604339     A.U. after   12 cycles
 SCF Done:  E(RB3LYP) =  -955.198897490     A.U. after   11 cycles
 SCF Done:  E(RB3LYP) =  -955.199025930     A.U. after   12 cycles
 SCF Done:  E(RB3LYP) =  -955.199044848     A.U. after   10 cycles
 SCF Done:  E(RB3LYP) =  -955.199050862     A.U. after    9 cycles
 SCF Done:  E(RB3LYP) =  -955.199052246     A.U. after    8 cycles
 SCF Done:  E(RB3LYP) =  -955.199052484     A.U. after    8 cycles
 SCF Done:  E(RB3LYP) =  -955.199052557     A.U. after    7 cycles
 Optimization completed.
    -- Stationary point found.
 Normal termination of Gaussian 16 at Thu Dec 10 09:20:26 2020.

 --------------------------------------------------------------------
 #N Geom=AllCheck Guess=TCheck SCRF=Check GenChk RB3LYP/6-31G(d) Freq
 --------------------------------------------------------------------

 Structure from the checkpoint file:  "JID_4275.chk"
 -------------------------------
 CID_149037673_JID_4275_neutraal
 -------------------------------
 Charge =  0 Multiplicity = 1

 SCF Done:  E(RB3LYP) =  -955.199052557     A.U. after    1 cycles

  Exact polarizability: 173.011  17.700 116.540  -7.261   8.238 108.733
 Approx polarizability: 241.392  38.990 200.467 -16.233  11.304 190.393

                      1                      2                      3
                      A                      A                      A
 Frequencies --     40.0351                61.9029                78.7868
 Red. masses --      3.9255                 5.2697                 4.3183
 Frc consts  --      0.0037                 0.0119                 0.0158
 IR Inten    --      0.0928                 0.1090                 0.1395

                      4                      5                      6
                      A                      A                      A
 Frequencies --    107.0435               176.1103               193.4121
 Red. masses --      5.2362                 5.3169                 3.9210
 Frc consts  --      0.0353                 0.0972                 0.0864
 IR Inten    --      0.0791                 1.0660                 0.1835

                      7                      8                      9
                      A                      A                      A
 Frequencies --    247.2128               255.5944               275.9751
 Red. masses --      3.7570                 4.2314                 1.2175
 Frc consts  --      0.1353                 0.1629                 0.0546
 IR Inten    --      3.6422                 0.9797                 0.6437

                     10                     11                     12
                      A                      A                      A
 Frequencies --    294.8315               322.8366               347.6254
 Red. masses --      2.4263                 1.6026                 2.2396
 Frc consts  --      0.1243                 0.0984                 0.1595
 IR Inten    --     19.6848                64.7999                45.0015

                     13                     14                     15
                      A                      A                      A
 Frequencies --    412.6718               420.1180               486.9240
 Red. masses --      5.1811                 3.1324                 3.9208
 Frc consts  --      0.5199                 0.3257                 0.5477
 IR Inten    --      0.6582                 0.4593                14.1436

                     16                     17                     18
                      A                      A                      A
 Frequencies --    540.9588               556.4913               597.5637
 Red. masses --      4.0102                 4.6120                 5.3004
 Frc consts  --      0.6914                 0.8415                 1.1151
 IR Inten    --      7.8630                 8.5612                 1.3357

                     19                     20                     21
                      A                      A                      A
 Frequencies --    622.7497               636.3078               660.3944
 Red. masses --      5.3429                 6.3876                 6.4808
 Frc consts  --      1.2208                 1.5238                 1.6653
 IR Inten    --     26.7876                 0.3146                 2.3984

                     22                     23                     24
                      A                      A                      A
 Frequencies --    717.2848               756.4561               796.9800
 Red. masses --      1.8793                 2.5863                 2.6750
 Frc consts  --      0.5697                 0.8720                 1.0011
 IR Inten    --     28.3662                15.9389                15.0334

                     25                     26                     27
                      A                      A                      A
 Frequencies --    825.5816               836.6710               861.1246
 Red. masses --      4.1691                 3.3102                 1.4542
 Frc consts  --      1.6742                 1.3652                 0.6353
 IR Inten    --     71.9697                 5.7972                 2.1108

                     28                     29                     30
                      A                      A                      A
 Frequencies --    867.0084               898.2669               914.4211
 Red. masses --      2.2150                 1.3110                 2.7134
 Frc consts  --      0.9810                 0.6232                 1.3368
 IR Inten    --      2.7314                10.0365                 7.6906

                     31                     32                     33
                      A                      A                      A
 Frequencies --    931.2077               972.1596               998.2131
 Red. masses --      1.3832                 1.3482                 1.2496
 Frc consts  --      0.7067                 0.7507                 0.7336
 IR Inten    --      2.9440                 0.3562                 0.3371

                     34                     35                     36
                      A                      A                      A
 Frequencies --   1022.3134              1046.5553              1061.4808
 Red. masses --      6.2074                 4.0215                 2.1512
 Frc consts  --      3.8223                 2.5952                 1.4281
 IR Inten    --      1.3871                29.8790                 5.3384

                     37                     38                     39
                      A                      A                      A
 Frequencies --   1069.7270              1089.7416              1104.7931
 Red. masses --      2.5406                 1.5871                 2.3219
 Frc consts  --      1.7129                 1.1104                 1.6698
 IR Inten    --     38.4202                 9.8167                27.2412

                     40                     41                     42
                      A                      A                      A
 Frequencies --   1122.8815              1155.7482              1195.0701
 Red. masses --      1.7388                 2.3817                 1.1016
 Frc consts  --      1.2917                 1.8744                 0.9269
 IR Inten    --      0.6658                21.4307                 0.1492

                     43                     44                     45
                      A                      A                      A
 Frequencies --   1213.6359              1223.1017              1239.5080
 Red. masses --      1.1471                 2.2334                 1.2491
 Frc consts  --      0.9955                 1.9685                 1.1307
 IR Inten    --      1.1332                 5.9310                13.7164

                     46                     47                     48
                      A                      A                      A
 Frequencies --   1279.6561              1302.7617              1323.7539
 Red. masses --      1.2773                 1.1866                 1.7567
 Frc consts  --      1.2323                 1.1866                 1.8137
 IR Inten    --     12.7874                13.6842                20.3611

                     49                     50                     51
                      A                      A                      A
 Frequencies --   1330.3690              1349.4647              1369.3744
 Red. masses --      1.3924                 1.3747                 2.3828
 Frc consts  --      1.4520                 1.4750                 2.6326
 IR Inten    --     27.4562                30.0889                 2.1970

                     52                     53                     54
                      A                      A                      A
 Frequencies --   1376.4636              1401.4213              1429.9612
 Red. masses --      1.3232                 1.3974                 1.2548
 Frc consts  --      1.4771                 1.6170                 1.5117
 IR Inten    --      3.2574                 4.5531                13.7108

                     55                     56                     57
                      A                      A                      A
 Frequencies --   1434.8603              1505.2535              1526.8852
 Red. masses --      1.4738                 2.1559                 1.0516
 Frc consts  --      1.7878                 2.8781                 1.4445
 IR Inten    --     13.1730                10.1239                 2.5553

                     58                     59                     60
                      A                      A                      A
 Frequencies --   1528.9556              1546.2786              1647.8247
 Red. masses --      1.0460                 2.2067                 5.4880
 Frc consts  --      1.4407                 3.1086                 8.7799
 IR Inten    --      3.3082                 5.5309                 0.7487

                     61                     62                     63
                      A                      A                      A
 Frequencies --   1666.5743              1672.1681              3030.5777
 Red. masses --      5.5842                 8.9993                 1.0836
 Frc consts  --      9.1382                14.8258                 5.8634
 IR Inten    --      1.7586                87.1408                24.0696

                     64                     65                     66
                      A                      A                      A
 Frequencies --   3068.1717              3075.9874              3089.9526
 Red. masses --      1.0399                 1.0815                 1.0854
 Frc consts  --      5.7677                 6.0288                 6.1057
 IR Inten    --     14.8168                 2.9518                31.7883

                     67                     68                     69
                      A                      A                      A
 Frequencies --   3139.3928              3156.7143              3179.9103
 Red. masses --      1.1016                 1.1016                 1.0866
 Frc consts  --      6.3969                 6.4677                 6.4735
 IR Inten    --     17.2283                20.9605                 6.6107

                     70                     71                     72
                      A                      A                      A
 Frequencies --   3186.2696              3188.2196              3197.7766
 Red. masses --      1.0932                 1.0868                 1.0905
 Frc consts  --      6.5388                 6.5086                 6.5699
 IR Inten    --     20.5797                 0.2635                16.9952

                     73                     74                     75
                      A                      A                      A
 Frequencies --   3206.7190              3214.3580              3738.9048
 Red. masses --      1.0936                 1.0978                 1.0662
 Frc consts  --      6.6257                 6.6830                 8.7819
 IR Inten    --     26.3931                15.4929                14.6964

 - Thermochemistry -
 -------------------
 Temperature   298.150 Kelvin.  Pressure   1.00000 Atm.
 Atom     1 has atomic number  6 and mass  12.00000

 Molecular mass:   207.07179 amu.
 Principal axes and moments of inertia in atomic units:
                           1         2         3
     Eigenvalues --  1434.286394694.216975243.54436
           X            0.99998  -0.00420  -0.00352
           Y            0.00440   0.99830   0.05813
           Z            0.00327  -0.05814   0.99830
 This molecule is an asymmetric top.
 Rotational symmetry number  1.
 Warning -- assumption of classical behavior for rotation
           may cause significant error
 Rotational temperatures (Kelvin)      0.06039     0.01845     0.01652
 Rotational constants (GHZ):           1.25829     0.38446     0.34418
 Zero-point vibrational energy     582703.7 (Joules/Mol)
                                  139.26954 (Kcal/Mol)
 Warning -- explicit consideration of  18 degrees of freedom as
           vibrations may cause significant error
 Vibrational temperatures:     57.60    89.06   113.36   154.01   253.38
          (Kelvin)            278.28   355.68   367.74   397.07   424.20
                              464.49   500.16   593.74   604.46   700.58
                              778.32   800.67   859.76   896.00   915.51
                              950.16  1032.01  1088.37  1146.68  1187.83
                             1203.78  1238.97  1247.43  1292.41  1315.65
                             1339.80  1398.72  1436.21  1470.88  1505.76
                             1527.23  1539.10  1567.90  1589.55  1615.58
                             1662.86  1719.44  1746.15  1759.77  1783.38
                             1841.14  1874.38  1904.59  1914.10  1941.58
                             1970.22  1980.42  2016.33  2057.40  2064.44
                             2165.72  2196.85  2199.83  2224.75  2370.85
                             2397.83  2405.88  4360.33  4414.41  4425.66
                             4445.75  4516.89  4541.81  4575.18  4584.33
                             4587.14  4600.89  4613.75  4624.74  5379.45

 Zero-point correction=                           0.221940 (Hartree/Particle)
 Thermal correction to Energy=                    0.234656
 Thermal correction to Enthalpy=                  0.235600
 Thermal correction to Gibbs Free Energy=         0.182193
 Sum of electronic and zero-point Energies=           -954.977112
 Sum of electronic and thermal Energies=              -954.964397
 Sum of electronic and thermal Enthalpies=            -954.963453
 Sum of electronic and thermal Free Energies=         -955.016860

                     E (Thermal)             CV                S
                      KCal/Mol        Cal/Mol-Kelvin    Cal/Mol-Kelvin
 Total                  147.249             49.471            112.405
 Electronic               0.000              0.000              0.000
 Translational            0.889              2.981             41.888
 Rotational               0.889              2.981             31.935
 Vibrational            145.471             43.510             38.583
 Vibration     1          0.594              1.981              5.257
 Vibration     2          0.597              1.972              4.396
 Vibration     3          0.600              1.963              3.921
 Vibration     4          0.606              1.944              3.322
 Vibration     5          0.628              1.872              2.369
 Vibration     6          0.635              1.849              2.195
 Vibration     7          0.661              1.767              1.750
 Vibration     8          0.666              1.753              1.692
 Vibration     9          0.678              1.718              1.558
 Vibration    10          0.689              1.683              1.446
 Vibration    11          0.708              1.630              1.296
 Vibration    12          0.725              1.580              1.177
 Vibration    13          0.776              1.443              0.917
 Vibration    14          0.783              1.427              0.892
 Vibration    15          0.843              1.279              0.692
 Vibration    16          0.896              1.160              0.563
 Vibration    17          0.912              1.126              0.531
 Vibration    18          0.955              1.037              0.454

                           ! Non-Optimized Parameters !
 Normal termination of Gaussian 16 at Thu Dec 10 09:28:16 2020.

 ----------------------------------------------------------------------
 # B3LYP/6-311++G(d,p) empiricaldispersion=gd3bj scf=xqc pop=npa geom=c
 heck
 ----------------------------------------------------------------------

 ---------------------------------------
 CID_149037673_JID_4275_Energie_neutraal
 ---------------------------------------
 Structure from the checkpoint file:  "JID_4275.chk"
 Charge =  0 Multiplicity = 1

 SCF Done:  E(RB3LYP) =  -955.383505519     A.U. after   16 cycles
 Normal termination of Gaussian 16 at Thu Dec 10 09:32:01 2020.

 ----------------------------------------------------------------------
 # B3LYP/6-311++G(d,p) empiricaldispersion=gd3bj scf=xqc pop=npa geom=c
 heck
 ----------------------------------------------------------------------

 -------------------------------------
 CID_149037673_JID_4275_Energie_kation
 -------------------------------------
 Structure from the checkpoint file:  "JID_4275.chk"
 Charge =  1 Multiplicity = 2

 SCF Done:  E(UB3LYP) =  -955.078910877     A.U. after   33 cycles
 SCF Done:  E(UB3LYP) =  -955.078910877     a.u. after    1 cycles
 Normal termination of Gaussian 16 at Thu Dec 10 09:43:26 2020.
 Gaussian 16:  ES64L-G16RevA.03 25-Dec-2016

 ----------------------------------------------------------------------
 # B3LYP/6-311++G(d,p) empiricaldispersion=gd3bj scf=xqc pop=npa geom=c
 heck
 ----------------------------------------------------------------------

 ------------------------------------
 CID_149037673_JID_4275_Energie_anion
 ------------------------------------
 Structure from the checkpoint file:  "JID_4275.chk"
 Charge = -1 Multiplicity = 2

                         Standard orientation:
 ---------------------------------------------------------------------
 Center     Atomic      Atomic             Coordinates (Angstroms)
 Number     Number       Type             X           Y           Z
 ---------------------------------------------------------------------
      1          6           0        1.093478   -2.025396   -0.831916
      2          6           0        1.270733   -1.201633    0.448993
      3          6           0        1.062131    0.330144    0.291068
      4         16           0        2.735815    0.982821   -0.162796
      5          6           0        3.414366   -0.474541    0.610013
      6          7           0        2.645473   -1.435201    0.927840
      7          6           0       -0.012651    0.802159   -0.684206
      8          6           0       -1.399671    0.346937   -0.267633
      9          6           0       -2.153419   -0.503572   -1.081726
     10          6           0       -3.429570   -0.915579   -0.693558
     11          6           0       -3.967262   -0.471763    0.513883
     12          6           0       -3.228602    0.393434    1.325389
     13          6           0       -1.955872    0.803271    0.935259
     14          8           0        0.080611    2.229661   -0.682846
     15          1           0        0.050077   -2.041392   -1.155073
     16          1           0        1.411571   -3.053339   -0.637776
     17          1           0        1.713644   -1.624489   -1.640597
     18          1           0        0.570431   -1.569008    1.206297
     19          1           0        0.833487    0.758030    1.272219
     20          1           0        4.486272   -0.501215    0.798515
     21          1           0        0.212275    0.409371   -1.685396
     22          1           0       -1.741240   -0.840595   -2.029650
     23          1           0       -4.002624   -1.577577   -1.336500
     24          1           0       -4.959676   -0.790856    0.819167
     25          1           0       -3.647918    0.751491    2.261448
     26          1           0       -1.391525    1.495140    1.553383
     27          1           0       -0.632974    2.567654   -1.246805
 ---------------------------------------------------------------------

 SCF Done:  E(UB3LYP) =  -955.371985459     A.U. after   33 cycles
 SCF Done:  E(UB3LYP) =  -955.371985459     a.u. after    1 cycles

 The electronic state is 2-A.
 Alpha  occ. eigenvalues --  -88.76111 -19.03030 -14.21664 -10.14254 -10.13881
 Alpha  occ. eigenvalues --  -10.11932 -10.11801 -10.08286 -10.07597 -10.07558
 Alpha  occ. eigenvalues --  -10.07426 -10.07303 -10.07207 -10.06760  -7.84747
 Alpha  occ. eigenvalues --   -5.81076  -5.80753  -5.80197  -0.93457  -0.85520
 Alpha  occ. eigenvalues --   -0.76045  -0.71136  -0.67420  -0.65994  -0.64829
 Alpha  occ. eigenvalues --   -0.60166  -0.56576  -0.51228  -0.50289  -0.48042
 Alpha  occ. eigenvalues --   -0.46273  -0.43297  -0.41986  -0.37622  -0.37464
 Alpha  occ. eigenvalues --   -0.36052  -0.35286  -0.34607  -0.32938  -0.32237
 Alpha  occ. eigenvalues --   -0.31167  -0.30446  -0.28137  -0.27606  -0.27215
 Alpha  occ. eigenvalues --   -0.26366  -0.25053  -0.24608  -0.23777  -0.22830
 Alpha  occ. eigenvalues --   -0.19293  -0.17664  -0.15774  -0.15222  -0.14099
 Alpha  occ. eigenvalues --    0.04439
 Alpha virt. eigenvalues --    0.06728   0.07008   0.07262   0.07407   0.07768
 Alpha virt. eigenvalues --    0.08323   0.08707   0.09256   0.09675   0.10676
 Alpha virt. eigenvalues --    0.10855   0.11136   0.12255   0.13045   0.13319

  Beta  occ. eigenvalues --  -88.76111 -19.02992 -14.21631 -10.14207 -10.13866
  Beta  occ. eigenvalues --  -10.11929 -10.11794 -10.08275 -10.07591 -10.07543
  Beta  occ. eigenvalues --  -10.07380 -10.07264 -10.07165 -10.06740  -7.84747
  Beta  occ. eigenvalues --   -5.81076  -5.80754  -5.80198  -0.93368  -0.85453
  Beta  occ. eigenvalues --   -0.75981  -0.71092  -0.67377  -0.65930  -0.64749
  Beta  occ. eigenvalues --   -0.60113  -0.56513  -0.51149  -0.50231  -0.47980
  Beta  occ. eigenvalues --   -0.46217  -0.43230  -0.41919  -0.37552  -0.37411
  Beta  occ. eigenvalues --   -0.35996  -0.35249  -0.34546  -0.32882  -0.32186
  Beta  occ. eigenvalues --   -0.31098  -0.30411  -0.28105  -0.27550  -0.27164
  Beta  occ. eigenvalues --   -0.26271  -0.24953  -0.24524  -0.23740  -0.22753
  Beta  occ. eigenvalues --   -0.19243  -0.17625  -0.15680  -0.15047  -0.14046
  Beta virt. eigenvalues --    0.06855   0.07007   0.07479   0.07729   0.08115
  Beta virt. eigenvalues --    0.08361   0.08559   0.09057   0.09756   0.10256
  Beta virt. eigenvalues --    0.10760   0.11056   0.11417   0.12683   0.13181

 Mulliken charges and spin densities:
               1          2
     1  C    0.010813  -0.538206
     2  C   -1.729756   0.636953
     3  C    0.761945  -0.130533
     4  S    0.010438  -0.242503
     5  C    0.009868   0.024084
     6  N    0.058032  -0.018860
     7  C    4.550899  -4.760235
     8  C   -1.528418   1.778002
     9  C   -2.240624   1.964307
    10  C    1.442850  -1.682438
    11  C    1.702841  -2.125053
    12  C   -0.220215  -0.057615
    13  C   -1.409675   1.373312
    14  O   -0.176284   0.013813
    15  H    0.195112  -0.094446
    16  H    0.043272   0.105088
    17  H   -0.015118   0.199109
    18  H    0.149888   0.062493
    19  H    0.175177   0.104295
    20  H    0.217535   0.005303
    21  H    0.019474   0.233233
    22  H   -0.927844   1.091237
    23  H   -0.919778   1.116402
    24  H   -0.519060   0.678025
    25  H   -0.626205   0.804991
    26  H    0.058554   0.107801
    27  H   -0.093723   0.351440
 Sum of Mulliken charges =  -1.00000   1.00000

 Dipole moment (field-independent basis, Debye):
    X=              8.1841    Y=              1.0216    Z=              2.2704  Tot=              8.5544
 Quadrupole moment (field-independent basis, Debye-Ang):
   XX=           -165.0567   YY=           -131.4761   ZZ=           -128.9684
   XY=             -5.3505   XZ=             -3.0867   YZ=             -1.2218

 Summary of Natural Population Analysis:

                                       Natural Population
                Natural  -----------------------------------------------
    Atom  No    Charge         Core      Valence    Rydberg      Total
 -----------------------------------------------------------------------
      C    1   -0.29437      0.99964     2.28776    0.00698     3.29437
      C    2   -0.02757      0.99956     2.01369    0.01431     3.02757
      C    3   -0.15733      0.99953     2.14333    0.01447     3.15733
      S    4    0.10453      4.99958     2.87903    0.01686     7.89547
      C    5   -0.01623      0.99962     1.99897    0.01765     3.01623
      N    6   -0.23413      0.99969     2.72218    0.01226     3.73413
      C    7    0.05127      0.99946     1.93290    0.01637     2.94873
      C    8   -0.03761      0.99948     2.02442    0.01371     3.03761
      C    9   -0.09802      0.99950     2.08760    0.01092     3.09802
      C   10   -0.09245      0.99956     2.08179    0.01110     3.09245
      C   11   -0.09324      0.99956     2.08344    0.01023     3.09324
      C   12   -0.10086      0.99956     2.09029    0.01101     3.10086
      C   13   -0.09153      0.99950     2.08225    0.00978     3.09153
      O   14   -0.37058      0.99989     3.36444    0.00624     4.37058
      H   15    0.10788      0.00000     0.39085    0.00127     0.39212
      H   16    0.10537      0.00000     0.39370    0.00093     0.39463
      H   17    0.10043      0.00000     0.39858    0.00098     0.39957
      H   18    0.10532      0.00000     0.39322    0.00146     0.39468
      H   19    0.10759      0.00000     0.39088    0.00153     0.39241
      H   20    0.09158      0.00000     0.40728    0.00114     0.40842
      H   21    0.09043      0.00000     0.40701    0.00256     0.40957
      H   22    0.10386      0.00000     0.39264    0.00351     0.39614
      H   23    0.10418      0.00000     0.39306    0.00275     0.39582
      H   24    0.10255      0.00000     0.39542    0.00203     0.39745
      H   25    0.10082      0.00000     0.39795    0.00123     0.39918
      H   26    0.10278      0.00000     0.39555    0.00168     0.39722
      H   27    0.23531      0.00000     0.26071    0.00398     0.26469
 =======================================================================
   * Total *    0.00000     17.99412    36.80895    0.19693    55.00000

 Normal termination of Gaussian 16 at Thu Dec 10 09:54:56 2020.
