 Gaussian 16, Revision A.03,

 -----------------------------------------------------------
 # opt freq B3LYP/6-31G(d) empiricaldispersion=gd3bj scf=xqc
 -----------------------------------------------------------

 -----------------------------
 CID_21030176_JID_626_neutraal
 -----------------------------
 Symbolic Z-matrix:
 Charge =  0 Multiplicity = 1

 SCF Done:  E(RB3LYP) =  -458.708687967     A.U. after   14 cycles
 SCF Done:  E(RB3LYP) =  -458.719611554     A.U. after   14 cycles
 SCF Done:  E(RB3LYP) =  -458.720068914     A.U. after   13 cycles
 SCF Done:  E(RB3LYP) =  -458.722728099     A.U. after   13 cycles
 SCF Done:  E(RB3LYP) =  -458.723216724     A.U. after   11 cycles
 SCF Done:  E(RB3LYP) =  -458.723529524     A.U. after   12 cycles
 SCF Done:  E(RB3LYP) =  -458.723644184     A.U. after   12 cycles
 SCF Done:  E(RB3LYP) =  -458.723728073     A.U. after   11 cycles
 SCF Done:  E(RB3LYP) =  -458.723798377     A.U. after   10 cycles
 SCF Done:  E(RB3LYP) =  -458.723938224     A.U. after   11 cycles
 SCF Done:  E(RB3LYP) =  -458.724020278     A.U. after    9 cycles
 SCF Done:  E(RB3LYP) =  -458.724021202     A.U. after    9 cycles
 SCF Done:  E(RB3LYP) =  -458.724021944     A.U. after    9 cycles
 SCF Done:  E(RB3LYP) =  -458.724022483     A.U. after    9 cycles
 SCF Done:  E(RB3LYP) =  -458.724022574     A.U. after    8 cycles
 SCF Done:  E(RB3LYP) =  -458.724022621     A.U. after    7 cycles
 Optimization completed.
    -- Stationary point found.
 Normal termination of Gaussian 16 at Tue Dec  8 13:06:28 2020.

 --------------------------------------------------------------------
 #N Geom=AllCheck Guess=TCheck SCRF=Check GenChk RB3LYP/6-31G(d) Freq
 --------------------------------------------------------------------

 Structure from the checkpoint file:  "JID_626.chk"
 -----------------------------
 CID_21030176_JID_626_neutraal
 -----------------------------
 Charge =  0 Multiplicity = 1

 SCF Done:  E(RB3LYP) =  -458.724022621     A.U. after    1 cycles

  Exact polarizability:  93.457  -3.076  81.117   5.840  -5.345  74.662
 Approx polarizability: 128.793 -14.579 113.763  22.913 -13.595 120.812

                      1                      2                      3
                      A                      A                      A
 Frequencies --     28.8504                82.3649                95.3657
 Red. masses --      6.9805                 5.1689                 1.7942
 Frc consts  --      0.0034                 0.0207                 0.0096
 IR Inten    --      0.0490                 1.6541                 0.2541

                      4                      5                      6
                      A                      A                      A
 Frequencies --    107.4942               170.5916               196.4302
 Red. masses --      2.3715                 3.0391                 2.6534
 Frc consts  --      0.0161                 0.0521                 0.0603
 IR Inten    --      5.5857                 1.1558                 2.3939

                      7                      8                      9
                      A                      A                      A
 Frequencies --    234.9005               319.0272               367.5093
 Red. masses --      1.3161                 3.7227                 3.0446
 Frc consts  --      0.0428                 0.2232                 0.2423
 IR Inten    --      0.3153                 3.4773                 5.1753

                     10                     11                     12
                      A                      A                      A
 Frequencies --    443.9339               509.8011               564.3727
 Red. masses --      2.7182                 3.9060                12.1909
 Frc consts  --      0.3156                 0.5981                 2.2878
 IR Inten    --      2.5041                 1.3347                17.9331

                     13                     14                     15
                      A                      A                      A
 Frequencies --    609.1359               641.4948               709.2759
 Red. masses --      5.6846                 2.9693                 2.7594
 Frc consts  --      1.2427                 0.7199                 0.8179
 IR Inten    --      6.7979                 8.9220                32.9349

                     16                     17                     18
                      A                      A                      A
 Frequencies --    774.5659               801.8763               822.5929
 Red. masses --      1.4418                 2.6733                 1.7229
 Frc consts  --      0.5097                 1.0128                 0.6869
 IR Inten    --     59.3247                16.9560                15.4315

                     19                     20                     21
                      A                      A                      A
 Frequencies --    860.9246               897.6657               955.2996
 Red. masses --      2.2804                 2.6651                 1.8309
 Frc consts  --      0.9959                 1.2653                 0.9844
 IR Inten    --     21.5104                 1.8400                17.7437

                     22                     23                     24
                      A                      A                      A
 Frequencies --    975.7383              1017.6249              1025.8846
 Red. masses --      2.0348                 2.5975                 1.6550
 Frc consts  --      1.1414                 1.5849                 1.0262
 IR Inten    --      5.9930                 7.8561                 1.2890

                     25                     26                     27
                      A                      A                      A
 Frequencies --   1052.4626              1115.1683              1153.4821
 Red. masses --      2.1067                 2.2783                 1.6197
 Frc consts  --      1.3749                 1.6693                 1.2697
 IR Inten    --      1.3166                 3.4349                29.7625

                     28                     29                     30
                      A                      A                      A
 Frequencies --   1169.1700              1185.8581              1216.5745
 Red. masses --      1.5505                 1.8303                 1.3558
 Frc consts  --      1.2487                 1.5165                 1.1823
 IR Inten    --      8.3777                30.7062                 0.4331

                     31                     32                     33
                      A                      A                      A
 Frequencies --   1248.4149              1254.1445              1298.6229
 Red. masses --      1.7646                 1.4779                 1.2424
 Frc consts  --      1.6203                 1.3696                 1.2345
 IR Inten    --     10.3140                 0.4295                 1.5996

                     34                     35                     36
                      A                      A                      A
 Frequencies --   1308.7387              1332.5160              1352.4047
 Red. masses --      1.3406                 1.3679                 1.3543
 Frc consts  --      1.3529                 1.4310                 1.4594
 IR Inten    --      1.1311                 0.4948                 0.4034

                     37                     38                     39
                      A                      A                      A
 Frequencies --   1359.1962              1390.4616              1395.2983
 Red. masses --      1.5448                 1.3540                 1.3604
 Frc consts  --      1.6815                 1.5423                 1.5604
 IR Inten    --      0.5092                 6.3693                28.9888

                     40                     41                     42
                      A                      A                      A
 Frequencies --   1480.5199              1484.2157              1512.3639
 Red. masses --      4.3950                 1.1751                 1.1809
 Frc consts  --      5.6759                 1.5251                 1.5914
 IR Inten    --      5.4776                 1.5153                19.7175

                     43                     44                     45
                      A                      A                      A
 Frequencies --   1517.5084              1523.7291              1525.1325
 Red. masses --      1.0889                 1.1255                 1.0922
 Frc consts  --      1.4774                 1.5396                 1.4968
 IR Inten    --      7.3080                 3.9907                11.2559

                     46                     47                     48
                      A                      A                      A
 Frequencies --   1546.1900              1549.3795              2368.1952
 Red. masses --      1.0893                 1.0594                12.5537
 Frc consts  --      1.5344                 1.4984                41.4818
 IR Inten    --      3.2082                15.6631               906.9656

                     49                     50                     51
                      A                      A                      A
 Frequencies --   2973.3345              3024.8008              3057.4135
 Red. masses --      1.0577                 1.0839                 1.0665
 Frc consts  --      5.5095                 5.8431                 5.8740
 IR Inten    --     74.4344                18.7811                28.9452

                     52                     53                     54
                      A                      A                      A
 Frequencies --   3065.0440              3071.5382              3077.3836
 Red. masses --      1.0656                 1.0773                 1.0636
 Frc consts  --      5.8982                 5.9882                 5.9345
 IR Inten    --     24.2812                47.6534                28.2677

                     55                     56                     57
                      A                      A                      A
 Frequencies --   3103.1749              3117.8553              3119.9923
 Red. masses --      1.1006                 1.0997                 1.1015
 Frc consts  --      6.2442                 6.2983                 6.3172
 IR Inten    --     12.5308                 4.7207                36.5454

                     58                     59                     60
                      A                      A                      A
 Frequencies --   3126.5722              3129.0695              3500.0884
 Red. masses --      1.0963                 1.0953                 1.0732
 Frc consts  --      6.3141                 6.3186                 7.7464
 IR Inten    --     32.7032                53.2226                 0.3451

 - Thermochemistry -
 -------------------
 Temperature   298.150 Kelvin.  Pressure   1.00000 Atm.
 Atom     1 has atomic number  6 and mass  12.00000

 Molecular mass:   140.09496 amu.
 Principal axes and moments of inertia in atomic units:
                           1         2         3
     Eigenvalues --  1009.831061747.108292134.03875
           X            0.99739   0.06984  -0.01810
           Y           -0.06987   0.99756  -0.00074
           Z            0.01800   0.00200   0.99984
 This molecule is an asymmetric top.
 Rotational symmetry number  1.
 Warning -- assumption of classical behavior for rotation
           may cause significant error
 Rotational temperatures (Kelvin)      0.08577     0.04958     0.04059
 Rotational constants (GHZ):           1.78717     1.03299     0.84569
 Zero-point vibrational energy     501945.5 (Joules/Mol)
                                  119.96786 (Kcal/Mol)
 Warning -- explicit consideration of  13 degrees of freedom as
           vibrations may cause significant error
 Vibrational temperatures:     41.51   118.50   137.21   154.66   245.44
          (Kelvin)            282.62   337.97   459.01   528.76   638.72
                              733.49   812.01   876.41   922.97  1020.49
                             1114.43  1153.72  1183.53  1238.68  1291.54
                             1374.46  1403.87  1464.14  1476.02  1514.26
                             1604.48  1659.60  1682.17  1706.19  1750.38
                             1796.19  1804.43  1868.43  1882.98  1917.19
                             1945.81  1955.58  2000.56  2007.52  2130.14
                             2135.46  2175.95  2183.36  2192.31  2194.33
                             2224.62  2229.21  3407.30  4277.97  4352.01
                             4398.94  4409.91  4419.26  4427.67  4464.78
                             4485.90  4488.97  4498.44  4502.03  5035.85

 Zero-point correction=                           0.191181 (Hartree/Particle)
 Thermal correction to Energy=                    0.201378
 Thermal correction to Enthalpy=                  0.202322
 Thermal correction to Gibbs Free Energy=         0.154383
 Sum of electronic and zero-point Energies=           -458.532842
 Sum of electronic and thermal Energies=              -458.522645
 Sum of electronic and thermal Enthalpies=            -458.521701
 Sum of electronic and thermal Free Energies=         -458.569639

                     E (Thermal)             CV                S
                      KCal/Mol        Cal/Mol-Kelvin    Cal/Mol-Kelvin
 Total                  126.366             36.793            100.895
 Electronic               0.000              0.000              0.000
 Translational            0.889              2.981             40.723
 Rotational               0.889              2.981             29.711
 Vibrational            124.589             30.832             30.461
 Vibration     1          0.593              1.984              5.907
 Vibration     2          0.600              1.961              3.834
 Vibration     3          0.603              1.953              3.547
 Vibration     4          0.606              1.943              3.314
 Vibration     5          0.626              1.879              2.429
 Vibration     6          0.636              1.845              2.166
 Vibration     7          0.655              1.787              1.841
 Vibration     8          0.705              1.637              1.315
 Vibration     9          0.740              1.539              1.090
 Vibration    10          0.803              1.374              0.814
 Vibration    11          0.865              1.228              0.634
 Vibration    12          0.920              1.108              0.515
 Vibration    13          0.968              1.012              0.434

 Optimization completed.
    -- Stationary point found.
 Normal termination of Gaussian 16 at Tue Dec  8 13:17:02 2020.

 ----------------------------------------------------------------------
 # B3LYP/6-311++G(d,p) empiricaldispersion=gd3bj scf=xqc pop=npa geom=c
 heck
 ----------------------------------------------------------------------

 -------------------------------------
 CID_21030176_JID_626_Energie_neutraal
 -------------------------------------
 Structure from the checkpoint file:  "JID_626.chk"
 Charge =  0 Multiplicity = 1

 SCF Done:  E(RB3LYP) =  -458.859530621     A.U. after   14 cycles
 Normal termination of Gaussian 16 at Tue Dec  8 13:23:53 2020.

 ----------------------------------------------------------------------
 # B3LYP/6-311++G(d,p) empiricaldispersion=gd3bj scf=xqc pop=npa geom=c
 heck
 ----------------------------------------------------------------------

 -----------------------------------
 CID_21030176_JID_626_Energie_kation
 -----------------------------------
 Structure from the checkpoint file:  "JID_626.chk"
 Charge =  1 Multiplicity = 2

 SCF Done:  E(UB3LYP) =  -458.546866154     A.U. after   21 cycles
 Normal termination of Gaussian 16 at Tue Dec  8 13:29:37 2020.
 Gaussian 16:  ES64L-G16RevA.03 25-Dec-2016

 ----------------------------------------------------------------------
 # B3LYP/6-311++G(d,p) empiricaldispersion=gd3bj scf=xqc pop=npa geom=c
 heck
 ----------------------------------------------------------------------

 ----------------------------------
 CID_21030176_JID_626_Energie_anion
 ----------------------------------
 Structure from the checkpoint file:  "JID_626.chk"
 Charge = -1 Multiplicity = 2

                         Standard orientation:
 ---------------------------------------------------------------------
 Center     Atomic      Atomic             Coordinates (Angstroms)
 Number     Number       Type             X           Y           Z
 ---------------------------------------------------------------------
      1          6           0       -3.041837   -0.846112    0.319876
      2          7           0       -1.799583   -0.829440   -0.442453
      3          6           0       -1.042802    0.399810   -0.318069
      4          6           0       -0.559549    0.841386    1.092373
      5          6           0        0.698495    1.721150    0.848138
      6          6           0        0.974224    1.652622   -0.678203
      7          6           0        0.259839    0.378549   -1.145211
      8          7           0        1.029757   -0.821797   -0.840849
      9          6           0        1.817099   -1.180775    0.001478
     10          8           0        2.591636   -1.651873    0.759646
     11          1           0       -3.703504   -0.054598   -0.052456
     12          1           0       -2.922140   -0.696453    1.407348
     13          1           0       -3.548485   -1.803458    0.161877
     14          1           0       -1.206092   -1.608976   -0.165223
     15          1           0       -1.660225    1.205640   -0.741037
     16          1           0       -1.342173    1.371661    1.641742
     17          1           0       -0.304977   -0.047604    1.682198
     18          1           0        1.552683    1.338232    1.415461
     19          1           0        0.548800    2.755392    1.171165
     20          1           0        2.038407    1.647601   -0.930229
     21          1           0        0.518777    2.507978   -1.190715
     22          1           0        0.051816    0.358453   -2.216472
 ---------------------------------------------------------------------

 SCF Done:  E(UB3LYP) =  -458.845652061     A.U. after   29 cycles

 The electronic state is 2-A.
 Alpha  occ. eigenvalues --  -19.06570 -14.23502 -14.19226 -10.20253 -10.12085
 Alpha  occ. eigenvalues --  -10.09410 -10.08019 -10.06642 -10.06231 -10.05709
 Alpha  occ. eigenvalues --   -1.00053  -0.85897  -0.80247  -0.72144  -0.62803
 Alpha  occ. eigenvalues --   -0.60668  -0.55079  -0.51608  -0.46685  -0.41689
 Alpha  occ. eigenvalues --   -0.40901  -0.40093  -0.37294  -0.35843  -0.35173
 Alpha  occ. eigenvalues --   -0.34163  -0.31805  -0.31453  -0.29185  -0.26803
 Alpha  occ. eigenvalues --   -0.25882  -0.25708  -0.24887  -0.23849  -0.22049
 Alpha  occ. eigenvalues --   -0.19394  -0.18009  -0.11992   0.04728
 Alpha virt. eigenvalues --    0.07273   0.08105   0.08398   0.09823   0.10235
 Alpha virt. eigenvalues --    0.10608   0.11065   0.11323   0.12057   0.13317
 Alpha virt. eigenvalues --    0.13446   0.14073   0.14520   0.15337   0.16456

  Beta  occ. eigenvalues --  -19.06557 -14.23490 -14.19214 -10.20252 -10.12075
  Beta  occ. eigenvalues --  -10.09392 -10.07983 -10.06608 -10.06207 -10.05682
  Beta  occ. eigenvalues --   -1.00024  -0.85860  -0.80218  -0.72100  -0.62757
  Beta  occ. eigenvalues --   -0.60605  -0.55003  -0.51553  -0.46605  -0.41652
  Beta  occ. eigenvalues --   -0.40846  -0.40059  -0.37242  -0.35808  -0.35140
  Beta  occ. eigenvalues --   -0.34116  -0.31758  -0.31411  -0.29134  -0.26752
  Beta  occ. eigenvalues --   -0.25835  -0.25665  -0.24841  -0.23795  -0.22007
  Beta  occ. eigenvalues --   -0.19359  -0.17986  -0.11964
  Beta virt. eigenvalues --    0.07192   0.08188   0.08869   0.09228   0.10407
  Beta virt. eigenvalues --    0.10887   0.11116   0.11503   0.11749   0.12477
  Beta virt. eigenvalues --    0.13735   0.13917   0.14402   0.14961   0.15514

 Mulliken charges and spin densities:
               1          2
     1  C    1.093860  -1.407892
     2  N   -0.024903  -0.032689
     3  C   -1.359245   0.720848
     4  C    0.674079  -0.951111
     5  C    0.947923  -1.368993
     6  C    0.235387  -0.839369
     7  C    0.279921   0.100639
     8  N   -0.178660   0.004263
     9  C    0.855498  -0.600207
    10  O   -0.328041   0.036018
    11  H   -0.366572   0.508844
    12  H   -0.250313   0.387108
    13  H   -0.279226   0.406792
    14  H    0.104130   0.116158
    15  H   -0.326861   0.533305
    16  H   -0.285414   0.455614
    17  H   -0.115131   0.307374
    18  H    0.066203   0.091807
    19  H   -0.527958   0.698300
    20  H   -0.244854   0.419992
    21  H   -0.565342   0.733137
    22  H   -0.404481   0.680063
 Sum of Mulliken charges =  -1.00000   1.00000

 Dipole moment (field-independent basis, Debye):
    X=              3.0021    Y=             -3.9565    Z=              0.1322  Tot=              4.9683
 Quadrupole moment (field-independent basis, Debye-Ang):
   XX=           -112.6492   YY=           -108.6057   ZZ=            -96.2292
   XY=              3.4828   XZ=              1.1314   YZ=              1.6905

 Summary of Natural Population Analysis:

                                       Natural Population
                Natural  -----------------------------------------------
    Atom  No    Charge         Core      Valence    Rydberg      Total
 -----------------------------------------------------------------------
      C    1   -0.17627      0.99966     2.16961    0.00700     3.17627
      N    2   -0.33697      0.99973     2.82520    0.01205     3.83697
      C    3   -0.00704      0.99956     1.99347    0.01401     3.00704
      C    4   -0.20577      0.99962     2.19655    0.00960     3.20577
      C    5   -0.19722      0.99965     2.18902    0.00856     3.19722
      C    6   -0.19313      0.99962     2.18516    0.00835     3.19313
      C    7   -0.01135      0.99952     1.99714    0.01469     3.01135
      N    8   -0.27875      0.99951     2.76848    0.01075     3.77875
      C    9    0.41769      0.99956     1.56477    0.01798     2.58231
      O   10   -0.27216      0.99987     3.26467    0.00762     4.27216
      H   11    0.09316      0.00000     0.40515    0.00169     0.40684
      H   12    0.08044      0.00000     0.41732    0.00224     0.41956
      H   13    0.09225      0.00000     0.40658    0.00117     0.40775
      H   14    0.17220      0.00000     0.32442    0.00338     0.32780
      H   15    0.09982      0.00000     0.39731    0.00287     0.40018
      H   16    0.10823      0.00000     0.38972    0.00205     0.39177
      H   17    0.09543      0.00000     0.40309    0.00149     0.40457
      H   18    0.09670      0.00000     0.40215    0.00115     0.40330
      H   19    0.10552      0.00000     0.39244    0.00203     0.39448
      H   20    0.10226      0.00000     0.39636    0.00138     0.39774
      H   21    0.10771      0.00000     0.38888    0.00342     0.39229
      H   22    0.10729      0.00000     0.39106    0.00165     0.39271
 =======================================================================
   * Total *    0.00000      9.99630    27.86856    0.13513    38.00000

 Normal termination of Gaussian 16 at Tue Dec  8 13:36:03 2020.
