 Gaussian 16, Revision A.03,

 -----------------------------------------------------------
 # opt freq B3LYP/6-31G(d) empiricaldispersion=gd3bj scf=xqc
 -----------------------------------------------------------

 -------------------------------
 CID_43398898_JID_10829_neutraal
 -------------------------------
 Symbolic Z-matrix:
 Charge =  0 Multiplicity = 1

 SCF Done:  E(RB3LYP) =  -957.147611585     A.U. after   14 cycles
 SCF Done:  E(RB3LYP) =  -957.155818764     A.U. after   12 cycles
 SCF Done:  E(RB3LYP) =  -957.157735242     A.U. after   12 cycles
 SCF Done:  E(RB3LYP) =  -957.158967720     A.U. after   12 cycles
 SCF Done:  E(RB3LYP) =  -957.159749548     A.U. after   13 cycles
 SCF Done:  E(RB3LYP) =  -957.160547524     A.U. after   12 cycles
 SCF Done:  E(RB3LYP) =  -957.161464082     A.U. after   12 cycles
 SCF Done:  E(RB3LYP) =  -957.160948962     A.U. after   14 cycles
 SCF Done:  E(RB3LYP) =  -957.163156588     A.U. after   13 cycles
 SCF Done:  E(RB3LYP) =  -957.164003316     A.U. after   11 cycles
 SCF Done:  E(RB3LYP) =  -957.164416156     A.U. after    8 cycles
 SCF Done:  E(RB3LYP) =  -957.164416080     A.U. after    8 cycles
 SCF Done:  E(RB3LYP) =  -957.164416065     A.U. after    6 cycles
 SCF Done:  E(RB3LYP) =  -957.164416066     A.U. after    7 cycles
 SCF Done:  E(RB3LYP) =  -957.164416059     A.U. after    6 cycles
 Optimization completed.
    -- Stationary point found.
 Normal termination of Gaussian 16 at Sat Dec 12 16:42:10 2020.

 --------------------------------------------------------------------
 #N Geom=AllCheck Guess=TCheck SCRF=Check GenChk RB3LYP/6-31G(d) Freq
 --------------------------------------------------------------------

 Structure from the checkpoint file:  "JID_10829.chk"
 -------------------------------
 CID_43398898_JID_10829_neutraal
 -------------------------------
 Charge =  0 Multiplicity = 1

 SCF Done:  E(RB3LYP) =  -957.164416059     A.U. after    1 cycles

  Exact polarizability: 216.027   3.598 177.998 -27.989   5.701 137.335
 Approx polarizability: 281.446   1.732 273.424 -45.037  20.558 208.441

                      1                      2                      3
                      A                      A                      A
 Frequencies --     10.6314                20.0644                27.2265
 Red. masses --      5.2496                 4.5576                 4.9856
 Frc consts  --      0.0003                 0.0011                 0.0022
 IR Inten    --      2.0374                 0.6149                 2.5132

                      4                      5                      6
                      A                      A                      A
 Frequencies --     48.3411                49.7845                76.2324
 Red. masses --      2.9527                 3.8775                 2.4982
 Frc consts  --      0.0041                 0.0057                 0.0086
 IR Inten    --      2.9430                 2.3849                 0.7365

                      7                      8                      9
                      A                      A                      A
 Frequencies --     77.0624                88.8350               101.1228
 Red. masses --      2.8947                 4.3488                 4.1676
 Frc consts  --      0.0101                 0.0202                 0.0251
 IR Inten    --      0.7633                 0.6660                 7.0538

                     10                     11                     12
                      A                      A                      A
 Frequencies --    112.0421               161.6732               165.4139
 Red. masses --      1.1210                 3.6804                 2.7282
 Frc consts  --      0.0083                 0.0567                 0.0440
 IR Inten    --      0.2067                 0.7310                 0.9627

                     13                     14                     15
                      A                      A                      A
 Frequencies --    167.5184               185.1904               202.9428
 Red. masses --      3.4539                 2.7237                 2.2886
 Frc consts  --      0.0571                 0.0550                 0.0555
 IR Inten    --      1.3134                 2.5888                 0.6392

                     16                     17                     18
                      A                      A                      A
 Frequencies --    216.6207               237.5369               245.3597
 Red. masses --      1.8751                 1.7088                 2.8004
 Frc consts  --      0.0518                 0.0568                 0.0993
 IR Inten    --      0.3352                 1.5377                 1.8460

                     19                     20                     21
                      A                      A                      A
 Frequencies --    246.3509               276.1618               298.1480
 Red. masses --      1.5409                 1.8745                 1.9101
 Frc consts  --      0.0551                 0.0842                 0.1000
 IR Inten    --      1.0102                 2.6035                 3.3411

                     22                     23                     24
                      A                      A                      A
 Frequencies --    326.0501               336.4108               344.9713
 Red. masses --      4.5247                 2.5122                 2.6369
 Frc consts  --      0.2834                 0.1675                 0.1849
 IR Inten    --      3.9676                 0.4595                 1.6936

                     25                     26                     27
                      A                      A                      A
 Frequencies --    383.2858               408.2790               419.0054
 Red. masses --      4.2988                 3.4753                 3.0147
 Frc consts  --      0.3721                 0.3413                 0.3118
 IR Inten    --      2.0329                 3.6946                 3.1971

                     28                     29                     30
                      A                      A                      A
 Frequencies --    466.7490               482.8410               500.5098
 Red. masses --      4.7397                 2.9118                 4.6899
 Frc consts  --      0.6084                 0.4000                 0.6922
 IR Inten    --      2.6666                 6.3203                 6.2612

                     31                     32                     33
                      A                      A                      A
 Frequencies --    528.1414               555.6963               575.0948
 Red. masses --      4.9576                 3.0959                 4.7928
 Frc consts  --      0.8148                 0.5633                 0.9339
 IR Inten    --      7.3452                35.4604                20.9035

                     34                     35                     36
                      A                      A                      A
 Frequencies --    609.1844               633.9112               676.9604
 Red. masses --      4.3722                 1.6828                 4.1151
 Frc consts  --      0.9560                 0.3984                 1.1111
 IR Inten    --      2.2033                51.2301                 0.7093

                     37                     38                     39
                      A                      A                      A
 Frequencies --    692.4287               716.7547               720.8930
 Red. masses --      2.9154                 3.0563                 7.5144
 Frc consts  --      0.8236                 0.9251                 2.3008
 IR Inten    --     12.2543                54.7837                 3.8923

                     40                     41                     42
                      A                      A                      A
 Frequencies --    779.4489               787.6721               822.3541
 Red. masses --      3.4513                 1.3195                 1.5523
 Frc consts  --      1.2354                 0.4823                 0.6185
 IR Inten    --     28.9117                17.6730                26.2090

                     43                     44                     45
                      A                      A                      A
 Frequencies --    829.4125               864.3745               872.4699
 Red. masses --      1.4678                 1.6738                 2.1966
 Frc consts  --      0.5949                 0.7368                 0.9852
 IR Inten    --    115.4174                 9.3412                30.9161

                     46                     47                     48
                      A                      A                      A
 Frequencies --    934.4545               953.4083               960.1466
 Red. masses --      2.1315                 3.1589                 3.1937
 Frc consts  --      1.0966                 1.6918                 1.7347
 IR Inten    --      6.1487                 9.9228                 5.1971

                     49                     50                     51
                      A                      A                      A
 Frequencies --    983.9977              1001.3059              1043.0110
 Red. masses --      3.3967                 2.4406                 8.0048
 Frc consts  --      1.9377                 1.4417                 5.1307
 IR Inten    --     19.0441                56.0270                53.1602

                     52                     53                     54
                      A                      A                      A
 Frequencies --   1074.9988              1090.3784              1103.2889
 Red. masses --      2.1661                 4.0631                 1.9613
 Frc consts  --      1.4748                 2.8462                 1.4066
 IR Inten    --      5.0586                23.3666                15.6540

                     55                     56                     57
                      A                      A                      A
 Frequencies --   1130.2759              1137.3737              1159.0553
 Red. masses --      3.4435                 1.9628                 3.5591
 Frc consts  --      2.5919                 1.4960                 2.8171
 IR Inten    --     34.2946                26.3557               220.4000

                     58                     59                     60
                      A                      A                      A
 Frequencies --   1179.4820              1181.7827              1185.4341
 Red. masses --      1.8264                 1.4356                 1.2532
 Frc consts  --      1.4970                 1.1813                 1.0375
 IR Inten    --     41.3034                 2.0014                 3.7148

                     61                     62                     63
                      A                      A                      A
 Frequencies --   1187.0256              1197.8241              1210.9783
 Red. masses --      1.2677                 2.4064                 1.1808
 Frc consts  --      1.0525                 2.0342                 1.0202
 IR Inten    --      1.0294                12.7906                11.1364

                     64                     65                     66
                      A                      A                      A
 Frequencies --   1218.8825              1223.0574              1234.6326
 Red. masses --      1.3735                 1.4098                 1.5983
 Frc consts  --      1.2023                 1.2425                 1.4355
 IR Inten    --      3.4348                 4.5010                68.0086

                     67                     68                     69
                      A                      A                      A
 Frequencies --   1265.5526              1280.8649              1312.0258
 Red. masses --      2.5667                 1.8572                 1.5859
 Frc consts  --      2.4221                 1.7952                 1.6084
 IR Inten    --    110.3601                91.1676                23.6178

                     70                     71                     72
                      A                      A                      A
 Frequencies --   1325.3802              1338.2605              1360.9762
 Red. masses --      1.2731                 3.5424                 1.4004
 Frc consts  --      1.3176                 3.7379                 1.5283
 IR Inten    --     42.4978                77.0014                81.4732

                     73                     74                     75
                      A                      A                      A
 Frequencies --   1381.6227              1397.9670              1401.7670
 Red. masses --      1.3167                 2.1207                 2.2173
 Frc consts  --      1.4808                 2.4419                 2.5670
 IR Inten    --      3.6340                24.4695               131.7906

                     76                     77                     78
                      A                      A                      A
 Frequencies --   1428.8546              1435.3515              1465.7765
 Red. masses --      1.4505                 1.5339                 1.9932
 Frc consts  --      1.7448                 1.8619                 2.5232
 IR Inten    --     60.1146                20.9131               135.2395

                     79                     80                     81
                      A                      A                      A
 Frequencies --   1486.4905              1500.1687              1502.7300
 Red. masses --      1.2477                 1.0970                 1.4381
 Frc consts  --      1.6243                 1.4545                 1.9133
 IR Inten    --     17.2158                 3.2840                42.0460

                     82                     83                     84
                      A                      A                      A
 Frequencies --   1506.1706              1511.6160              1514.9290
 Red. masses --      1.1856                 1.1857                 1.3569
 Frc consts  --      1.5847                 1.5963                 1.8348
 IR Inten    --      1.7165                14.6032                 4.7639

                     85                     86                     87
                      A                      A                      A
 Frequencies --   1516.8674              1518.7698              1520.5821
 Red. masses --      1.0865                 1.2578                 1.0911
 Frc consts  --      1.4729                 1.7094                 1.4863
 IR Inten    --      6.8633                19.5513                 8.3776

                     88                     89                     90
                      A                      A                      A
 Frequencies --   1520.6891              1523.0834              1534.4928
 Red. masses --      1.1600                 1.1249                 1.1783
 Frc consts  --      1.5805                 1.5375                 1.6347
 IR Inten    --     38.5854                 5.6145                49.7413

                     91                     92                     93
                      A                      A                      A
 Frequencies --   1536.4505              1537.3457              1545.0166
 Red. masses --      1.0494                 1.0801                 1.0765
 Frc consts  --      1.4595                 1.5041                 1.5141
 IR Inten    --     22.7166                 2.5807                 6.9479

                     94                     95                     96
                      A                      A                      A
 Frequencies --   1545.2832              1548.7906              1639.0480
 Red. masses --      1.0504                 2.4771                 6.9627
 Frc consts  --      1.4779                 3.5009                11.0208
 IR Inten    --      8.4415                66.8330               136.5579

                     97                     98                     99
                      A                      A                      A
 Frequencies --   1660.7882              1786.0327              3029.0272
 Red. masses --      6.1990                 7.7365                 1.0344
 Frc consts  --     10.0740                14.5404                 5.5919
 IR Inten    --     25.2843               317.8453                50.2726

                    100                    101                    102
                      A                      A                      A
 Frequencies --   3037.2351              3040.0830              3046.3495
 Red. masses --      1.0414                 1.0569                 1.0381
 Frc consts  --      5.6601                 5.7551                 5.6760
 IR Inten    --     30.8448                25.8569                93.8820

                    103                    104                    105
                      A                      A                      A
 Frequencies --   3048.7788              3049.9184              3055.2227
 Red. masses --      1.0408                 1.0591                 1.0681
 Frc consts  --      5.7000                 5.8043                 5.8741
 IR Inten    --     25.3997                30.4444                57.4784

                    106                    107                    108
                      A                      A                      A
 Frequencies --   3081.2404              3089.3858              3093.1072
 Red. masses --      1.1059                 1.1068                 1.1061
 Frc consts  --      6.1863                 6.2236                 6.2347
 IR Inten    --     26.9338                38.0771                21.3296

                    109                    110                    111
                      A                      A                      A
 Frequencies --   3109.6043              3124.8769              3128.9212
 Red. masses --      1.1017                 1.0914                 1.0957
 Frc consts  --      6.2764                 6.2789                 6.3201
 IR Inten    --     24.4270                42.8486                47.1102

                    112                    113                    114
                      A                      A                      A
 Frequencies --   3143.5010              3154.3670              3158.8662
 Red. masses --      1.0928                 1.1014                 1.1070
 Frc consts  --      6.3621                 6.4568                 6.5084
 IR Inten    --     17.7834                29.3542                18.6595

                    115                    116                    117
                      A                      A                      A
 Frequencies --   3160.7798              3161.1187              3206.0381
 Red. masses --      1.1012                 1.1063                 1.0904
 Frc consts  --      6.4817                 6.5133                 6.6036
 IR Inten    --     18.8763                26.1705                 6.1896

                    118                    119                    120
                      A                      A                      A
 Frequencies --   3210.7402              3474.6979              3574.8450
 Red. masses --      1.0890                 1.0737                 1.0752
 Frc consts  --      6.6141                 7.6376                 8.0954
 IR Inten    --      6.9613                 0.3390                12.9401

 - Thermochemistry -
 -------------------
 Temperature   298.150 Kelvin.  Pressure   1.00000 Atm.
 Atom     1 has atomic number  6 and mass  12.00000

 Molecular mass:   282.15796 amu.
 Principal axes and moments of inertia in atomic units:
                           1         2         3
     Eigenvalues --  3369.91425********************
           X            0.99981   0.00057  -0.01932
           Y           -0.00095   0.99980  -0.02005
           Z            0.01930   0.02006   0.99961
 This molecule is an asymmetric top.
 Rotational symmetry number  1.
 Warning -- assumption of classical behavior for rotation
           may cause significant error
 Rotational temperatures (Kelvin)      0.02570     0.00745     0.00683
 Rotational constants (GHZ):           0.53555     0.15527     0.14233
 Zero-point vibrational energy     940662.0 (Joules/Mol)
                                  224.82361 (Kcal/Mol)
 Warning -- explicit consideration of  34 degrees of freedom as
           vibrations may cause significant error
 Vibrational temperatures:     15.30    28.87    39.17    69.55    71.63
          (Kelvin)            109.68   110.88   127.81   145.49   161.20
                              232.61   237.99   241.02   266.45   291.99
                              311.67   341.76   353.02   354.44   397.34
                              428.97   469.11   484.02   496.34   551.46
                              587.42   602.86   671.55   694.70   720.12
                              759.88   799.52   827.43   876.48   912.06
                              974.00   996.25  1031.25  1037.20  1121.45
                             1133.28  1183.18  1193.34  1243.64  1255.29
                             1344.47  1371.74  1381.44  1415.75  1440.66
                             1500.66  1546.68  1568.81  1587.39  1626.21
                             1636.43  1667.62  1697.01  1700.32  1705.58
                             1707.87  1723.40  1742.33  1753.70  1759.71
                             1776.36  1820.85  1842.88  1887.71  1906.93
                             1925.46  1958.14  1987.85  2011.36  2016.83
                             2055.80  2065.15  2108.93  2138.73  2158.41
                             2162.09  2167.04  2174.88  2179.64  2182.43
                             2185.17  2187.78  2187.93  2191.38  2207.79
                             2210.61  2211.90  2222.93  2223.32  2228.36
                             2358.22  2389.50  2569.70  4358.09  4369.90
                             4374.00  4383.02  4386.51  4388.15  4395.78
                             4433.22  4444.94  4450.29  4474.03  4496.00
                             4501.82  4522.80  4538.43  4544.90  4547.66
                             4548.14  4612.77  4619.54  4999.32  5143.40

 Zero-point correction=                           0.358279 (Hartree/Particle)
 Thermal correction to Energy=                    0.380365
 Thermal correction to Enthalpy=                  0.381309
 Thermal correction to Gibbs Free Energy=         0.303697
 Sum of electronic and zero-point Energies=           -956.806137
 Sum of electronic and thermal Energies=              -956.784051
 Sum of electronic and thermal Enthalpies=            -956.783107
 Sum of electronic and thermal Free Energies=         -956.860719

                     E (Thermal)             CV                S
                      KCal/Mol        Cal/Mol-Kelvin    Cal/Mol-Kelvin
 Total                  238.683             79.538            163.349
 Electronic               0.000              0.000              0.000
 Translational            0.889              2.981             42.810
 Rotational               0.889              2.981             34.562
 Vibrational            236.905             73.576             85.977
 Vibration     1          0.593              1.987              7.889
 Vibration     2          0.593              1.986              6.628
 Vibration     3          0.593              1.984              6.022
 Vibration     4          0.595              1.978              4.884
 Vibration     5          0.595              1.978              4.826
 Vibration     6          0.599              1.965              3.986
 Vibration     7          0.599              1.964              3.964
 Vibration     8          0.602              1.957              3.686
 Vibration     9          0.604              1.948              3.433
 Vibration    10          0.607              1.939              3.233
 Vibration    11          0.622              1.889              2.530
 Vibration    12          0.624              1.885              2.487
 Vibration    13          0.624              1.882              2.463
 Vibration    14          0.631              1.860              2.275
 Vibration    15          0.639              1.836              2.106
 Vibration    16          0.645              1.816              1.987
 Vibration    17          0.656              1.783              1.821
 Vibration    18          0.660              1.770              1.764
 Vibration    19          0.661              1.769              1.757
 Vibration    20          0.678              1.717              1.557
 Vibration    21          0.691              1.677              1.427
 Vibration    22          0.710              1.623              1.280
 Vibration    23          0.717              1.603              1.229
 Vibration    24          0.723              1.585              1.189
 Vibration    25          0.752              1.506              1.026
 Vibration    26          0.773              1.452              0.933
 Vibration    27          0.782              1.429              0.895
 Vibration    28          0.824              1.324              0.747
 Vibration    29          0.839              1.288              0.702
 Vibration    30          0.856              1.249              0.657
 Vibration    31          0.883              1.188              0.591
 Vibration    32          0.911              1.127              0.532
 Vibration    33          0.931              1.085              0.495
 Vibration    34          0.968              1.012              0.434

                           ! Non-Optimized Parameters !
 Normal termination of Gaussian 16 at Sat Dec 12 17:01:20 2020.

 ----------------------------------------------------------------------
 # B3LYP/6-311++G(d,p) empiricaldispersion=gd3bj scf=xqc pop=npa geom=c
 heck
 ----------------------------------------------------------------------

 ---------------------------------------
 CID_43398898_JID_10829_Energie_neutraal
 ---------------------------------------
 Structure from the checkpoint file:  "JID_10829.chk"
 Charge =  0 Multiplicity = 1

 SCF Done:  E(RB3LYP) =  -957.443491171     A.U. after   16 cycles
 Normal termination of Gaussian 16 at Sat Dec 12 17:09:44 2020.

 ----------------------------------------------------------------------
 # B3LYP/6-311++G(d,p) empiricaldispersion=gd3bj scf=xqc pop=npa geom=c
 heck
 ----------------------------------------------------------------------

 -------------------------------------
 CID_43398898_JID_10829_Energie_kation
 -------------------------------------
 Structure from the checkpoint file:  "JID_10829.chk"
 Charge =  1 Multiplicity = 2

 SCF Done:  E(UB3LYP) =  -957.159951011     A.U. after   33 cycles
 SCF Done:  E(UB3LYP) =  -957.159951011     a.u. after    1 cycles
 Normal termination of Gaussian 16 at Sat Dec 12 17:34:13 2020.
 Gaussian 16:  ES64L-G16RevA.03 25-Dec-2016

 ----------------------------------------------------------------------
 # B3LYP/6-311++G(d,p) empiricaldispersion=gd3bj scf=xqc pop=npa geom=c
 heck
 ----------------------------------------------------------------------

 ------------------------------------
 CID_43398898_JID_10829_Energie_anion
 ------------------------------------
 Structure from the checkpoint file:  "JID_10829.chk"
 Charge = -1 Multiplicity = 2

                         Standard orientation:
 ---------------------------------------------------------------------
 Center     Atomic      Atomic             Coordinates (Angstroms)
 Number     Number       Type             X           Y           Z
 ---------------------------------------------------------------------
      1          6           0        5.686878    0.493596   -0.938089
      2          6           0        5.201327   -0.758744   -0.206348
      3          7           0        4.642550   -0.473409    1.109809
      4          6           0        3.337843   -0.234139    1.444453
      5          8           0        3.031846    0.231565    2.537461
      6          6           0        2.268858   -0.568685    0.406281
      7          7           0        2.273758    0.452141   -0.646655
      8          6           0        1.281427    0.205056   -1.704295
      9          6           0       -0.154427    0.099308   -1.228450
     10          6           0       -0.791230   -1.130665   -1.148492
     11          6           0       -2.092974   -1.242411   -0.634218
     12          6           0       -2.770901   -0.094453   -0.200185
     13          6           0       -2.119969    1.158727   -0.290939
     14          6           0       -0.823587    1.252251   -0.790792
     15          8           0       -2.866675    2.228758    0.112402
     16          6           0       -2.279005    3.516295    0.028727
     17          8           0       -4.080984   -0.173730    0.210392
     18          6           0       -4.326553    0.153886    1.580863
     19          8           0       -2.616405   -2.501533   -0.652309
     20          6           0       -3.520680   -2.918790    0.368356
     21          1           0        4.838843    1.158602   -1.120244
     22          1           0        6.138694    0.224773   -1.900218
     23          1           0        6.440978    1.027739   -0.347988
     24          1           0        4.438097   -1.261131   -0.802773
     25          1           0        6.025114   -1.471266   -0.074698
     26          1           0        5.288467   -0.145875    1.819638
     27          1           0        2.462450   -1.540921   -0.063359
     28          1           0        1.317569   -0.644696    0.948405
     29          1           0        2.068022    1.349988   -0.208525
     30          1           0        1.380600    1.020729   -2.430449
     31          1           0        1.568925   -0.720519   -2.216853
     32          1           0       -0.296767   -2.041711   -1.470517
     33          1           0       -0.329664    2.214894   -0.863128
     34          1           0       -1.382823    3.591235    0.658236
     35          1           0       -2.015491    3.768877   -1.006302
     36          1           0       -3.036218    4.213699    0.390461
     37          1           0       -3.743761   -0.495100    2.247726
     38          1           0       -4.086714    1.199516    1.787104
     39          1           0       -5.392183   -0.021073    1.744918
     40          1           0       -3.167537   -2.606373    1.358937
     41          1           0       -4.526874   -2.529859    0.202487
     42          1           0       -3.528189   -4.010511    0.320264
 ---------------------------------------------------------------------

 SCF Done:  E(UB3LYP) =  -957.433576339     A.U. after   32 cycles

 The electronic state is 2-A.
 Alpha  occ. eigenvalues --  -19.07264 -19.06927 -19.06088 -18.99946 -14.24771
 Alpha  occ. eigenvalues --  -14.22159 -10.18365 -10.15359 -10.15146 -10.14225
 Alpha  occ. eigenvalues --  -10.14200 -10.13615 -10.13328 -10.12190 -10.11408
 Alpha  occ. eigenvalues --  -10.11342 -10.09452 -10.08339 -10.08107 -10.07167
 Alpha  occ. eigenvalues --   -0.99649  -0.98530  -0.96531  -0.94952  -0.83799
 Alpha  occ. eigenvalues --   -0.82576  -0.76902  -0.68922  -0.67986  -0.66771
 Alpha  occ. eigenvalues --   -0.63975  -0.63237  -0.61370  -0.59840  -0.55966
 Alpha  occ. eigenvalues --   -0.55132  -0.51780  -0.50405  -0.49151  -0.45621
 Alpha  occ. eigenvalues --   -0.44011  -0.43000  -0.42584  -0.40990  -0.40554
 Alpha  occ. eigenvalues --   -0.39877  -0.38532  -0.37799  -0.37318  -0.37015
 Alpha  occ. eigenvalues --   -0.36732  -0.35837  -0.35589  -0.35144  -0.34001
 Alpha  occ. eigenvalues --   -0.33327  -0.32594  -0.30971  -0.30909  -0.29986
 Alpha  occ. eigenvalues --   -0.29629  -0.28949  -0.28133  -0.27863  -0.27331
 Alpha  occ. eigenvalues --   -0.26850  -0.26624  -0.25298  -0.24471  -0.22139
 Alpha  occ. eigenvalues --   -0.19820  -0.17400  -0.16577  -0.15485  -0.13986
 Alpha  occ. eigenvalues --   -0.13875   0.03666
 Alpha virt. eigenvalues --    0.05018   0.05503   0.06606   0.06884   0.07108
 Alpha virt. eigenvalues --    0.07643   0.08173   0.08243   0.08631   0.08861
 Alpha virt. eigenvalues --    0.09289   0.09762   0.09953   0.10127   0.10293

  Beta  occ. eigenvalues --  -19.07258 -19.06924 -19.06087 -18.99944 -14.24759
  Beta  occ. eigenvalues --  -14.22145 -10.18365 -10.15356 -10.15146 -10.14217
  Beta  occ. eigenvalues --  -10.14186 -10.13568 -10.13303 -10.12166 -10.11395
  Beta  occ. eigenvalues --  -10.11334 -10.09432 -10.08323 -10.08096 -10.07138
  Beta  occ. eigenvalues --   -0.99637  -0.98521  -0.96521  -0.94946  -0.83777
  Beta  occ. eigenvalues --   -0.82549  -0.76878  -0.68886  -0.67962  -0.66731
  Beta  occ. eigenvalues --   -0.63944  -0.63193  -0.61333  -0.59805  -0.55926
  Beta  occ. eigenvalues --   -0.55063  -0.51744  -0.50371  -0.49120  -0.45593
  Beta  occ. eigenvalues --   -0.43991  -0.42978  -0.42556  -0.40961  -0.40515
  Beta  occ. eigenvalues --   -0.39851  -0.38507  -0.37773  -0.37295  -0.36995
  Beta  occ. eigenvalues --   -0.36702  -0.35802  -0.35559  -0.35110  -0.33967
  Beta  occ. eigenvalues --   -0.33306  -0.32562  -0.30941  -0.30883  -0.29952
  Beta  occ. eigenvalues --   -0.29601  -0.28927  -0.28092  -0.27836  -0.27307
  Beta  occ. eigenvalues --   -0.26825  -0.26595  -0.25271  -0.24448  -0.22093
  Beta  occ. eigenvalues --   -0.19808  -0.17386  -0.16561  -0.15463  -0.13942
  Beta  occ. eigenvalues --   -0.13809
  Beta virt. eigenvalues --    0.05405   0.05896   0.06275   0.07049   0.07151
  Beta virt. eigenvalues --    0.07452   0.07957   0.08284   0.08503   0.08963
  Beta virt. eigenvalues --    0.09046   0.09504   0.09768   0.10143   0.10368

 Mulliken charges and spin densities:
               1          2
     1  C    0.593327  -1.158849
     2  C   -0.148923   0.103146
     3  N   -0.176767   0.021615
     4  C    0.006962  -0.029586
     5  O   -0.320780   0.005294
     6  C   -0.102753  -0.491869
     7  N   -0.058761   0.092732
     8  C   -0.392794  -0.540426
     9  C    1.643638  -0.255890
    10  C   -0.544959   0.235173
    11  C   -0.143547  -0.029407
    12  C   -0.196571  -0.019989
    13  C   -1.083882   0.482480
    14  C    0.530434  -0.396409
    15  O   -0.224347   0.053765
    16  C    0.644596  -1.009950
    17  O   -0.205038   0.023647
    18  C    0.183568  -0.462040
    19  O   -0.162744   0.001807
    20  C   -0.130593  -0.162854
    21  H   -0.105413   0.298568
    22  H   -0.199675   0.324642
    23  H   -0.054761   0.177417
    24  H    0.196473  -0.048518
    25  H   -0.632237   0.814317
    26  H    0.154416   0.132482
    27  H   -0.061361   0.200540
    28  H    0.424154  -0.184916
    29  H    0.114922   0.113809
    30  H   -0.244120   0.442770
    31  H    0.126066   0.043947
    32  H    0.101905   0.085285
    33  H    0.104255   0.106766
    34  H   -0.093547   0.265444
    35  H   -0.276463   0.441356
    36  H   -0.446022   0.620219
    37  H   -0.036906   0.145667
    38  H    0.034809   0.140031
    39  H   -0.087263   0.231766
    40  H    0.083701   0.047372
    41  H    0.129282   0.040668
    42  H    0.057719   0.097979
 Sum of Mulliken charges =  -1.00000   1.00000

 Dipole moment (field-independent basis, Debye):
    X=             -4.1687    Y=             -4.6878    Z=             -0.0706  Tot=              6.2736
 Quadrupole moment (field-independent basis, Debye-Ang):
   XX=           -234.2300   YY=           -170.7705   ZZ=           -164.8296
   XY=             13.4957   XZ=             -0.6028   YZ=             -0.5046

 Summary of Natural Population Analysis:

                                       Natural Population
                Natural  -----------------------------------------------
    Atom  No    Charge         Core      Valence    Rydberg      Total
 -----------------------------------------------------------------------
      C    1   -0.28989      0.99966     2.28594    0.00429     3.28989
      C    2   -0.08872      0.99963     2.07815    0.01094     3.08872
      N    3   -0.31492      0.99967     2.80501    0.01023     3.81492
      C    4    0.33972      0.99967     1.63809    0.02252     2.66028
      O    5   -0.32367      0.99988     3.31775    0.00603     4.32367
      C    6   -0.13033      0.99958     2.12173    0.00902     3.13033
      N    7   -0.33457      0.99975     2.82378    0.01103     3.83457
      C    8   -0.09302      0.99958     2.08060    0.01284     3.09302
      C    9   -0.01559      0.99952     2.00672    0.00936     3.01559
      C   10   -0.12650      0.99947     2.11821    0.00882     3.12650
      C   11    0.15026      0.99935     1.83757    0.01282     2.84974
      C   12    0.10419      0.99931     1.88297    0.01353     2.89581
      C   13    0.15578      0.99937     1.83219    0.01266     2.84422
      C   14   -0.15157      0.99948     2.14309    0.00900     3.15157
      O   15   -0.27385      0.99986     3.26323    0.01076     4.27385
      C   16   -0.10054      0.99960     2.09187    0.00907     3.10054
      O   17   -0.28777      0.99987     3.27782    0.01008     4.28777
      C   18   -0.10046      0.99959     2.09162    0.00925     3.10046
      O   19   -0.27836      0.99985     3.26915    0.00936     4.27836
      C   20   -0.09721      0.99959     2.08961    0.00800     3.09721
      H   21    0.10887      0.00000     0.38950    0.00163     0.39113
      H   22    0.09924      0.00000     0.39936    0.00140     0.40076
      H   23    0.09412      0.00000     0.40445    0.00143     0.40588
      H   24    0.09924      0.00000     0.39921    0.00154     0.40076
      H   25    0.09356      0.00000     0.40478    0.00165     0.40644
      H   26    0.19116      0.00000     0.30636    0.00247     0.30884
      H   27    0.09543      0.00000     0.40321    0.00136     0.40457
      H   28    0.10074      0.00000     0.39772    0.00153     0.39926
      H   29    0.17445      0.00000     0.32266    0.00289     0.32555
      H   30    0.10288      0.00000     0.39595    0.00116     0.39712
      H   31    0.09383      0.00000     0.40498    0.00119     0.40617
      H   32    0.10462      0.00000     0.39400    0.00138     0.39538
      H   33    0.10712      0.00000     0.39116    0.00171     0.39288
      H   34    0.08634      0.00000     0.41218    0.00148     0.41366
      H   35    0.08790      0.00000     0.41023    0.00188     0.41210
      H   36    0.09564      0.00000     0.40308    0.00128     0.40436
      H   37    0.07855      0.00000     0.41999    0.00146     0.42145
      H   38    0.09545      0.00000     0.40286    0.00170     0.40455
      H   39    0.08837      0.00000     0.41059    0.00104     0.41163
      H   40    0.08196      0.00000     0.41639    0.00165     0.41804
      H   41    0.09121      0.00000     0.40718    0.00161     0.40879
      H   42    0.08631      0.00000     0.41267    0.00102     0.41369
 =======================================================================
   * Total *    0.00000     19.99228    55.76362    0.24409    76.00000

 Normal termination of Gaussian 16 at Sat Dec 12 17:56:38 2020.
