 Gaussian 16, Revision A.03,

 -----------------------------------------------------------
 # opt freq B3LYP/6-31G(d) empiricaldispersion=gd3bj scf=xqc
 -----------------------------------------------------------

 ----------------------------
 CID_437867_JID_5679_neutraal
 ----------------------------
 Symbolic Z-matrix:
 Charge =  0 Multiplicity = 1

 SCF Done:  E(RB3LYP) =  -724.502894672     A.U. after   15 cycles
 SCF Done:  E(RB3LYP) =  -724.502277467     A.U. after   13 cycles
 SCF Done:  E(RB3LYP) =  -724.506232846     A.U. after   12 cycles
 SCF Done:  E(RB3LYP) =  -724.504686408     A.U. after   12 cycles
 SCF Done:  E(RB3LYP) =  -724.507193304     A.U. after   12 cycles
 SCF Done:  E(RB3LYP) =  -724.507588803     A.U. after   13 cycles
 SCF Done:  E(RB3LYP) =  -724.507719531     A.U. after   12 cycles
 SCF Done:  E(RB3LYP) =  -724.507813598     A.U. after   11 cycles
 SCF Done:  E(RB3LYP) =  -724.507958020     A.U. after   11 cycles
 SCF Done:  E(RB3LYP) =  -724.507972599     A.U. after   11 cycles
 SCF Done:  E(RB3LYP) =  -724.508059465     A.U. after    8 cycles
 SCF Done:  E(RB3LYP) =  -724.508059731     A.U. after    7 cycles
 SCF Done:  E(RB3LYP) =  -724.508059829     A.U. after    7 cycles
 SCF Done:  E(RB3LYP) =  -724.508059921     A.U. after    7 cycles
 Optimization completed.
    -- Stationary point found.
 Normal termination of Gaussian 16 at Thu Dec 10 16:05:02 2020.

 --------------------------------------------------------------------
 #N Geom=AllCheck Guess=TCheck SCRF=Check GenChk RB3LYP/6-31G(d) Freq
 --------------------------------------------------------------------

 Structure from the checkpoint file:  "JID_5679.chk"
 ----------------------------
 CID_437867_JID_5679_neutraal
 ----------------------------
 Charge =  0 Multiplicity = 1

 SCF Done:  E(RB3LYP) =  -724.508059921     A.U. after    1 cycles

  Exact polarizability: 138.907   4.358 115.970   1.583  -1.496 124.994
 Approx polarizability: 181.626   9.857 162.097   7.129  -3.058 195.418

                      1                      2                      3
                      A                      A                      A
 Frequencies --     29.4629                39.7306                42.7138
 Red. masses --      3.6328                 4.2522                 5.2833
 Frc consts  --      0.0019                 0.0040                 0.0057
 IR Inten    --      0.4266                 1.5349                 0.9156

                      4                      5                      6
                      A                      A                      A
 Frequencies --     77.8730                87.1154               106.8568
 Red. masses --      3.9375                 3.7081                 3.5739
 Frc consts  --      0.0141                 0.0166                 0.0240
 IR Inten    --      1.3683                 1.2748                 1.0799

                      7                      8                      9
                      A                      A                      A
 Frequencies --    125.3436               149.6292               188.6550
 Red. masses --      4.5222                 3.2358                 2.5467
 Frc consts  --      0.0419                 0.0427                 0.0534
 IR Inten    --      0.9396                 2.4040                 0.2202

                     10                     11                     12
                      A                      A                      A
 Frequencies --    206.3222               221.5001               232.8233
 Red. masses --      2.0913                 1.3767                 1.3149
 Frc consts  --      0.0525                 0.0398                 0.0420
 IR Inten    --      2.2882                 0.9867                 0.1124

                     13                     14                     15
                      A                      A                      A
 Frequencies --    237.7022               249.1346               273.1317
 Red. masses --      1.8653                 2.0984                 2.5554
 Frc consts  --      0.0621                 0.0767                 0.1123
 IR Inten    --      0.2025                 0.7301                 1.8873

                     16                     17                     18
                      A                      A                      A
 Frequencies --    282.6297               304.6208               323.2712
 Red. masses --      2.4568                 2.7415                 1.9933
 Frc consts  --      0.1156                 0.1499                 0.1227
 IR Inten    --      3.1225                 6.6051                 7.5767

                     19                     20                     21
                      A                      A                      A
 Frequencies --    361.5041               392.8405               402.0244
 Red. masses --      2.3952                 2.3240                 2.0897
 Frc consts  --      0.1844                 0.2113                 0.1990
 IR Inten    --     14.4254                 3.5535                 7.0015

                     22                     23                     24
                      A                      A                      A
 Frequencies --    422.8151               451.7939               486.0005
 Red. masses --      2.5093                 1.5769                 2.0592
 Frc consts  --      0.2643                 0.1896                 0.2866
 IR Inten    --      3.7514                 4.9024                16.1826

                     25                     26                     27
                      A                      A                      A
 Frequencies --    531.1385               565.8018               592.3750
 Red. masses --      2.8727                 3.2247                 4.0161
 Frc consts  --      0.4775                 0.6082                 0.8303
 IR Inten    --     22.3209                32.5131                 4.5165

                     28                     29                     30
                      A                      A                      A
 Frequencies --    631.8281               645.2825               668.6069
 Red. masses --      1.9647                 1.4013                 1.8757
 Frc consts  --      0.4621                 0.3438                 0.4940
 IR Inten    --     41.7429               139.9871                42.7174

                     31                     32                     33
                      A                      A                      A
 Frequencies --    742.6470               754.4161               792.7363
 Red. masses --      3.5820                 4.5275                 2.6064
 Frc consts  --      1.1640                 1.5182                 0.9651
 IR Inten    --      3.4087                35.7651                 1.3355

                     34                     35                     36
                      A                      A                      A
 Frequencies --    811.3746               847.2101               918.7689
 Red. masses --      3.7698                 2.5297                 2.0527
 Frc consts  --      1.4622                 1.0698                 1.0209
 IR Inten    --      3.9308                 3.6293                19.1325

                     37                     38                     39
                      A                      A                      A
 Frequencies --    938.9413               942.7636               975.8308
 Red. masses --      1.1926                 1.6869                 1.6263
 Frc consts  --      0.6195                 0.8834                 0.9124
 IR Inten    --      3.1272                31.5911                 5.0507

                     40                     41                     42
                      A                      A                      A
 Frequencies --    977.2419               990.3627              1011.8551
 Red. masses --      1.5465                 1.6319                 1.6478
 Frc consts  --      0.8702                 0.9431                 0.9940
 IR Inten    --      9.6995                11.7171               155.3214

                     43                     44                     45
                      A                      A                      A
 Frequencies --   1030.1356              1071.1699              1108.5557
 Red. masses --      1.4985                 2.6915                 1.9574
 Frc consts  --      0.9369                 1.8195                 1.4173
 IR Inten    --      7.9862                 7.1117                43.6563

                     46                     47                     48
                      A                      A                      A
 Frequencies --   1127.5257              1146.2649              1158.3877
 Red. masses --      2.3054                 2.1287                 1.7768
 Frc consts  --      1.7268                 1.6479                 1.4048
 IR Inten    --     40.5301                20.7757                 3.7075

                     49                     50                     51
                      A                      A                      A
 Frequencies --   1186.1356              1207.9229              1215.5379
 Red. masses --      3.1290                 1.7581                 2.4814
 Frc consts  --      2.5937                 1.5114                 2.1602
 IR Inten    --      6.7994                 4.1756                 1.8837

                     52                     53                     54
                      A                      A                      A
 Frequencies --   1259.5886              1264.0952              1313.9620
 Red. masses --      1.3808                 1.3787                 1.2917
 Frc consts  --      1.2907                 1.2980                 1.3139
 IR Inten    --     13.3781                 5.9228                10.6817

                     55                     56                     57
                      A                      A                      A
 Frequencies --   1328.4273              1362.5611              1387.3936
 Red. masses --      1.5541                 1.2654                 1.4411
 Frc consts  --      1.6158                 1.3841                 1.6344
 IR Inten    --     51.6784                 1.0576                36.2714

                     58                     59                     60
                      A                      A                      A
 Frequencies --   1390.5390              1397.0756              1400.5379
 Red. masses --      1.3230                 1.3381                 1.4127
 Frc consts  --      1.5072                 1.5388                 1.6327
 IR Inten    --      7.2518                20.8891                38.9016

                     61                     62                     63
                      A                      A                      A
 Frequencies --   1414.2504              1417.8716              1430.6662
 Red. masses --      1.4032                 2.0495                 1.2765
 Frc consts  --      1.6536                 2.4276                 1.5393
 IR Inten    --      3.7783                56.0708                11.7774

                     64                     65                     66
                      A                      A                      A
 Frequencies --   1434.8106              1444.4705              1449.3575
 Red. masses --      1.6907                 1.2481                 1.2383
 Frc consts  --      2.0507                 1.5343                 1.5326
 IR Inten    --     52.7370                 6.3906                 7.6514

                     67                     68                     69
                      A                      A                      A
 Frequencies --   1458.9545              1505.9756              1516.6345
 Red. masses --      1.8492                 1.1661                 1.3029
 Frc consts  --      2.3192                 1.5582                 1.7657
 IR Inten    --     38.8497                 9.9739                19.8695

                     70                     71                     72
                      A                      A                      A
 Frequencies --   1520.6263              1525.0630              1527.5413
 Red. masses --      1.1506                 1.0600                 1.0685
 Frc consts  --      1.5675                 1.4526                 1.4690
 IR Inten    --      8.3516                11.0224                 3.7581

                     73                     74                     75
                      A                      A                      A
 Frequencies --   1531.3764              1536.1510              1541.3170
 Red. masses --      1.1151                 1.0724                 1.0598
 Frc consts  --      1.5407                 1.4910                 1.4834
 IR Inten    --      6.3880                 2.7408                17.6795

                     76                     77                     78
                      A                      A                      A
 Frequencies --   1691.1614              1757.0506              1777.2012
 Red. masses --      1.0880                 1.0707                 8.0782
 Frc consts  --      1.8334                 1.9475                15.0327
 IR Inten    --     46.5382                26.2132               453.9293

                     79                     80                     81
                      A                      A                      A
 Frequencies --   1780.2380              3022.8993              3038.9695
 Red. masses --      7.5325                 1.0824                 1.0362
 Frc consts  --     14.0652                 5.8273                 5.6380
 IR Inten    --    186.2582                 6.7456                32.4778

                     82                     83                     84
                      A                      A                      A
 Frequencies --   3040.9674              3044.6629              3047.9491
 Red. masses --      1.0460                 1.0845                 1.0519
 Frc consts  --      5.6990                 5.9231                 5.7577
 IR Inten    --     11.3705                29.0833                32.0393

                     85                     86                     87
                      A                      A                      A
 Frequencies --   3056.7861              3090.3803              3101.5163
 Red. masses --      1.0419                 1.1028                 1.1005
 Frc consts  --      5.7358                 6.2057                 6.2373
 IR Inten    --     22.3834                10.7741                18.8493

                     88                     89                     90
                      A                      A                      A
 Frequencies --   3107.1472              3112.9551              3118.9471
 Red. masses --      1.1007                 1.1014                 1.1024
 Frc consts  --      6.2610                 6.2884                 6.3186
 IR Inten    --     47.1286                57.7208                36.5659

                     91                     92                     93
                      A                      A                      A
 Frequencies --   3123.7085              3151.5764              3232.8102
 Red. masses --      1.0963                 1.1019                 1.0834
 Frc consts  --      6.3028                 6.4485                 6.6709
 IR Inten    --     21.0467                23.0690                 4.0925

                     94                     95                     96
                      A                      A                      A
 Frequencies --   3360.9375              3450.3039              3509.9629
 Red. masses --      1.0569                 1.0504                 1.0885
 Frc consts  --      7.0343                 7.3674                 7.9009
 IR Inten    --    195.0138                 0.4766                28.1635

                     97                     98                     99
                      A                      A                      A
 Frequencies --   3530.6988              3566.0982              3584.3546
 Red. masses --      1.0920                 1.0750                 1.0770
 Frc consts  --      8.0201                 8.0545                 8.1522
 IR Inten    --      1.3059                31.4874                26.7543

 - Thermochemistry -
 -------------------
 Temperature   298.150 Kelvin.  Pressure   1.00000 Atm.
 Atom     1 has atomic number  6 and mass  12.00000

 Molecular mass:   216.15863 amu.
 Principal axes and moments of inertia in atomic units:
                           1         2         3
     Eigenvalues --  2568.768164428.462854745.09097
           X            0.99934  -0.02755  -0.02362
           Y            0.02735   0.99959  -0.00857
           Z            0.02385   0.00791   0.99968
 This molecule is an asymmetric top.
 Rotational symmetry number  1.
 Warning -- assumption of classical behavior for rotation
           may cause significant error
 Rotational temperatures (Kelvin)      0.03372     0.01956     0.01825
 Rotational constants (GHZ):           0.70257     0.40753     0.38034
 Zero-point vibrational energy     813130.7 (Joules/Mol)
                                  194.34291 (Kcal/Mol)
 Warning -- explicit consideration of  27 degrees of freedom as
           vibrations may cause significant error
 Vibrational temperatures:     42.39    57.16    61.46   112.04   125.34
          (Kelvin)            153.74   180.34   215.28   271.43   296.85
                              318.69   334.98   342.00   358.45   392.98
                              406.64   438.28   465.12   520.12   565.21
                              578.42   608.34   650.03   699.25   764.19
                              814.06   852.30   909.06   928.42   961.98
                             1068.50  1085.44  1140.57  1167.39  1218.95
                             1321.90  1350.93  1356.43  1404.00  1406.03
                             1424.91  1455.83  1482.14  1541.17  1594.96
                             1622.26  1649.22  1666.66  1706.58  1737.93
                             1748.89  1812.27  1818.75  1890.50  1911.31
                             1960.42  1996.15  2000.68  2010.08  2015.06
                             2034.79  2040.00  2058.41  2064.37  2078.27
                             2085.30  2099.11  2166.76  2182.10  2187.84
                             2194.23  2197.79  2203.31  2210.18  2217.61
                             2433.20  2528.00  2557.00  2561.37  4349.28
                             4372.40  4375.27  4380.59  4385.32  4398.03
                             4446.37  4462.39  4470.49  4478.85  4487.47
                             4494.32  4534.42  4651.29  4835.64  4964.22
                             5050.05  5079.89  5130.82  5157.09

 Zero-point correction=                           0.309705 (Hartree/Particle)
 Thermal correction to Energy=                    0.327364
 Thermal correction to Enthalpy=                  0.328309
 Thermal correction to Gibbs Free Energy=         0.263857
 Sum of electronic and zero-point Energies=           -724.198355
 Sum of electronic and thermal Energies=              -724.180695
 Sum of electronic and thermal Enthalpies=            -724.179751
 Sum of electronic and thermal Free Energies=         -724.244203

                     E (Thermal)             CV                S
                      KCal/Mol        Cal/Mol-Kelvin    Cal/Mol-Kelvin
 Total                  205.424             64.884            135.650
 Electronic               0.000              0.000              0.000
 Translational            0.889              2.981             42.016
 Rotational               0.889              2.981             32.357
 Vibrational            203.647             58.922             61.278
 Vibration     1          0.593              1.984              5.865
 Vibration     2          0.594              1.981              5.272
 Vibration     3          0.595              1.980              5.129
 Vibration     4          0.599              1.964              3.944
 Vibration     5          0.601              1.958              3.724
 Vibration     6          0.606              1.944              3.325
 Vibration     7          0.610              1.928              3.016
 Vibration     8          0.618              1.903              2.677
 Vibration     9          0.633              1.855              2.241
 Vibration    10          0.641              1.831              2.076
 Vibration    11          0.648              1.808              1.947
 Vibration    12          0.654              1.791              1.857
 Vibration    13          0.656              1.783              1.820
 Vibration    14          0.662              1.764              1.737
 Vibration    15          0.676              1.723              1.576
 Vibration    16          0.682              1.706              1.518
 Vibration    17          0.696              1.665              1.391
 Vibration    18          0.708              1.629              1.294
 Vibration    19          0.736              1.552              1.116
 Vibration    20          0.760              1.485              0.989
 Vibration    21          0.768              1.466              0.955
 Vibration    22          0.785              1.421              0.882
 Vibration    23          0.810              1.357              0.790
 Vibration    24          0.842              1.281              0.694
 Vibration    25          0.886              1.181              0.585
 Vibration    26          0.922              1.105              0.512
 Vibration    27          0.950              1.048              0.463

 Optimization completed.
    -- Stationary point found.
 Normal termination of Gaussian 16 at Thu Dec 10 16:16:29 2020.

 ----------------------------------------------------------------------
 # B3LYP/6-311++G(d,p) empiricaldispersion=gd3bj scf=xqc pop=npa geom=c
 heck
 ----------------------------------------------------------------------

 ------------------------------------
 CID_437867_JID_5679_Energie_neutraal
 ------------------------------------
 Structure from the checkpoint file:  "JID_5679.chk"
 Charge =  0 Multiplicity = 1

 SCF Done:  E(RB3LYP) =  -724.740742539     A.U. after   15 cycles
 Normal termination of Gaussian 16 at Thu Dec 10 16:21:42 2020.

 ----------------------------------------------------------------------
 # B3LYP/6-311++G(d,p) empiricaldispersion=gd3bj scf=xqc pop=npa geom=c
 heck
 ----------------------------------------------------------------------

 ----------------------------------
 CID_437867_JID_5679_Energie_kation
 ----------------------------------
 Structure from the checkpoint file:  "JID_5679.chk"
 Charge =  1 Multiplicity = 2

 SCF Done:  E(UB3LYP) =  -724.420376751     A.U. after   33 cycles
 SCF Done:  E(UB3LYP) =  -724.420376752     a.u. after    2 cycles
 Normal termination of Gaussian 16 at Thu Dec 10 16:50:12 2020.
 Gaussian 16:  ES64L-G16RevA.03 25-Dec-2016

 ----------------------------------------------------------------------
 # B3LYP/6-311++G(d,p) empiricaldispersion=gd3bj scf=xqc pop=npa geom=c
 heck
 ----------------------------------------------------------------------

 ---------------------------------
 CID_437867_JID_5679_Energie_anion
 ---------------------------------
 Structure from the checkpoint file:  "JID_5679.chk"
 Charge = -1 Multiplicity = 2

                         Standard orientation:
 ---------------------------------------------------------------------
 Center     Atomic      Atomic             Coordinates (Angstroms)
 Number     Number       Type             X           Y           Z
 ---------------------------------------------------------------------
      1          6           0        2.360308   -1.308500    1.392929
      2          6           0        2.612853   -0.685769    0.012440
      3          6           0        3.793487   -1.378996   -0.678151
      4          6           0        1.364830   -0.747972   -0.883906
      5          6           0        0.193087    0.123714   -0.405906
      6          6           0        0.577326    1.607618   -0.506283
      7          8           0        0.788879    2.117495   -1.602022
      8          7           0        0.670311    2.323859    0.650881
      9          7           0        0.309669    1.918887    1.951519
     10          7           0       -0.972617   -0.074745   -1.257900
     11          6           0       -2.260938   -0.387672   -0.932109
     12          8           0       -3.143314   -0.400741   -1.783687
     13          6           0       -2.615234   -0.765056    0.518982
     14          6           0       -1.950916   -2.063009    0.987229
     15          7           0       -2.305803    0.344948    1.450661
     16          1           0        2.086336   -2.366933    1.295088
     17          1           0        1.550355   -0.808634    1.936422
     18          1           0        3.258215   -1.254417    2.018615
     19          1           0        2.880969    0.371311    0.154395
     20          1           0        3.570399   -2.438202   -0.859759
     21          1           0        4.015792   -0.912671   -1.644150
     22          1           0        4.698033   -1.329733   -0.061356
     23          1           0        1.625162   -0.423126   -1.898373
     24          1           0        1.011275   -1.785001   -0.955132
     25          1           0       -0.087051   -0.130489    0.608061
     26          1           0        0.835983    3.316956    0.537432
     27          1           0       -0.567540    1.388672    1.902959
     28          1           0        1.038393    1.312700    2.325140
     29          1           0       -0.864703    0.258035   -2.211122
     30          1           0       -3.695853   -0.944807    0.458932
     31          1           0       -0.864638   -1.974011    1.067333
     32          1           0       -2.339360   -2.350495    1.971860
     33          1           0       -2.179979   -2.872640    0.287831
     34          1           0       -2.850132    1.163387    1.175716
     35          1           0       -2.645922    0.089269    2.378310
 ---------------------------------------------------------------------

 SCF Done:  E(UB3LYP) =  -724.735528626     A.U. after   33 cycles
 SCF Done:  E(UB3LYP) =  -724.735528626     a.u. after    1 cycles

 The electronic state is 2-A.
 Alpha  occ. eigenvalues --  -19.00739 -18.99644 -14.27739 -14.24839 -14.23974
 Alpha  occ. eigenvalues --  -14.21418 -10.18855 -10.18122 -10.13205 -10.11895
 Alpha  occ. eigenvalues --  -10.09235 -10.08550 -10.07572 -10.07430 -10.07034
 Alpha  occ. eigenvalues --   -0.96283  -0.94741  -0.89114  -0.83896  -0.80339
 Alpha  occ. eigenvalues --   -0.73131  -0.70986  -0.66588  -0.65509  -0.60063
 Alpha  occ. eigenvalues --   -0.57800  -0.55883  -0.51961  -0.48808  -0.47621
 Alpha  occ. eigenvalues --   -0.44058  -0.42540  -0.41659  -0.40246  -0.39080
 Alpha  occ. eigenvalues --   -0.38762  -0.38097  -0.35908  -0.35416  -0.34603
 Alpha  occ. eigenvalues --   -0.33883  -0.32276  -0.31766  -0.30516  -0.30031
 Alpha  occ. eigenvalues --   -0.29141  -0.28589  -0.28179  -0.27813  -0.27400
 Alpha  occ. eigenvalues --   -0.25267  -0.24574  -0.24417  -0.20978  -0.18705
 Alpha  occ. eigenvalues --   -0.16953  -0.16888  -0.16473  -0.15911   0.03862
 Alpha virt. eigenvalues --    0.05923   0.07212   0.07633   0.08352   0.08577
 Alpha virt. eigenvalues --    0.09235   0.09421   0.09707   0.10415   0.10700
 Alpha virt. eigenvalues --    0.11105   0.11402   0.11495   0.12487   0.13019

  Beta  occ. eigenvalues --  -19.00737 -18.99636 -14.27733 -14.24837 -14.23941
  Beta  occ. eigenvalues --  -14.21341 -10.18855 -10.18120 -10.13198 -10.11880
  Beta  occ. eigenvalues --  -10.09227 -10.08544 -10.07554 -10.07391 -10.06991
  Beta  occ. eigenvalues --   -0.96277  -0.94728  -0.89090  -0.83886  -0.80229
  Beta  occ. eigenvalues --   -0.73111  -0.70938  -0.66551  -0.65435  -0.60001
  Beta  occ. eigenvalues --   -0.57774  -0.55811  -0.51934  -0.48781  -0.47578
  Beta  occ. eigenvalues --   -0.44024  -0.42498  -0.41599  -0.40217  -0.39041
  Beta  occ. eigenvalues --   -0.38688  -0.38050  -0.35874  -0.35380  -0.34574
  Beta  occ. eigenvalues --   -0.33858  -0.32244  -0.31733  -0.30481  -0.30002
  Beta  occ. eigenvalues --   -0.29087  -0.28566  -0.28152  -0.27777  -0.27357
  Beta  occ. eigenvalues --   -0.25236  -0.24541  -0.24385  -0.20954  -0.18687
  Beta  occ. eigenvalues --   -0.16935  -0.16823  -0.16455  -0.15896
  Beta virt. eigenvalues --    0.06159   0.07153   0.07540   0.08175   0.08565
  Beta virt. eigenvalues --    0.08770   0.09565   0.09796   0.10004   0.10541
  Beta virt. eigenvalues --    0.11031   0.11437   0.11712   0.11923   0.12729

 Mulliken charges and spin densities:
               1          2
     1  C    0.864728  -1.479981
     2  C   -1.356146   1.759899
     3  C   -0.077796  -0.624050
     4  C    0.349652  -1.076879
     5  C    0.001507   0.180282
     6  C   -0.193175  -0.021168
     7  O   -0.313654   0.004770
     8  N   -0.282025   0.045343
     9  N   -0.485748  -0.059158
    10  N   -0.072862   0.066546
    11  C    0.269425  -0.373807
    12  O   -0.328235   0.016136
    13  C   -0.392695   0.303729
    14  C    0.515225  -1.039810
    15  N   -0.110062  -0.283659
    16  H    0.028866   0.128044
    17  H   -0.468218   0.584500
    18  H   -0.487597   0.650712
    19  H    0.082240   0.109011
    20  H    0.020268   0.113801
    21  H    0.049348   0.088440
    22  H   -0.156564   0.310620
    23  H    0.217871  -0.040593
    24  H    0.087815   0.095984
    25  H    1.446604  -1.203676
    26  H    0.269070   0.070944
    27  H    0.266067   0.078483
    28  H    0.044944   0.208793
    29  H    0.361406  -0.013198
    30  H   -0.172736   0.420745
    31  H   -0.076063   0.220751
    32  H   -0.594733   0.772170
    33  H    0.099863   0.049562
    34  H   -0.072724   0.331560
    35  H   -0.333868   0.605156
 Sum of Mulliken charges =  -1.00000   1.00000

 Dipole moment (field-independent basis, Debye):
    X=              3.3909    Y=              1.0093    Z=             -4.8330  Tot=              5.9896
 Quadrupole moment (field-independent basis, Debye-Ang):
   XX=           -165.3520   YY=           -128.6770   ZZ=           -152.1863
   XY=              0.3260   XZ=              0.2470   YZ=              7.7110

 Summary of Natural Population Analysis:

                                       Natural Population
                Natural  -----------------------------------------------
    Atom  No    Charge         Core      Valence    Rydberg      Total
 -----------------------------------------------------------------------
      C    1   -0.28559      0.99965     2.27915    0.00679     3.28559
      C    2   -0.11859      0.99961     2.11034    0.00864     3.11859
      C    3   -0.28140      0.99965     2.27610    0.00565     3.28140
      C    4   -0.18844      0.99960     2.17841    0.01043     3.18844
      C    5   -0.06199      0.99953     2.04935    0.01312     3.06199
      C    6    0.33799      0.99963     1.63890    0.02348     2.66201
      O    7   -0.33043      0.99988     3.32476    0.00579     4.33043
      N    8   -0.22806      0.99965     2.71587    0.01254     3.72806
      N    9   -0.32914      0.99976     2.81787    0.01151     3.82914
      N   10   -0.31338      0.99965     2.80345    0.01028     3.81338
      C   11    0.34323      0.99963     1.63316    0.02398     2.65677
      O   12   -0.32266      0.99988     3.31690    0.00588     4.32266
      C   13   -0.04881      0.99958     2.03588    0.01335     3.04881
      C   14   -0.28612      0.99964     2.28032    0.00616     3.28612
      N   15   -0.43677      0.99976     2.92531    0.01170     3.93677
      H   16    0.09774      0.00000     0.40097    0.00128     0.40226
      H   17    0.09663      0.00000     0.40139    0.00198     0.40337
      H   18    0.10300      0.00000     0.39568    0.00132     0.39700
      H   19    0.09425      0.00000     0.40364    0.00211     0.40575
      H   20    0.09623      0.00000     0.40297    0.00080     0.40377
      H   21    0.09834      0.00000     0.40098    0.00068     0.40166
      H   22    0.10065      0.00000     0.39857    0.00077     0.39935
      H   23    0.10462      0.00000     0.39414    0.00123     0.39538
      H   24    0.10123      0.00000     0.39770    0.00107     0.39877
      H   25    0.12041      0.00000     0.37475    0.00485     0.37959
      H   26    0.18859      0.00000     0.30898    0.00242     0.31141
      H   27    0.19592      0.00000     0.30060    0.00348     0.30408
      H   28    0.17292      0.00000     0.32420    0.00288     0.32708
      H   29    0.19945      0.00000     0.29837    0.00218     0.30055
      H   30    0.09859      0.00000     0.39988    0.00153     0.40141
      H   31    0.09870      0.00000     0.39982    0.00148     0.40130
      H   32    0.10649      0.00000     0.39190    0.00160     0.39351
      H   33    0.10347      0.00000     0.39555    0.00098     0.39653
      H   34    0.18276      0.00000     0.31474    0.00249     0.31724
      H   35    0.19018      0.00000     0.29926    0.01056     0.30982
 =======================================================================
   * Total *   -0.00000     14.99509    43.78992    0.21499    59.00000

 Normal termination of Gaussian 16 at Thu Dec 10 17:10:01 2020.
