 Gaussian 16, Revision A.03,

 -----------------------------------------------------------
 # opt freq B3LYP/6-31G(d) empiricaldispersion=gd3bj scf=xqc
 -----------------------------------------------------------

 -------------------------------
 CID_113705169_JID_9408_neutraal
 -------------------------------
 Symbolic Z-matrix:
 Charge =  0 Multiplicity = 1

 SCF Done:  E(RB3LYP) =  -881.838656908     A.U. after   14 cycles
 SCF Done:  E(RB3LYP) =  -881.852318743     A.U. after   12 cycles
 SCF Done:  E(RB3LYP) =  -881.853897283     A.U. after   12 cycles
 SCF Done:  E(RB3LYP) =  -881.854897998     A.U. after   11 cycles
 SCF Done:  E(RB3LYP) =  -881.855548060     A.U. after   11 cycles
 SCF Done:  E(RB3LYP) =  -881.853819499     A.U. after   12 cycles
 SCF Done:  E(RB3LYP) =  -881.856355136     A.U. after   11 cycles
 SCF Done:  E(RB3LYP) =  -881.856869764     A.U. after   11 cycles
 SCF Done:  E(RB3LYP) =  -881.857255381     A.U. after   11 cycles
 SCF Done:  E(RB3LYP) =  -881.857408930     A.U. after   11 cycles
 SCF Done:  E(RB3LYP) =  -881.860844088     A.U. after   10 cycles
 SCF Done:  E(RB3LYP) =  -881.860874172     A.U. after   10 cycles
 SCF Done:  E(RB3LYP) =  -881.860898227     A.U. after    9 cycles
 SCF Done:  E(RB3LYP) =  -881.860901655     A.U. after    9 cycles
 SCF Done:  E(RB3LYP) =  -881.860902898     A.U. after    8 cycles
 SCF Done:  E(RB3LYP) =  -881.860902934     A.U. after    6 cycles
 Optimization completed.
    -- Stationary point found.
 Normal termination of Gaussian 16 at Sat Dec 12 10:20:35 2020.

 --------------------------------------------------------------------
 #N Geom=AllCheck Guess=TCheck SCRF=Check GenChk RB3LYP/6-31G(d) Freq
 --------------------------------------------------------------------

 Structure from the checkpoint file:  "JID_9408.chk"
 -------------------------------
 CID_113705169_JID_9408_neutraal
 -------------------------------
 Charge =  0 Multiplicity = 1

 SCF Done:  E(RB3LYP) =  -881.860902934     A.U. after    1 cycles

  Exact polarizability: 209.051  -0.510 169.269   8.465  -3.597 128.480
 Approx polarizability: 279.802   1.680 266.067  21.972 -15.682 185.809

                      1                      2                      3
                      A                      A                      A
 Frequencies --     40.8108                52.6045                57.0891
 Red. masses --      4.1489                 3.8457                 2.4884
 Frc consts  --      0.0041                 0.0063                 0.0048
 IR Inten    --      0.1921                 0.3616                 0.6408

                      4                      5                      6
                      A                      A                      A
 Frequencies --     88.5301                98.5478               101.7614
 Red. masses --      3.0649                 3.3240                 3.1802
 Frc consts  --      0.0142                 0.0190                 0.0194
 IR Inten    --      3.7054                 1.3270                 2.1446

                      7                      8                      9
                      A                      A                      A
 Frequencies --    117.0033               134.3515               138.4433
 Red. masses --      2.8874                 1.1811                 3.3808
 Frc consts  --      0.0233                 0.0126                 0.0382
 IR Inten    --      0.4090                 0.0661                13.2198

                     10                     11                     12
                      A                      A                      A
 Frequencies --    149.5137               168.2449               179.6782
 Red. masses --      2.7718                 1.1426                 2.5177
 Frc consts  --      0.0365                 0.0191                 0.0479
 IR Inten    --      0.3649                 0.2213                 4.2108

                     13                     14                     15
                      A                      A                      A
 Frequencies --    187.1989               202.3181               211.2694
 Red. masses --      3.4196                 2.5467                 2.1943
 Frc consts  --      0.0706                 0.0614                 0.0577
 IR Inten    --      1.1003                 2.4055                 3.9145

                     16                     17                     18
                      A                      A                      A
 Frequencies --    220.4088               240.2162               265.5838
 Red. masses --      1.4622                 3.7116                 3.7579
 Frc consts  --      0.0419                 0.1262                 0.1562
 IR Inten    --      0.2884                 2.8669                 2.5515

                     19                     20                     21
                      A                      A                      A
 Frequencies --    293.1221               304.3233               326.3779
 Red. masses --      3.2245                 1.5693                 2.6585
 Frc consts  --      0.1632                 0.0856                 0.1669
 IR Inten    --     10.4458                32.8082                28.5230

                     22                     23                     24
                      A                      A                      A
 Frequencies --    347.0765               352.8137               407.1416
 Red. masses --      5.1641                 4.9199                 4.0557
 Frc consts  --      0.3665                 0.3608                 0.3961
 IR Inten    --      2.8678                 0.0168                 0.1198

                     25                     26                     27
                      A                      A                      A
 Frequencies --    449.3128               475.4223               493.8104
 Red. masses --      4.6815                 4.1047                 3.2579
 Frc consts  --      0.5568                 0.5466                 0.4681
 IR Inten    --      0.6086                 4.5725                 2.5509

                     28                     29                     30
                      A                      A                      A
 Frequencies --    505.1623               557.0572               606.9344
 Red. masses --      6.2179                 3.9279                 5.0137
 Frc consts  --      0.9349                 0.7181                 1.0882
 IR Inten    --      0.9307                 3.1172                11.5446

                     31                     32                     33
                      A                      A                      A
 Frequencies --    628.1001               650.1771               670.1649
 Red. masses --      3.9925                 4.3749                 3.1655
 Frc consts  --      0.9280                 1.0896                 0.8376
 IR Inten    --     21.5694                 1.4205                 8.0110

                     34                     35                     36
                      A                      A                      A
 Frequencies --    704.4954               746.2155               762.1243
 Red. masses --      3.2076                 1.9631                 6.0111
 Frc consts  --      0.9380                 0.6440                 2.0571
 IR Inten    --      7.4664                 7.0191                 4.9241

                     37                     38                     39
                      A                      A                      A
 Frequencies --    797.6961               811.1295               823.2398
 Red. masses --      2.2170                 1.4842                 1.7569
 Frc consts  --      0.8312                 0.5753                 0.7016
 IR Inten    --     22.8197                16.2223                49.7916

                     40                     41                     42
                      A                      A                      A
 Frequencies --    847.8747               909.9038               928.6806
 Red. masses --      1.6886                 2.2887                 3.0713
 Frc consts  --      0.7152                 1.1164                 1.5607
 IR Inten    --      3.5983                 1.9233                 8.6390

                     43                     44                     45
                      A                      A                      A
 Frequencies --    939.1140               941.3517               955.7576
 Red. masses --      2.0504                 1.4107                 3.1370
 Frc consts  --      1.0654                 0.7365                 1.6883
 IR Inten    --      4.2114                 1.7612                36.1222

                     46                     47                     48
                      A                      A                      A
 Frequencies --    970.8484               979.9141               994.9675
 Red. masses --      1.5556                 1.9643                 2.7531
 Frc consts  --      0.8639                 1.1113                 1.6058
 IR Inten    --     13.6080                74.9529                18.6995

                     49                     50                     51
                      A                      A                      A
 Frequencies --   1042.6154              1054.1779              1066.6557
 Red. masses --      2.1266                 8.1317                 4.5158
 Frc consts  --      1.3620                 5.3243                 3.0271
 IR Inten    --      3.7902                70.4769                83.6306

                     52                     53                     54
                      A                      A                      A
 Frequencies --   1102.3827              1118.5212              1134.7455
 Red. masses --      2.9462                 2.4690                 2.3835
 Frc consts  --      2.1095                 1.8200                 1.8083
 IR Inten    --    117.4725                11.6214                56.2775

                     55                     56                     57
                      A                      A                      A
 Frequencies --   1151.3225              1178.8832              1182.0018
 Red. masses --      2.1030                 1.3355                 1.6991
 Frc consts  --      1.6424                 1.0936                 1.3987
 IR Inten    --     11.7522                 7.9263                20.0431

                     58                     59                     60
                      A                      A                      A
 Frequencies --   1187.6243              1189.1166              1195.5630
 Red. masses --      1.2523                 1.2515                 1.7645
 Frc consts  --      1.0407                 1.0426                 1.4860
 IR Inten    --      1.0745                 9.9531                 8.1854

                     61                     62                     63
                      A                      A                      A
 Frequencies --   1210.3368              1215.1917              1220.6444
 Red. masses --      1.5600                 1.5584                 1.3986
 Frc consts  --      1.3464                 1.3559                 1.2278
 IR Inten    --      2.5038                 3.0809                 2.2158

                     64                     65                     66
                      A                      A                      A
 Frequencies --   1233.5136              1257.2168              1263.0589
 Red. masses --      1.5821                 1.4055                 3.3619
 Frc consts  --      1.4183                 1.3089                 3.1599
 IR Inten    --     36.6027                 4.4868                20.0635

                     67                     68                     69
                      A                      A                      A
 Frequencies --   1269.5758              1273.6238              1281.0924
 Red. masses --      1.4628                 1.5359                 1.2079
 Frc consts  --      1.3892                 1.4679                 1.1680
 IR Inten    --     27.2124                23.2493                 1.7784

                     70                     71                     72
                      A                      A                      A
 Frequencies --   1289.5613              1306.6256              1317.3876
 Red. masses --      1.5240                 1.2699                 2.2352
 Frc consts  --      1.4932                 1.2774                 2.2855
 IR Inten    --     11.1576                 1.4404               107.7419

                     73                     74                     75
                      A                      A                      A
 Frequencies --   1326.4407              1328.0054              1354.0321
 Red. masses --      1.5649                 3.8620                 2.1454
 Frc consts  --      1.6222                 4.0129                 2.3174
 IR Inten    --      6.5052                43.1855                25.2731

                     76                     77                     78
                      A                      A                      A
 Frequencies --   1368.6138              1403.7832              1466.2256
 Red. masses --      1.2966                 1.6053                 1.9524
 Frc consts  --      1.4310                 1.8639                 2.4730
 IR Inten    --      7.8177                47.4942                93.3054

                     79                     80                     81
                      A                      A                      A
 Frequencies --   1480.1584              1500.4804              1506.7594
 Red. masses --      1.2730                 1.1946                 1.3001
 Frc consts  --      1.6432                 1.5846                 1.7391
 IR Inten    --     26.7755                 4.6875                25.4433

                     82                     83                     84
                      A                      A                      A
 Frequencies --   1508.7244              1512.2761              1514.8719
 Red. masses --      1.1329                 1.0979                 1.0553
 Frc consts  --      1.5193                 1.4793                 1.4269
 IR Inten    --      3.4116                16.5195                 4.0374

                     85                     86                     87
                      A                      A                      A
 Frequencies --   1516.5541              1518.9704              1530.9525
 Red. masses --      1.1114                 1.1603                 1.9637
 Frc consts  --      1.5060                 1.5773                 2.7117
 IR Inten    --      6.5278                 6.6836                74.3005

                     88                     89                     90
                      A                      A                      A
 Frequencies --   1535.2237              1540.9225              1543.6666
 Red. masses --      1.0865                 1.0578                 1.2097
 Frc consts  --      1.5087                 1.4799                 1.6984
 IR Inten    --     19.7420                 4.9254                 7.4829

                     91                     92                     93
                      A                      A                      A
 Frequencies --   1545.2475              1550.0071              1633.1228
 Red. masses --      1.2403                 1.0519                 6.4567
 Frc consts  --      1.7450                 1.4890                10.1461
 IR Inten    --      2.8196                13.7592                 7.6108

                     94                     95                     96
                      A                      A                      A
 Frequencies --   1652.1381              1707.3825              3040.1558
 Red. masses --      7.0394                 1.0792                 1.0379
 Frc consts  --     11.3209                 1.8537                 5.6522
 IR Inten    --     26.7409                10.1672                75.2957

                     97                     98                     99
                      A                      A                      A
 Frequencies --   3041.2918              3051.9204              3053.8398
 Red. masses --      1.0360                 1.0825                 1.0356
 Frc consts  --      5.6458                 5.9407                 5.6904
 IR Inten    --     33.1439                21.0014                52.2541

                    100                    101                    102
                      A                      A                      A
 Frequencies --   3062.6182              3064.4425              3065.9234
 Red. masses --      1.0666                 1.0683                 1.0645
 Frc consts  --      5.8946                 5.9107                 5.8954
 IR Inten    --     38.8099                41.3719                47.1837

                    103                    104                    105
                      A                      A                      A
 Frequencies --   3074.6595              3106.2498              3113.2890
 Red. masses --      1.0634                 1.1082                 1.1025
 Frc consts  --      5.9231                 6.2998                 6.2963
 IR Inten    --     33.2872                17.3806                24.2216

                    106                    107                    108
                      A                      A                      A
 Frequencies --   3120.0180              3126.2383              3131.3902
 Red. masses --      1.1080                 1.0930                 1.1004
 Frc consts  --      6.3546                 6.2940                 6.3576
 IR Inten    --     31.1180                35.0657                30.6657

                    109                    110                    111
                      A                      A                      A
 Frequencies --   3138.1214              3154.0408              3160.5756
 Red. masses --      1.1031                 1.1050                 1.1064
 Frc consts  --      6.4004                 6.4764                 6.5116
 IR Inten    --     77.4060                31.4939                20.2390

                    112                    113                    114
                      A                      A                      A
 Frequencies --   3163.7751              3194.4037              3219.3021
 Red. masses --      1.1078                 1.0884                 1.0939
 Frc consts  --      6.5331                 6.5438                 6.6797
 IR Inten    --     16.9694                 9.1978                 8.0360

                    115                    116                    117
                      A                      A                      A
 Frequencies --   3411.5880              3509.3267              3532.6840
 Red. masses --      1.0535                 1.0744                 1.0891
 Frc consts  --      7.2240                 7.7959                 8.0080
 IR Inten    --     21.2557                 7.4397                 0.3615

 - Thermochemistry -
 -------------------
 Temperature   298.150 Kelvin.  Pressure   1.00000 Atm.
 Atom     1 has atomic number  6 and mass  12.00000

 Molecular mass:   266.16304 amu.
 Principal axes and moments of inertia in atomic units:
                           1         2         3
     Eigenvalues --  3031.727107347.488287667.01601
           X            0.99997   0.00323  -0.00703
           Y           -0.00283   0.99844   0.05573
           Z            0.00720  -0.05571   0.99842
 This molecule is an asymmetric top.
 Rotational symmetry number  1.
 Warning -- assumption of classical behavior for rotation
           may cause significant error
 Rotational temperatures (Kelvin)      0.02857     0.01179     0.01130
 Rotational constants (GHZ):           0.59528     0.24563     0.23539
 Zero-point vibrational energy     931028.0 (Joules/Mol)
                                  222.52104 (Kcal/Mol)
 Warning -- explicit consideration of  30 degrees of freedom as
           vibrations may cause significant error
 Vibrational temperatures:     58.72    75.69    82.14   127.38   141.79
          (Kelvin)            146.41   168.34   193.30   199.19   215.12
                              242.07   258.52   269.34   291.09   303.97
                              317.12   345.62   382.12   421.74   437.85
                              469.59   499.37   507.62   585.79   646.46
                              684.03   710.48   726.82   801.48   873.24
                              903.70   935.46   964.22  1013.61  1073.64
                             1096.53  1147.71  1167.03  1184.46  1219.90
                             1309.15  1336.16  1351.18  1354.40  1375.12
                             1396.83  1409.88  1431.54  1500.09  1516.73
                             1534.68  1586.08  1609.30  1632.65  1656.50
                             1696.15  1700.64  1708.73  1710.87  1720.15
                             1741.40  1748.39  1756.23  1774.75  1808.85
                             1817.26  1826.64  1832.46  1843.21  1855.39
                             1879.94  1895.43  1908.45  1910.70  1948.15
                             1969.13  2019.73  2109.57  2129.62  2158.86
                             2167.89  2170.72  2175.83  2179.56  2181.98
                             2185.46  2202.70  2208.84  2217.04  2220.99
                             2223.27  2230.11  2349.70  2377.06  2456.54
                             4374.11  4375.74  4391.03  4393.79  4406.42
                             4409.05  4411.18  4423.75  4469.20  4479.33
                             4489.01  4497.96  4505.37  4515.06  4537.96
                             4547.36  4551.97  4596.03  4631.86  4908.51
                             5049.14  5082.74

 Zero-point correction=                           0.354610 (Hartree/Particle)
 Thermal correction to Energy=                    0.374685
 Thermal correction to Enthalpy=                  0.375629
 Thermal correction to Gibbs Free Energy=         0.306510
 Sum of electronic and zero-point Energies=           -881.506293
 Sum of electronic and thermal Energies=              -881.486218
 Sum of electronic and thermal Enthalpies=            -881.485274
 Sum of electronic and thermal Free Energies=         -881.554393

                     E (Thermal)             CV                S
                      KCal/Mol        Cal/Mol-Kelvin    Cal/Mol-Kelvin
 Total                  235.119             74.806            145.474
 Electronic               0.000              0.000              0.000
 Translational            0.889              2.981             42.636
 Rotational               0.889              2.981             33.501
 Vibrational            233.341             68.845             69.337
 Vibration     1          0.594              1.981              5.219
 Vibration     2          0.596              1.977              4.717
 Vibration     3          0.596              1.975              4.555
 Vibration     4          0.601              1.957              3.692
 Vibration     5          0.604              1.950              3.483
 Vibration     6          0.604              1.948              3.420
 Vibration     7          0.608              1.935              3.149
 Vibration     8          0.613              1.919              2.883
 Vibration     9          0.614              1.915              2.825
 Vibration    10          0.618              1.903              2.678
 Vibration    11          0.625              1.882              2.455
 Vibration    12          0.629              1.867              2.332
 Vibration    13          0.632              1.857              2.255
 Vibration    14          0.639              1.837              2.112
 Vibration    15          0.643              1.824              2.033
 Vibration    16          0.647              1.810              1.956
 Vibration    17          0.657              1.779              1.801
 Vibration    18          0.671              1.736              1.625
 Vibration    19          0.688              1.687              1.456
 Vibration    20          0.695              1.666              1.393
 Vibration    21          0.710              1.623              1.278
 Vibration    22          0.725              1.581              1.179
 Vibration    23          0.729              1.569              1.154
 Vibration    24          0.772              1.455              0.937
 Vibration    25          0.808              1.362              0.798
 Vibration    26          0.832              1.305              0.723
 Vibration    27          0.849              1.264              0.674
 Vibration    28          0.860              1.239              0.645
 Vibration    29          0.913              1.124              0.530
 Vibration    30          0.966              1.017              0.438

                           ! Non-Optimized Parameters !
 Normal termination of Gaussian 16 at Sat Dec 12 10:42:50 2020.

 ----------------------------------------------------------------------
 # B3LYP/6-311++G(d,p) empiricaldispersion=gd3bj scf=xqc pop=npa geom=c
 heck
 ----------------------------------------------------------------------

 ---------------------------------------
 CID_113705169_JID_9408_Energie_neutraal
 ---------------------------------------
 Structure from the checkpoint file:  "JID_9408.chk"
 Charge =  0 Multiplicity = 1

 SCF Done:  E(RB3LYP) =  -882.114705561     A.U. after   14 cycles
 Normal termination of Gaussian 16 at Sat Dec 12 10:52:10 2020.

 ----------------------------------------------------------------------
 # B3LYP/6-311++G(d,p) empiricaldispersion=gd3bj scf=xqc pop=npa geom=c
 heck
 ----------------------------------------------------------------------

 -------------------------------------
 CID_113705169_JID_9408_Energie_kation
 -------------------------------------
 Structure from the checkpoint file:  "JID_9408.chk"
 Charge =  1 Multiplicity = 2

 SCF Done:  E(UB3LYP) =  -881.832730752     A.U. after   29 cycles
 Normal termination of Gaussian 16 at Sat Dec 12 11:19:59 2020.
 Gaussian 16:  ES64L-G16RevA.03 25-Dec-2016

 ----------------------------------------------------------------------
 # B3LYP/6-311++G(d,p) empiricaldispersion=gd3bj scf=xqc pop=npa geom=c
 heck
 ----------------------------------------------------------------------

 ------------------------------------
 CID_113705169_JID_9408_Energie_anion
 ------------------------------------
 Structure from the checkpoint file:  "JID_9408.chk"
 Charge = -1 Multiplicity = 2

                         Standard orientation:
 ---------------------------------------------------------------------
 Center     Atomic      Atomic             Coordinates (Angstroms)
 Number     Number       Type             X           Y           Z
 ---------------------------------------------------------------------
      1          6           0        4.460872   -1.014413   -0.638446
      2          8           0        3.617395   -1.091137    0.515717
      3          6           0        2.271635   -0.989289    0.229646
      4          6           0        1.713743    0.246601   -0.143029
      5          6           0        0.342459    0.327552   -0.446764
      6          6           0       -0.470341   -0.824130   -0.393557
      7          6           0        0.118026   -2.028542   -0.002351
      8          6           0        1.471195   -2.121437    0.315042
      9          6           0       -1.958271   -0.801573   -0.703546
     10          6           0       -2.818597   -0.300089    0.472607
     11          6           0       -2.834955   -1.101499    1.802259
     12          6           0       -3.051671    0.240331    2.548871
     13          6           0       -2.474745    0.964244    1.305884
     14          7           0       -2.208671   -0.133666   -1.991420
     15          7           0       -3.587587   -0.256321   -2.361151
     16          8           0       -0.255132    1.491937   -0.865150
     17          6           0        0.095591    2.740686   -0.271309
     18          8           0        2.510477    1.363040   -0.285745
     19          6           0        3.125977    1.832451    0.919982
     20          1           0        5.484996   -1.126970   -0.275822
     21          1           0        4.349234   -0.051472   -1.147379
     22          1           0        4.228231   -1.826625   -1.338553
     23          1           0       -0.503674   -2.917737    0.044812
     24          1           0        1.926385   -3.062002    0.606681
     25          1           0       -2.265841   -1.841618   -0.865868
     26          1           0       -3.848319   -0.226274    0.103910
     27          1           0       -3.587825   -1.888403    1.914548
     28          1           0       -1.846795   -1.520112    2.022490
     29          1           0       -2.537938    0.382745    3.504952
     30          1           0       -4.116665    0.455554    2.686963
     31          1           0       -1.393564    1.084529    1.408320
     32          1           0       -2.911729    1.922458    1.004892
     33          1           0       -1.919292    0.838871   -1.919699
     34          1           0       -4.126194    0.564267   -2.075813
     35          1           0       -3.617493   -0.291463   -3.377434
     36          1           0       -0.761486    3.397440   -0.440651
     37          1           0        0.252143    2.634847    0.808082
     38          1           0        0.990180    3.163145   -0.731253
     39          1           0        2.363987    2.129626    1.651974
     40          1           0        3.771456    1.067004    1.356804
     41          1           0        3.716594    2.706029    0.635743
 ---------------------------------------------------------------------

 SCF Done:  E(UB3LYP) =  -882.102631285     A.U. after   32 cycles

 The electronic state is 2-A.
 Alpha  occ. eigenvalues --  -19.05754 -19.05566 -19.05545 -14.22423 -14.21771
 Alpha  occ. eigenvalues --  -10.14701 -10.14134 -10.13971 -10.12989 -10.12205
 Alpha  occ. eigenvalues --  -10.12021 -10.10477 -10.08935 -10.08657 -10.08320
 Alpha  occ. eigenvalues --  -10.07420 -10.07330 -10.07252 -10.06634  -0.98511
 Alpha  occ. eigenvalues --   -0.97026  -0.95492  -0.86253  -0.77073  -0.75191
 Alpha  occ. eigenvalues --   -0.70368  -0.67024  -0.65849  -0.62189  -0.60554
 Alpha  occ. eigenvalues --   -0.58902  -0.57884  -0.56249  -0.52549  -0.51245
 Alpha  occ. eigenvalues --   -0.49790  -0.45677  -0.44081  -0.43350  -0.42265
 Alpha  occ. eigenvalues --   -0.40761  -0.39802  -0.39133  -0.38891  -0.38086
 Alpha  occ. eigenvalues --   -0.37605  -0.37117  -0.36199  -0.35938  -0.35254
 Alpha  occ. eigenvalues --   -0.34173  -0.33671  -0.31717  -0.30998  -0.29398
 Alpha  occ. eigenvalues --   -0.28981  -0.28282  -0.27393  -0.27138  -0.25556
 Alpha  occ. eigenvalues --   -0.24919  -0.24195  -0.23366  -0.22155  -0.21661
 Alpha  occ. eigenvalues --   -0.21310  -0.20996  -0.17996  -0.16470  -0.14644
 Alpha  occ. eigenvalues --   -0.13936  -0.13136   0.04069
 Alpha virt. eigenvalues --    0.05501   0.06602   0.06982   0.07726   0.07841
 Alpha virt. eigenvalues --    0.08121   0.08201   0.08689   0.08946   0.09796
 Alpha virt. eigenvalues --    0.10035   0.10433   0.10570   0.10919   0.11247

  Beta  occ. eigenvalues --  -19.05751 -19.05563 -19.05546 -14.22393 -14.21762
  Beta  occ. eigenvalues --  -10.14706 -10.14133 -10.13956 -10.12959 -10.12162
  Beta  occ. eigenvalues --  -10.11980 -10.10478 -10.08916 -10.08659 -10.08311
  Beta  occ. eigenvalues --  -10.07414 -10.07321 -10.07249 -10.06614  -0.98502
  Beta  occ. eigenvalues --   -0.97017  -0.95484  -0.86223  -0.77052  -0.75175
  Beta  occ. eigenvalues --   -0.70330  -0.67002  -0.65808  -0.62138  -0.60510
  Beta  occ. eigenvalues --   -0.58846  -0.57853  -0.56219  -0.52523  -0.51221
  Beta  occ. eigenvalues --   -0.49765  -0.45649  -0.44053  -0.43325  -0.42233
  Beta  occ. eigenvalues --   -0.40724  -0.39775  -0.39100  -0.38867  -0.38054
  Beta  occ. eigenvalues --   -0.37573  -0.37087  -0.36173  -0.35915  -0.35222
  Beta  occ. eigenvalues --   -0.34136  -0.33640  -0.31699  -0.30976  -0.29379
  Beta  occ. eigenvalues --   -0.28963  -0.28249  -0.27365  -0.27117  -0.25527
  Beta  occ. eigenvalues --   -0.24906  -0.24173  -0.23345  -0.22131  -0.21641
  Beta  occ. eigenvalues --   -0.21292  -0.20975  -0.17985  -0.16437  -0.14596
  Beta  occ. eigenvalues --   -0.13893  -0.13113
  Beta virt. eigenvalues --    0.06115   0.06347   0.07145   0.07180   0.07854
  Beta virt. eigenvalues --    0.08102   0.08314   0.08715   0.08856   0.09200
  Beta virt. eigenvalues --    0.10135   0.10300   0.10668   0.10843   0.11026

 Mulliken charges and spin densities:
               1          2
     1  C    0.304657  -0.579149
     2  O   -0.169053   0.038668
     3  C    0.446199  -1.214873
     4  C   -0.909699   0.934999
     5  C   -0.520481   0.518709
     6  C    0.941044  -0.453251
     7  C   -0.698665   0.360827
     8  C    0.005325  -0.204589
     9  C    0.186105  -0.210913
    10  C   -0.190028   0.195908
    11  C   -0.466542  -0.090059
    12  C   -0.102928  -0.289265
    13  C   -0.275264  -0.012473
    14  N   -0.162513   0.024359
    15  N   -0.256845  -0.100262
    16  O   -0.129738   0.012631
    17  C    0.544113  -0.793405
    18  O   -0.210084   0.042262
    19  C    0.922467  -1.167559
    20  H   -0.204794   0.366883
    21  H    0.040038   0.146401
    22  H   -0.026558   0.145266
    23  H    0.098930   0.045562
    24  H    0.088948   0.098579
    25  H    0.186229   0.014934
    26  H    0.262279  -0.060915
    27  H    0.081418   0.057127
    28  H    0.141368  -0.015383
    29  H   -0.089482   0.252204
    30  H   -0.051306   0.173714
    31  H    0.808719  -0.743682
    32  H   -0.336346   0.535570
    33  H    0.309354  -0.031070
    34  H   -0.087687   0.315139
    35  H    0.141883   0.124084
    36  H   -0.736940   0.906373
    37  H   -0.162924   0.275801
    38  H   -0.014031   0.191922
    39  H   -0.395569   0.518823
    40  H    0.047313   0.142623
    41  H   -0.358913   0.527479
 Sum of Mulliken charges =  -1.00000   1.00000

 Dipole moment (field-independent basis, Debye):
    X=             -0.3330    Y=             -5.9043    Z=              0.0243  Tot=              5.9138
 Quadrupole moment (field-independent basis, Debye-Ang):
   XX=           -200.5685   YY=           -165.2574   ZZ=           -153.6003
   XY=              1.5429   XZ=             -6.9479   YZ=             -3.0826

 Summary of Natural Population Analysis:

                                       Natural Population
                Natural  -----------------------------------------------
    Atom  No    Charge         Core      Valence    Rydberg      Total
 -----------------------------------------------------------------------
      C    1   -0.09936      0.99959     2.09094    0.00883     3.09936
      O    2   -0.29300      0.99987     3.28275    0.01039     4.29300
      C    3    0.13764      0.99933     1.84946    0.01357     2.86236
      C    4    0.11165      0.99929     1.87626    0.01280     2.88835
      C    5    0.15100      0.99929     1.83684    0.01287     2.84900
      C    6   -0.02679      0.99945     2.01562    0.01172     3.02679
      C    7   -0.09513      0.99953     2.08794    0.00767     3.09513
      C    8   -0.12298      0.99951     2.11453    0.00893     3.12298
      C    9   -0.01426      0.99953     1.99908    0.01566     3.01426
      C   10   -0.11283      0.99958     2.10131    0.01194     3.11283
      C   11   -0.18777      0.99963     2.18145    0.00669     3.18777
      C   12   -0.18798      0.99965     2.18044    0.00789     3.18798
      C   13   -0.18903      0.99962     2.17972    0.00970     3.18903
      N   14   -0.25822      0.99972     2.74375    0.01474     3.75822
      N   15   -0.33532      0.99977     2.82368    0.01187     3.83532
      O   16   -0.28801      0.99986     3.27749    0.01066     4.28801
      C   17   -0.09715      0.99958     2.08795    0.00963     3.09715
      O   18   -0.28983      0.99987     3.27993    0.01003     4.28983
      C   19   -0.10057      0.99958     2.09213    0.00885     3.10057
      H   20    0.09062      0.00000     0.40807    0.00131     0.40938
      H   21    0.09080      0.00000     0.40778    0.00142     0.40920
      H   22    0.08156      0.00000     0.41738    0.00107     0.41844
      H   23    0.10001      0.00000     0.39906    0.00093     0.39999
      H   24    0.10507      0.00000     0.39392    0.00101     0.39493
      H   25    0.09870      0.00000     0.39939    0.00191     0.40130
      H   26    0.10228      0.00000     0.39608    0.00164     0.39772
      H   27    0.09255      0.00000     0.40660    0.00085     0.40745
      H   28    0.09796      0.00000     0.40063    0.00141     0.40204
      H   29    0.09407      0.00000     0.40508    0.00085     0.40593
      H   30    0.09341      0.00000     0.40546    0.00113     0.40659
      H   31    0.09686      0.00000     0.40088    0.00226     0.40314
      H   32    0.09898      0.00000     0.39923    0.00179     0.40102
      H   33    0.17721      0.00000     0.31849    0.00430     0.32279
      H   34    0.16693      0.00000     0.33089    0.00218     0.33307
      H   35    0.17313      0.00000     0.32533    0.00154     0.32687
      H   36    0.09267      0.00000     0.40547    0.00187     0.40733
      H   37    0.08382      0.00000     0.41430    0.00188     0.41618
      H   38    0.09272      0.00000     0.40578    0.00150     0.40728
      H   39    0.08340      0.00000     0.41504    0.00157     0.41660
      H   40    0.09286      0.00000     0.40540    0.00174     0.40714
      H   41    0.09236      0.00000     0.40607    0.00157     0.40764
 =======================================================================
   * Total *    0.00000     18.99223    52.76761    0.24015    72.00000

 Normal termination of Gaussian 16 at Sat Dec 12 11:50:15 2020.
