 Gaussian 16, Revision A.03,

 -----------------------------------------------------------
 # opt freq B3LYP/6-31G(d) empiricaldispersion=gd3bj scf=xqc
 -----------------------------------------------------------

 -------------------------------
 CID_57785230_JID_10292_neutraal
 -------------------------------
 Symbolic Z-matrix:
 Charge =  0 Multiplicity = 1

 SCF Done:  E(RB3LYP) =  -892.929204219     A.U. after   16 cycles
 SCF Done:  E(RB3LYP) =  -892.936674989     A.U. after   14 cycles
 SCF Done:  E(RB3LYP) =  -892.938524708     A.U. after   15 cycles
 SCF Done:  E(RB3LYP) =  -892.939259911     A.U. after   13 cycles
 SCF Done:  E(RB3LYP) =  -892.939645683     A.U. after   13 cycles
 SCF Done:  E(RB3LYP) =  -892.939807960     A.U. after   12 cycles
 SCF Done:  E(RB3LYP) =  -892.940123551     A.U. after   12 cycles
 SCF Done:  E(RB3LYP) =  -892.940519841     A.U. after   15 cycles
 SCF Done:  E(RB3LYP) =  -892.940539601     A.U. after   11 cycles
 SCF Done:  E(RB3LYP) =  -892.940704529     A.U. after   12 cycles
 SCF Done:  E(RB3LYP) =  -892.940887666     A.U. after   12 cycles
 SCF Done:  E(RB3LYP) =  -892.940890950     A.U. after    9 cycles
 SCF Done:  E(RB3LYP) =  -892.940890716     A.U. after    8 cycles
 SCF Done:  E(RB3LYP) =  -892.940891077     A.U. after    8 cycles
 SCF Done:  E(RB3LYP) =  -892.940891074     A.U. after    7 cycles
 SCF Done:  E(RB3LYP) =  -892.940891092     A.U. after    7 cycles
 Optimization completed.
    -- Stationary point found.
 Normal termination of Gaussian 16 at Mon Dec 14 17:52:37 2020.

 --------------------------------------------------------------------
 #N Geom=AllCheck Guess=TCheck SCRF=Check GenChk RB3LYP/6-31G(d) Freq
 --------------------------------------------------------------------

 Structure from the checkpoint file:  "JID_10292.chk"
 -------------------------------
 CID_57785230_JID_10292_neutraal
 -------------------------------
 Charge =  0 Multiplicity = 1

 SCF Done:  E(RB3LYP) =  -892.940891092     A.U. after    1 cycles

  Exact polarizability: 313.203  -4.049 192.646  -0.862   7.921  75.542
 Approx polarizability: 475.395   7.555 322.805  -2.773  17.950 119.855

                      1                      2                      3
                      A                      A                      A
 Frequencies --     32.6532                44.2305                71.1793
 Red. masses --      3.9523                 7.9277                 6.2117
 Frc consts  --      0.0025                 0.0091                 0.0185
 IR Inten    --      0.3066                 3.1007                 3.0580

                      4                      5                      6
                      A                      A                      A
 Frequencies --     79.6305               110.8258               139.5597
 Red. masses --      3.4132                 4.5789                 1.2649
 Frc consts  --      0.0128                 0.0331                 0.0145
 IR Inten    --      3.6144                 1.1786                 0.4399

                      7                      8                      9
                      A                      A                      A
 Frequencies --    152.2638               155.2855               156.9705
 Red. masses --      4.1108                 2.9503                 3.8841
 Frc consts  --      0.0562                 0.0419                 0.0564
 IR Inten    --      2.0216                 0.7124                 4.0840

                     10                     11                     12
                      A                      A                      A
 Frequencies --    180.6174               210.2296               242.7177
 Red. masses --      1.4409                 3.4877                 4.3177
 Frc consts  --      0.0277                 0.0908                 0.1499
 IR Inten    --      1.5971                 2.8907                 3.3774

                     13                     14                     15
                      A                      A                      A
 Frequencies --    256.0029               273.3637               317.1292
 Red. masses --      7.2727                 5.2799                 5.7653
 Frc consts  --      0.2808                 0.2325                 0.3416
 IR Inten    --      2.0218                 1.8650                 3.1652

                     16                     17                     18
                      A                      A                      A
 Frequencies --    346.8567               372.4606               412.0909
 Red. masses --      4.6724                 5.0458                 3.0369
 Frc consts  --      0.3312                 0.4124                 0.3039
 IR Inten    --      2.7279                 0.8425                 0.0117

                     19                     20                     21
                      A                      A                      A
 Frequencies --    418.1808               471.9359               497.2095
 Red. masses --      4.9146                 5.7229                 9.5328
 Frc consts  --      0.5064                 0.7510                 1.3885
 IR Inten    --      1.4300                 0.4000                 4.2024

                     22                     23                     24
                      A                      A                      A
 Frequencies --    527.6072               562.5220               567.7007
 Red. masses --      5.6515                 6.9431                 5.6567
 Frc consts  --      0.9269                 1.2944                 1.0741
 IR Inten    --     10.4520                 1.7366                10.4862

                     25                     26                     27
                      A                      A                      A
 Frequencies --    572.3287               593.8645               658.9326
 Red. masses --      4.2425                11.5789                 5.3010
 Frc consts  --      0.8188                 2.4060                 1.3561
 IR Inten    --      8.3147                 2.0737                 1.4211

                     28                     29                     30
                      A                      A                      A
 Frequencies --    662.9904               674.0737               687.4498
 Red. masses --      6.9905                 4.9975                 5.3996
 Frc consts  --      1.8104                 1.3379                 1.5035
 IR Inten    --      4.2189                20.4683                 6.6896

                     31                     32                     33
                      A                      A                      A
 Frequencies --    749.7068               759.1714               765.2526
 Red. masses --      4.8415                 5.8086                 5.8590
 Frc consts  --      1.6033                 1.9724                 2.0215
 IR Inten    --      0.3883                 1.0552                 4.4984

                     34                     35                     36
                      A                      A                      A
 Frequencies --    770.4262               826.8110               850.2630
 Red. masses --      6.3054                 6.4256                 1.3620
 Frc consts  --      2.2051                 2.5881                 0.5801
 IR Inten    --     10.4693                11.7682                23.0362

                     37                     38                     39
                      A                      A                      A
 Frequencies --    854.1201               877.3199               914.0594
 Red. masses --      1.3714                 1.7011                 8.5764
 Frc consts  --      0.5894                 0.7714                 4.2219
 IR Inten    --     22.7812                 6.3048                18.9412

                     40                     41                     42
                      A                      A                      A
 Frequencies --    923.6327               968.2007               982.4286
 Red. masses --      9.1901                 1.3320                 6.2109
 Frc consts  --      4.6192                 0.7357                 3.5319
 IR Inten    --     13.5972                 0.1096                10.8320

                     43                     44                     45
                      A                      A                      A
 Frequencies --    990.4618              1040.4189              1042.0761
 Red. masses --      1.3437                 2.4850                 1.8667
 Frc consts  --      0.7767                 1.5849                 1.1943
 IR Inten    --      0.0890                 2.8919                11.5948

                     46                     47                     48
                      A                      A                      A
 Frequencies --   1077.7934              1084.0328              1105.0307
 Red. masses --      1.4967                 6.4519                 2.5999
 Frc consts  --      1.0244                 4.4671                 1.8705
 IR Inten    --      1.5854                61.9016                 9.6522

                     49                     50                     51
                      A                      A                      A
 Frequencies --   1150.4259              1185.0795              1213.8092
 Red. masses --      1.3767                 1.2655                 1.4264
 Frc consts  --      1.0735                 1.0471                 1.2382
 IR Inten    --      3.3933                 0.7514                11.0170

                     52                     53                     54
                      A                      A                      A
 Frequencies --   1216.0937              1239.4578              1249.4256
 Red. masses --      1.4879                 2.7523                 2.6205
 Frc consts  --      1.2965                 2.4912                 2.4102
 IR Inten    --      5.2057                 2.0882                88.7324

                     55                     56                     57
                      A                      A                      A
 Frequencies --   1279.4916              1321.3256              1338.0454
 Red. masses --      3.5614                 4.7169                 2.3530
 Frc consts  --      3.4351                 4.8520                 2.4820
 IR Inten    --     55.3899                14.6339                46.6785

                     58                     59                     60
                      A                      A                      A
 Frequencies --   1344.6479              1370.0896              1428.2092
 Red. masses --      2.8465                 4.1531                 2.1752
 Frc consts  --      3.0324                 4.5932                 2.6142
 IR Inten    --      2.2800                58.2978                44.1841

                     61                     62                     63
                      A                      A                      A
 Frequencies --   1448.8711              1454.9912              1462.4035
 Red. masses --      1.8482                 2.8130                 3.2646
 Frc consts  --      2.2859                 3.5086                 4.1136
 IR Inten    --    124.4954                59.0754                22.5517

                     64                     65                     66
                      A                      A                      A
 Frequencies --   1477.6786              1504.4723              1508.4929
 Red. masses --      3.0426                 1.2894                 1.0431
 Frc consts  --      3.9143                 1.7195                 1.3985
 IR Inten    --     96.3787                13.2714                 9.2720

                     67                     68                     69
                      A                      A                      A
 Frequencies --   1510.3661              1522.8329              1525.6696
 Red. masses --      1.0497                 2.1730                 1.0557
 Frc consts  --      1.4109                 2.9691                 1.4478
 IR Inten    --      7.6566                61.7697                33.8609

                     70                     71                     72
                      A                      A                      A
 Frequencies --   1560.0985              1588.9827              1610.8567
 Red. masses --      2.6044                 4.8074                 6.4167
 Frc consts  --      3.7347                 7.1516                 9.8101
 IR Inten    --      7.0648               130.5815                 7.1622

                     73                     74                     75
                      A                      A                      A
 Frequencies --   1642.9892              1661.1184              1670.3175
 Red. masses --      8.5555                 8.0699                 5.8676
 Frc consts  --     13.6070                13.1196                 9.6451
 IR Inten    --     38.9599               100.2430                41.1192

                     76                     77                     78
                      A                      A                      A
 Frequencies --   2348.7209              3058.2238              3069.1443
 Red. masses --     12.6794                 1.0376                 1.0304
 Frc consts  --     41.2107                 5.7176                 5.7185
 IR Inten    --     58.4413                11.3355                33.5566

                     79                     80                     81
                      A                      A                      A
 Frequencies --   3113.7753              3140.8580              3160.2873
 Red. masses --      1.1015                 1.1071                 1.1009
 Frc consts  --      6.2923                 6.4348                 6.4781
 IR Inten    --     10.1004                22.9280                 5.5788

                     82                     83                     84
                      A                      A                      A
 Frequencies --   3183.1564              3208.0186              3216.4286
 Red. masses --      1.1061                 1.0877                 1.0902
 Frc consts  --      6.6035                 6.5956                 6.6452
 IR Inten    --     23.2342                 7.9389                 3.8401

                     85                     86                     87
                      A                      A                      A
 Frequencies --   3224.3965              3238.4655              3241.9094
 Red. masses --      1.0949                 1.0907                 1.0926
 Frc consts  --      6.7066                 6.7397                 6.7657
 IR Inten    --      4.8349                 4.3491                 1.4712

 - Thermochemistry -
 -------------------
 Temperature   298.150 Kelvin.  Pressure   1.00000 Atm.
 Atom     1 has atomic number  6 and mass  12.00000

 Molecular mass:   265.08513 amu.
 Principal axes and moments of inertia in atomic units:
                           1         2         3
     Eigenvalues --  2614.49610********************
           X            0.99995  -0.01010   0.00039
           Y            0.01009   0.99995   0.00200
           Z           -0.00041  -0.00200   1.00000
 This molecule is an asymmetric top.
 Rotational symmetry number  1.
 Warning -- assumption of classical behavior for rotation
           may cause significant error
 Rotational temperatures (Kelvin)      0.03313     0.00821     0.00662
 Rotational constants (GHZ):           0.69028     0.17105     0.13797
 Zero-point vibrational energy     614400.2 (Joules/Mol)
                                  146.84518 (Kcal/Mol)
 Warning -- explicit consideration of  26 degrees of freedom as
           vibrations may cause significant error
 Vibrational temperatures:     46.98    63.64   102.41   114.57   159.45
          (Kelvin)            200.80   219.07   223.42   225.85   259.87
                              302.47   349.22   368.33   393.31   456.28
                              499.05   535.89   592.91   601.67   679.01
                              715.37   759.11   809.34   816.79   823.45
                              854.44   948.06   953.90   969.84   989.09
                             1078.66  1092.28  1101.03  1108.47  1189.60
                             1223.34  1228.89  1262.27  1315.13  1328.90
                             1393.02  1413.50  1425.05  1496.93  1499.32
                             1550.70  1559.68  1589.89  1655.21  1705.07
                             1746.40  1749.69  1783.30  1797.64  1840.90
                             1901.09  1925.15  1934.65  1971.25  2054.87
                             2084.60  2093.41  2104.07  2126.05  2164.60
                             2170.38  2173.08  2191.02  2195.10  2244.63
                             2286.19  2317.66  2363.89  2389.98  2403.21
                             3379.29  4400.10  4415.81  4480.03  4518.99
                             4546.95  4579.85  4615.62  4627.72  4639.19
                             4659.43  4664.38

 Zero-point correction=                           0.234013 (Hartree/Particle)
 Thermal correction to Energy=                    0.250743
 Thermal correction to Enthalpy=                  0.251688
 Thermal correction to Gibbs Free Energy=         0.188612
 Sum of electronic and zero-point Energies=           -892.706878
 Sum of electronic and thermal Energies=              -892.690148
 Sum of electronic and thermal Enthalpies=            -892.689203
 Sum of electronic and thermal Free Energies=         -892.752279

                     E (Thermal)             CV                S
                      KCal/Mol        Cal/Mol-Kelvin    Cal/Mol-Kelvin
 Total                  157.344             63.415            132.754
 Electronic               0.000              0.000              0.000
 Translational            0.889              2.981             42.624
 Rotational               0.889              2.981             34.244
 Vibrational            155.566             57.453             55.886
 Vibration     1          0.594              1.983              5.661
 Vibration     2          0.595              1.980              5.060
 Vibration     3          0.598              1.968              4.120
 Vibration     4          0.600              1.963              3.900
 Vibration     5          0.607              1.941              3.254
 Vibration     6          0.615              1.914              2.810
 Vibration     7          0.619              1.900              2.644
 Vibration     8          0.620              1.897              2.606
 Vibration     9          0.621              1.895              2.586
 Vibration    10          0.630              1.866              2.322
 Vibration    11          0.642              1.825              2.042
 Vibration    12          0.659              1.775              1.783
 Vibration    13          0.666              1.753              1.689
 Vibration    14          0.676              1.722              1.575
 Vibration    15          0.704              1.641              1.325
 Vibration    16          0.725              1.582              1.180
 Vibration    17          0.744              1.529              1.070
 Vibration    18          0.776              1.444              0.919
 Vibration    19          0.781              1.431              0.898
 Vibration    20          0.829              1.312              0.732
 Vibration    21          0.853              1.256              0.665
 Vibration    22          0.883              1.189              0.593
 Vibration    23          0.918              1.112              0.519
 Vibration    24          0.924              1.101              0.509
 Vibration    25          0.929              1.091              0.500
 Vibration    26          0.951              1.045              0.460

 Optimization completed.
    -- Stationary point found.
 Normal termination of Gaussian 16 at Mon Dec 14 18:07:45 2020.

 ----------------------------------------------------------------------
 # B3LYP/6-311++G(d,p) empiricaldispersion=gd3bj scf=xqc pop=npa geom=c
 heck
 ----------------------------------------------------------------------

 ---------------------------------------
 CID_57785230_JID_10292_Energie_neutraal
 ---------------------------------------
 Structure from the checkpoint file:  "JID_10292.chk"
 Charge =  0 Multiplicity = 1

 SCF Done:  E(RB3LYP) =  -893.169047986     A.U. after   16 cycles
 Normal termination of Gaussian 16 at Mon Dec 14 18:14:24 2020.

 ----------------------------------------------------------------------
 # B3LYP/6-311++G(d,p) empiricaldispersion=gd3bj scf=xqc pop=npa geom=c
 heck
 ----------------------------------------------------------------------

 -------------------------------------
 CID_57785230_JID_10292_Energie_kation
 -------------------------------------
 Structure from the checkpoint file:  "JID_10292.chk"
 Charge =  1 Multiplicity = 2

 SCF Done:  E(UB3LYP) =  -892.869771275     A.U. after   24 cycles
 Normal termination of Gaussian 16 at Mon Dec 14 18:28:25 2020.
 Gaussian 16:  ES64L-G16RevA.03 25-Dec-2016

 ----------------------------------------------------------------------
 # B3LYP/6-311++G(d,p) empiricaldispersion=gd3bj scf=xqc pop=npa geom=c
 heck
 ----------------------------------------------------------------------

 ------------------------------------
 CID_57785230_JID_10292_Energie_anion
 ------------------------------------
 Structure from the checkpoint file:  "JID_10292.chk"
 Charge = -1 Multiplicity = 2

                         Standard orientation:
 ---------------------------------------------------------------------
 Center     Atomic      Atomic             Coordinates (Angstroms)
 Number     Number       Type             X           Y           Z
 ---------------------------------------------------------------------
      1          6           0        3.542940   -3.238854    0.150586
      2          6           0        3.427085   -1.751590    0.081370
      3          7           0        4.496109   -0.995575    0.051230
      4          8           0        4.067555    0.348476   -0.011755
      5          6           0        2.717232    0.345176   -0.018175
      6          6           0        1.820769    1.434381   -0.058207
      7          7           0        0.523975    1.212987   -0.055365
      8          6           0        0.022757   -0.056180   -0.015938
      9          6           0        0.842025   -1.179359    0.042897
     10          6           0        2.227913   -0.951732    0.036912
     11          6           0       -1.456135   -0.157708   -0.017882
     12          6           0       -2.232719    0.959668    0.330797
     13          6           0       -3.618415    0.888900    0.351915
     14          6           0       -4.265664   -0.310979    0.014616
     15          6           0       -3.501034   -1.430976   -0.348997
     16          6           0       -2.115362   -1.348348   -0.365930
     17          6           0       -5.694607   -0.390834    0.033801
     18          7           0       -6.856042   -0.456348    0.050128
     19          8           0        2.325646    2.676053   -0.100124
     20          6           0        1.378913    3.750907   -0.137665
     21          1           0        3.060403   -3.705112   -0.715914
     22          1           0        3.051256   -3.623413    1.051383
     23          1           0        4.594038   -3.534600    0.169680
     24          1           0        0.435248   -2.180170    0.115641
     25          1           0       -1.726144    1.882593    0.585472
     26          1           0       -4.209289    1.755385    0.629580
     27          1           0       -4.000056   -2.353702   -0.625171
     28          1           0       -1.544353   -2.215816   -0.678892
     29          1           0        0.727403    3.663463   -1.011505
     30          1           0        0.762621    3.754867    0.766216
     31          1           0        1.980790    4.657979   -0.194012
 ---------------------------------------------------------------------

 SCF Done:  E(UB3LYP) =  -893.201090508     A.U. after   32 cycles

 The electronic state is 2-A.
 Alpha  occ. eigenvalues --  -19.10138 -19.06759 -14.27197 -14.19397 -14.16895
 Alpha  occ. eigenvalues --  -10.16721 -10.13481 -10.12947 -10.12053 -10.10318
 Alpha  occ. eigenvalues --  -10.08944 -10.08697 -10.07139 -10.06280 -10.06050
 Alpha  occ. eigenvalues --  -10.05469 -10.05175 -10.04729 -10.04316 -10.04174
 Alpha  occ. eigenvalues --   -1.03782  -0.99054  -0.83244  -0.79067  -0.77263
 Alpha  occ. eigenvalues --   -0.73506  -0.71172  -0.67776  -0.65018  -0.63994
 Alpha  occ. eigenvalues --   -0.62584  -0.61017  -0.54897  -0.53809  -0.49664
 Alpha  occ. eigenvalues --   -0.49051  -0.48004  -0.44028  -0.43019  -0.42172
 Alpha  occ. eigenvalues --   -0.39249  -0.39229  -0.37503  -0.37322  -0.35622
 Alpha  occ. eigenvalues --   -0.34217  -0.34163  -0.32847  -0.32618  -0.30637
 Alpha  occ. eigenvalues --   -0.30341  -0.30235  -0.29601  -0.27456  -0.26889
 Alpha  occ. eigenvalues --   -0.26838  -0.24718  -0.24545  -0.23131  -0.22835
 Alpha  occ. eigenvalues --   -0.21829  -0.21534  -0.20297  -0.19872  -0.17790
 Alpha  occ. eigenvalues --   -0.16471  -0.14858  -0.13852  -0.10692   0.02122
 Alpha virt. eigenvalues --    0.05127   0.06422   0.07200   0.08958   0.09728
 Alpha virt. eigenvalues --    0.10024   0.10417   0.10549   0.10929   0.11358
 Alpha virt. eigenvalues --    0.11626   0.11732   0.12677   0.12975   0.13394

  Beta  occ. eigenvalues --  -19.10064 -19.06777 -14.27240 -14.19220 -14.16650
  Beta  occ. eigenvalues --  -10.16785 -10.13480 -10.12931 -10.11825 -10.10318
  Beta  occ. eigenvalues --  -10.08800 -10.08734 -10.07167 -10.06143 -10.05750
  Beta  occ. eigenvalues --  -10.05443 -10.05125 -10.04672 -10.04138 -10.04021
  Beta  occ. eigenvalues --   -1.03664  -0.99081  -0.82942  -0.79043  -0.76893
  Beta  occ. eigenvalues --   -0.73127  -0.70942  -0.67441  -0.64935  -0.63741
  Beta  occ. eigenvalues --   -0.62291  -0.60721  -0.54509  -0.53653  -0.49381
  Beta  occ. eigenvalues --   -0.48860  -0.47906  -0.43934  -0.42941  -0.41985
  Beta  occ. eigenvalues --   -0.39089  -0.39076  -0.37420  -0.37229  -0.35401
  Beta  occ. eigenvalues --   -0.34086  -0.34044  -0.32734  -0.32452  -0.30525
  Beta  occ. eigenvalues --   -0.30279  -0.30139  -0.29194  -0.27366  -0.26789
  Beta  occ. eigenvalues --   -0.25914  -0.24450  -0.23944  -0.22931  -0.22596
  Beta  occ. eigenvalues --   -0.21781  -0.20756  -0.19991  -0.19738  -0.17046
  Beta  occ. eigenvalues --   -0.16224  -0.13638  -0.13004  -0.09368
  Beta virt. eigenvalues --    0.05401   0.06379   0.07175   0.07222   0.08920
  Beta virt. eigenvalues --    0.09711   0.10174   0.10497   0.10551   0.11043
  Beta virt. eigenvalues --    0.11353   0.11651   0.12649   0.12917   0.13051

 Mulliken charges and spin densities:
               1          2
     1  C   -0.379241  -0.008738
     2  C    0.618704   0.014176
     3  N   -0.367594  -0.019408
     4  O    0.110313   0.013909
     5  C   -0.755263   0.144288
     6  C   -0.175217  -0.038947
     7  N    0.055075   0.082632
     8  C   -0.425722   0.059973
     9  C   -0.843351   0.103051
    10  C    0.628421  -0.027807
    11  C    1.266918   0.134293
    12  C   -0.017480   0.087510
    13  C   -0.686161   0.069736
    14  C    2.161029   0.216639
    15  C   -0.673467   0.048509
    16  C   -0.567562   0.082291
    17  C   -1.787127  -0.087813
    18  N   -0.296626   0.130851
    19  O   -0.160574  -0.002922
    20  C   -0.257022  -0.001440
    21  H    0.151957   0.004817
    22  H    0.150393   0.006073
    23  H    0.168760   0.000023
    24  H    0.097229  -0.005434
    25  H    0.126195  -0.002804
    26  H    0.154253  -0.003044
    27  H    0.148840  -0.001715
    28  H    0.076560  -0.000318
    29  H    0.174065   0.001471
    30  H    0.164725   0.000354
    31  H    0.138970  -0.000208
 Sum of Mulliken charges =  -1.00000   1.00000

 Dipole moment (field-independent basis, Debye):
    X=              9.4912    Y=              0.0592    Z=             -0.0198  Tot=              9.4914
 Quadrupole moment (field-independent basis, Debye-Ang):
   XX=           -255.9082   YY=           -111.4173   ZZ=           -122.9182
   XY=            -10.6514   XZ=              0.7641   YZ=              1.1693

 Summary of Natural Population Analysis:

                                       Natural Population
                Natural  -----------------------------------------------
    Atom  No    Charge         Core      Valence    Rydberg      Total
 -----------------------------------------------------------------------
      C    1   -0.29980      0.99963     2.29595    0.00422     3.29980
      C    2    0.09327      0.99958     1.89422    0.01293     2.90673
      N    3   -0.08908      0.99966     2.57652    0.01290     3.58908
      O    4   -0.16045      0.99986     3.14981    0.01078     4.16045
      C    5    0.16539      0.99926     1.82217    0.01318     2.83461
      C    6    0.24237      0.99944     1.74337    0.01482     2.75763
      N    7   -0.23324      0.99963     2.72365    0.00996     3.73324
      C    8    0.12469      0.99942     1.86334    0.01255     2.87531
      C    9   -0.08835      0.99946     2.08154    0.00735     3.08835
      C   10   -0.07326      0.99948     2.06534    0.00843     3.07326
      C   11    0.01596      0.99950     1.97493    0.00961     2.98404
      C   12   -0.08325      0.99954     2.07533    0.00837     3.08325
      C   13   -0.07289      0.99955     2.06556    0.00779     3.07289
      C   14   -0.05327      0.99942     2.04319    0.01066     3.05327
      C   15   -0.07792      0.99955     2.07044    0.00793     3.07792
      C   16   -0.08742      0.99954     2.08010    0.00779     3.08742
      C   17    0.14687      0.99964     1.83510    0.01839     2.85313
      N   18   -0.17281      0.99979     2.66177    0.01126     3.67281
      O   19   -0.27230      0.99985     3.26351    0.00894     4.27230
      C   20   -0.10318      0.99961     2.09534    0.00823     3.10318
      H   21    0.10657      0.00000     0.39242    0.00101     0.39343
      H   22    0.10672      0.00000     0.39228    0.00100     0.39328
      H   23    0.10822      0.00000     0.39069    0.00109     0.39178
      H   24    0.10101      0.00000     0.39745    0.00154     0.39899
      H   25    0.10377      0.00000     0.39520    0.00104     0.39623
      H   26    0.09621      0.00000     0.40290    0.00088     0.40379
      H   27    0.09663      0.00000     0.40247    0.00090     0.40337
      H   28    0.09291      0.00000     0.40568    0.00141     0.40709
      H   29    0.09196      0.00000     0.40694    0.00110     0.40804
      H   30    0.08962      0.00000     0.40927    0.00110     0.41038
      H   31    0.08511      0.00000     0.41409    0.00080     0.41489
 =======================================================================
   * Total *    0.00008     19.99138    48.79057    0.21797    68.99992

 Normal termination of Gaussian 16 at Mon Dec 14 18:47:11 2020.
