 Gaussian 16, Revision A.03,

 -----------------------------------------------------------
 # opt freq B3LYP/6-31G(d) empiricaldispersion=gd3bj scf=xqc
 -----------------------------------------------------------

 -------------------------------
 CID_10869311_JID_10488_neutraal
 -------------------------------
 Symbolic Z-matrix:
 Charge =  0 Multiplicity = 1

 SCF Done:  E(RB3LYP) =  -864.506574378     A.U. after   15 cycles
 SCF Done:  E(RB3LYP) =  -864.511742715     A.U. after   13 cycles
 SCF Done:  E(RB3LYP) =  -864.512426872     A.U. after   13 cycles
 SCF Done:  E(RB3LYP) =  -864.513508292     A.U. after   12 cycles
 SCF Done:  E(RB3LYP) =  -864.514393046     A.U. after   12 cycles
 SCF Done:  E(RB3LYP) =  -864.515024669     A.U. after   12 cycles
 SCF Done:  E(RB3LYP) =  -864.515371871     A.U. after   13 cycles
 SCF Done:  E(RB3LYP) =  -864.515511691     A.U. after   12 cycles
 SCF Done:  E(RB3LYP) =  -864.515840160     A.U. after   12 cycles
 SCF Done:  E(RB3LYP) =  -864.516314771     A.U. after   13 cycles
 SCF Done:  E(RB3LYP) =  -864.517032475     A.U. after    8 cycles
 SCF Done:  E(RB3LYP) =  -864.517032948     A.U. after    7 cycles
 SCF Done:  E(RB3LYP) =  -864.517033050     A.U. after    7 cycles
 SCF Done:  E(RB3LYP) =  -864.517033055     A.U. after    7 cycles
 SCF Done:  E(RB3LYP) =  -864.517033055     A.U. after    6 cycles
 Optimization completed.
    -- Stationary point found.
 Normal termination of Gaussian 16 at Sat Dec 12 16:32:14 2020.

 --------------------------------------------------------------------
 #N Geom=AllCheck Guess=TCheck SCRF=Check GenChk RB3LYP/6-31G(d) Freq
 --------------------------------------------------------------------

 Structure from the checkpoint file:  "JID_10488.chk"
 -------------------------------
 CID_10869311_JID_10488_neutraal
 -------------------------------
 Charge =  0 Multiplicity = 1

 SCF Done:  E(RB3LYP) =  -864.517033055     A.U. after    1 cycles

  Exact polarizability: 242.150 -13.345 193.251  -2.212 -18.159 159.082
 Approx polarizability: 313.420 -26.130 324.931  -3.948 -54.308 275.543

                      1                      2                      3
                      A                      A                      A
 Frequencies --     15.4181                27.4677                44.6800
 Red. masses --      4.5691                 3.4351                 3.4679
 Frc consts  --      0.0006                 0.0015                 0.0041
 IR Inten    --      1.0228                 0.0879                 1.6233

                      4                      5                      6
                      A                      A                      A
 Frequencies --     50.0690                67.5540                77.9373
 Red. masses --      3.2164                 3.7818                 2.5772
 Frc consts  --      0.0048                 0.0102                 0.0092
 IR Inten    --      3.7353                 1.1592                 0.4611

                      7                      8                      9
                      A                      A                      A
 Frequencies --     92.2565               103.1905               130.8916
 Red. masses --      2.5150                 5.2375                 4.8340
 Frc consts  --      0.0126                 0.0329                 0.0488
 IR Inten    --      3.9772                 3.7487                 3.1045

                     10                     11                     12
                      A                      A                      A
 Frequencies --    164.6509               192.0351               211.2212
 Red. masses --      3.8032                 1.8808                 1.2553
 Frc consts  --      0.0607                 0.0409                 0.0330
 IR Inten    --      0.0957                 2.6731                 0.3500

                     13                     14                     15
                      A                      A                      A
 Frequencies --    231.4233               250.6520               282.7164
 Red. masses --      2.9982                 1.3160                 2.5122
 Frc consts  --      0.0946                 0.0487                 0.1183
 IR Inten    --      1.5044                 0.0925                 1.1506

                     16                     17                     18
                      A                      A                      A
 Frequencies --    299.0361               312.7914               321.9406
 Red. masses --      4.6409                 3.4520                 3.4667
 Frc consts  --      0.2445                 0.1990                 0.2117
 IR Inten    --      2.2526                 0.8501                 1.5630

                     19                     20                     21
                      A                      A                      A
 Frequencies --    362.4384               425.6516               427.3500
 Red. masses --      3.8778                 3.5659                 3.1781
 Frc consts  --      0.3001                 0.3807                 0.3420
 IR Inten    --      5.5959                 0.3359                 0.0271

                     22                     23                     24
                      A                      A                      A
 Frequencies --    431.4060               451.9658               476.9048
 Red. masses --      3.0996                 3.6542                 3.7403
 Frc consts  --      0.3399                 0.4398                 0.5012
 IR Inten    --      0.4366                 0.6936                 5.2249

                     25                     26                     27
                      A                      A                      A
 Frequencies --    509.0381               513.1821               524.2684
 Red. masses --      3.4640                 3.4217                 2.7920
 Frc consts  --      0.5289                 0.5309                 0.4521
 IR Inten    --      4.0248                 0.7077                 5.9265

                     28                     29                     30
                      A                      A                      A
 Frequencies --    541.1593               587.0169               645.7133
 Red. masses --      2.8552                 3.9996                 5.8492
 Frc consts  --      0.4926                 0.8120                 1.4369
 IR Inten    --     12.9965                41.0179                 1.4254

                     31                     32                     33
                      A                      A                      A
 Frequencies --    654.9921               663.4118               699.2256
 Red. masses --      6.7578                 5.0593                 3.4546
 Frc consts  --      1.7081                 1.3119                 0.9951
 IR Inten    --      1.3693                 5.3343                14.1433

                     34                     35                     36
                      A                      A                      A
 Frequencies --    729.0919               740.3500               794.9754
 Red. masses --      3.9723                 4.0205                 4.0664
 Frc consts  --      1.2441                 1.2984                 1.5141
 IR Inten    --     10.7232                 1.7171                42.3660

                     37                     38                     39
                      A                      A                      A
 Frequencies --    801.5947               813.0771               831.3018
 Red. masses --      3.2791                 1.3833                 1.2609
 Frc consts  --      1.2414                 0.5388                 0.5134
 IR Inten    --     27.4023                 3.8442                 2.6047

                     40                     41                     42
                      A                      A                      A
 Frequencies --    837.4064               842.9704               871.8701
 Red. masses --      1.7720                 2.4436                 3.2096
 Frc consts  --      0.7321                 1.0231                 1.4375
 IR Inten    --     33.8341                14.8545                 1.0927

                     43                     44                     45
                      A                      A                      A
 Frequencies --    946.0575               952.1064               958.7674
 Red. masses --      1.3747                 1.5339                 1.6553
 Frc consts  --      0.7249                 0.8193                 0.8965
 IR Inten    --      1.0655                 6.8492                15.4140

                     46                     47                     48
                      A                      A                      A
 Frequencies --    962.9345               975.7875               989.9801
 Red. masses --      1.3666                 3.1088                 1.3333
 Frc consts  --      0.7466                 1.7440                 0.7699
 IR Inten    --      1.6544                22.7511                 2.2428

                     49                     50                     51
                      A                      A                      A
 Frequencies --   1022.4136              1036.5021              1067.4313
 Red. masses --      3.4343                 2.8009                 2.5416
 Frc consts  --      2.1152                 1.7729                 1.7062
 IR Inten    --      1.6453                 2.3251                15.5526

                     52                     53                     54
                      A                      A                      A
 Frequencies --   1084.3451              1094.3393              1142.3359
 Red. masses --      6.2559                 1.5178                 1.3599
 Frc consts  --      4.3338                 1.0709                 1.0455
 IR Inten    --     57.2006                26.0134                11.1954

                     55                     56                     57
                      A                      A                      A
 Frequencies --   1152.1924              1158.2204              1166.1736
 Red. masses --      1.3188                 1.2329                 1.3657
 Frc consts  --      1.0316                 0.9744                 1.0943
 IR Inten    --     26.2749                 0.2019                20.0465

                     58                     59                     60
                      A                      A                      A
 Frequencies --   1186.9638              1187.1909              1213.9985
 Red. masses --      1.2784                 1.3098                 1.4817
 Frc consts  --      1.0612                 1.0877                 1.2866
 IR Inten    --      8.5837                79.8035                40.6585

                     61                     62                     63
                      A                      A                      A
 Frequencies --   1215.3573              1219.7243              1229.1763
 Red. masses --      1.3009                 1.4031                 2.4115
 Frc consts  --      1.1321                 1.2299                 2.1466
 IR Inten    --     26.2089                15.8478                10.5278

                     64                     65                     66
                      A                      A                      A
 Frequencies --   1236.3509              1292.4248              1301.1310
 Red. masses --      1.2004                 3.0497                 4.2660
 Frc consts  --      1.0811                 3.0014                 4.2551
 IR Inten    --    110.5951                31.8450               289.1603

                     67                     68                     69
                      A                      A                      A
 Frequencies --   1312.1251              1326.7899              1351.7801
 Red. masses --      1.6834                 2.8780                 1.6583
 Frc consts  --      1.7076                 2.9850                 1.7854
 IR Inten    --     27.3322               230.2395                12.7104

                     70                     71                     72
                      A                      A                      A
 Frequencies --   1358.9336              1374.3917              1387.5910
 Red. masses --      1.6761                 2.7946                 5.5045
 Frc consts  --      1.8237                 3.1102                 6.2444
 IR Inten    --     22.2666                66.4571                21.6971

                     73                     74                     75
                      A                      A                      A
 Frequencies --   1409.2040              1468.4715              1472.9500
 Red. masses --      3.2013                 1.3589                 2.7616
 Frc consts  --      3.7456                 1.7265                 3.5301
 IR Inten    --    241.5713                 4.5708                 3.2319

                     76                     77                     78
                      A                      A                      A
 Frequencies --   1490.0072              1500.6218              1509.1500
 Red. masses --      2.1750                 1.1978                 1.1178
 Frc consts  --      2.8451                 1.5892                 1.4999
 IR Inten    --     12.7125                17.0627                20.7872

                     79                     80                     81
                      A                      A                      A
 Frequencies --   1510.7260              1515.5988              1519.1821
 Red. masses --      1.0416                 1.2196                 1.0514
 Frc consts  --      1.4006                 1.6505                 1.4297
 IR Inten    --      0.8431                 7.2828                10.5388

                     82                     83                     84
                      A                      A                      A
 Frequencies --   1520.9083              1536.4593              1546.0566
 Red. masses --      1.0478                 1.0648                 1.0814
 Frc consts  --      1.4280                 1.4810                 1.5230
 IR Inten    --      5.0700                46.5915                 4.9064

                     85                     86                     87
                      A                      A                      A
 Frequencies --   1559.8496              1568.5010              1582.0099
 Red. masses --      1.1115                 2.3857                 2.4570
 Frc consts  --      1.5934                 3.4581                 3.6231
 IR Inten    --     61.3681               121.1947                88.3085

                     88                     89                     90
                      A                      A                      A
 Frequencies --   1607.0304              1637.0530              1669.4672
 Red. masses --      5.8768                 6.6773                 5.4302
 Frc consts  --      8.9421                10.5432                 8.9171
 IR Inten    --     43.8621                 5.7225               471.7287

                     91                     92                     93
                      A                      A                      A
 Frequencies --   1677.3318              1749.8952              3011.7417
 Red. masses --      5.7193                10.8939                 1.0436
 Frc consts  --      9.4805                19.6542                 5.5773
 IR Inten    --     45.6705               174.5539                75.2032

                     94                     95                     96
                      A                      A                      A
 Frequencies --   3019.4201              3024.2308              3065.6462
 Red. masses --      1.0477                 1.0348                 1.0585
 Frc consts  --      5.6276                 5.5763                 5.8613
 IR Inten    --     72.4824                58.0192                18.8366

                     97                     98                     99
                      A                      A                      A
 Frequencies --   3069.5297              3071.6639              3082.0769
 Red. masses --      1.0963                 1.0980                 1.1065
 Frc consts  --      6.0858                 6.1037                 6.1930
 IR Inten    --     17.9187                57.4179                43.8435

                    100                    101                    102
                      A                      A                      A
 Frequencies --   3110.7424              3148.2847              3157.1110
 Red. masses --      1.1052                 1.0979                 1.0996
 Frc consts  --      6.3011                 6.4113                 6.4577
 IR Inten    --     13.0238                 1.8928                30.1031

                    103                    104                    105
                      A                      A                      A
 Frequencies --   3160.8563              3175.2588              3197.4504
 Red. masses --      1.0952                 1.0888                 1.0893
 Frc consts  --      6.4470                 6.4676                 6.5614
 IR Inten    --     42.5946                18.0722                 4.0482

                    106                    107                    108
                      A                      A                      A
 Frequencies --   3214.3198              3216.3354              3218.6028
 Red. masses --      1.0928                 1.0874                 1.0867
 Frc consts  --      6.6523                 6.6278                 6.6326
 IR Inten    --      8.6661                 3.2098                 6.8372

                    109                    110                    111
                      A                      A                      A
 Frequencies --   3228.2613              3233.8742              3236.7639
 Red. masses --      1.0915                 1.0922                 1.0926
 Frc consts  --      6.7022                 6.7299                 6.7442
 IR Inten    --     11.9251                19.3565                 9.5174

 - Thermochemistry -
 -------------------
 Temperature   298.150 Kelvin.  Pressure   1.00000 Atm.
 Atom     1 has atomic number  6 and mass  12.00000

 Molecular mass:   269.14158 amu.
 Principal axes and moments of inertia in atomic units:
                           1         2         3
     Eigenvalues --  3419.20343********************
           X            0.99995  -0.00981   0.00333
           Y            0.00979   0.99991   0.00872
           Z           -0.00341  -0.00868   0.99996
 This molecule is an asymmetric top.
 Rotational symmetry number  1.
 Warning -- assumption of classical behavior for rotation
           may cause significant error
 Rotational temperatures (Kelvin)      0.02533     0.00767     0.00667
 Rotational constants (GHZ):           0.52783     0.15980     0.13904
 Zero-point vibrational energy     859208.6 (Joules/Mol)
                                  205.35577 (Kcal/Mol)
 Warning -- explicit consideration of  29 degrees of freedom as
           vibrations may cause significant error
 Vibrational temperatures:     22.18    39.52    64.28    72.04    97.20
          (Kelvin)            112.13   132.74   148.47   188.32   236.90
                              276.30   303.90   332.97   360.63   406.77
                              430.25   450.04   463.20   521.47   612.42
                              614.86   620.70   650.28   686.16   732.39
                              738.35   754.31   778.61   844.59   929.04
                              942.39   954.50  1006.03  1049.00  1065.20
                             1143.79  1153.32  1169.84  1196.06  1204.84
                             1212.85  1254.43  1361.17  1369.87  1379.45
                             1385.45  1403.94  1424.36  1471.03  1491.30
                             1535.80  1560.13  1574.51  1643.57  1657.75
                             1666.42  1677.86  1707.78  1708.10  1746.67
                             1748.63  1754.91  1768.51  1778.83  1859.51
                             1872.04  1887.86  1908.95  1944.91  1955.20
                             1977.44  1996.43  2027.53  2112.80  2119.25
                             2143.79  2159.06  2171.33  2173.60  2180.61
                             2185.76  2188.25  2210.62  2224.43  2244.28
                             2256.72  2276.16  2312.16  2355.35  2401.99
                             2413.31  2517.71  4333.22  4344.27  4351.19
                             4410.78  4416.37  4419.44  4434.42  4475.66
                             4529.68  4542.38  4547.77  4568.49  4600.42
                             4624.69  4627.59  4630.85  4644.75  4652.82
                             4656.98

 Zero-point correction=                           0.327255 (Hartree/Particle)
 Thermal correction to Energy=                    0.346349
 Thermal correction to Enthalpy=                  0.347293
 Thermal correction to Gibbs Free Energy=         0.277208
 Sum of electronic and zero-point Energies=           -864.189778
 Sum of electronic and thermal Energies=              -864.170684
 Sum of electronic and thermal Enthalpies=            -864.169740
 Sum of electronic and thermal Free Energies=         -864.239825

                     E (Thermal)             CV                S
                      KCal/Mol        Cal/Mol-Kelvin    Cal/Mol-Kelvin
 Total                  217.337             71.844            147.505
 Electronic               0.000              0.000              0.000
 Translational            0.889              2.981             42.669
 Rotational               0.889              2.981             34.571
 Vibrational            215.560             65.882             70.265
 Vibration     1          0.593              1.986              7.151
 Vibration     2          0.593              1.984              6.004
 Vibration     3          0.595              1.980              5.040
 Vibration     4          0.595              1.978              4.815
 Vibration     5          0.598              1.970              4.223
 Vibration     6          0.599              1.964              3.942
 Vibration     7          0.602              1.955              3.612
 Vibration     8          0.605              1.947              3.393
 Vibration     9          0.612              1.922              2.933
 Vibration    10          0.623              1.886              2.496
 Vibration    11          0.634              1.851              2.208
 Vibration    12          0.643              1.824              2.033
 Vibration    13          0.653              1.793              1.868
 Vibration    14          0.663              1.762              1.726
 Vibration    15          0.682              1.706              1.517
 Vibration    16          0.692              1.675              1.422
 Vibration    17          0.701              1.649              1.348
 Vibration    18          0.707              1.631              1.300
 Vibration    19          0.736              1.550              1.112
 Vibration    20          0.787              1.414              0.873
 Vibration    21          0.789              1.411              0.867
 Vibration    22          0.792              1.402              0.854
 Vibration    23          0.811              1.357              0.790
 Vibration    24          0.833              1.301              0.718
 Vibration    25          0.864              1.230              0.636
 Vibration    26          0.868              1.221              0.626
 Vibration    27          0.879              1.196              0.600
 Vibration    28          0.896              1.159              0.563
 Vibration    29          0.944              1.059              0.473

 Optimization completed.
    -- Stationary point found.
 Normal termination of Gaussian 16 at Sat Dec 12 16:49:37 2020.

 ----------------------------------------------------------------------
 # B3LYP/6-311++G(d,p) empiricaldispersion=gd3bj scf=xqc pop=npa geom=c
 heck
 ----------------------------------------------------------------------

 ---------------------------------------
 CID_10869311_JID_10488_Energie_neutraal
 ---------------------------------------
 Structure from the checkpoint file:  "JID_10488.chk"
 Charge =  0 Multiplicity = 1

 SCF Done:  E(RB3LYP) =  -864.748070119     A.U. after   16 cycles
 Normal termination of Gaussian 16 at Sat Dec 12 16:58:03 2020.

 ----------------------------------------------------------------------
 # B3LYP/6-311++G(d,p) empiricaldispersion=gd3bj scf=xqc pop=npa geom=c
 heck
 ----------------------------------------------------------------------

 -------------------------------------
 CID_10869311_JID_10488_Energie_kation
 -------------------------------------
 Structure from the checkpoint file:  "JID_10488.chk"
 Charge =  1 Multiplicity = 2

 SCF Done:  E(UB3LYP) =  -864.488214305     A.U. after   26 cycles
 Normal termination of Gaussian 16 at Sat Dec 12 17:17:07 2020.
 Gaussian 16:  ES64L-G16RevA.03 25-Dec-2016

 ----------------------------------------------------------------------
 # B3LYP/6-311++G(d,p) empiricaldispersion=gd3bj scf=xqc pop=npa geom=c
 heck
 ----------------------------------------------------------------------

 ------------------------------------
 CID_10869311_JID_10488_Energie_anion
 ------------------------------------
 Structure from the checkpoint file:  "JID_10488.chk"
 Charge = -1 Multiplicity = 2

                         Standard orientation:
 ---------------------------------------------------------------------
 Center     Atomic      Atomic             Coordinates (Angstroms)
 Number     Number       Type             X           Y           Z
 ---------------------------------------------------------------------
      1          6           0        4.416159   -2.483288    0.807705
      2          7           0        4.416356   -1.310048   -0.047196
      3          6           0        5.416263   -1.193899   -1.093650
      4          6           0        3.347667   -0.440816   -0.019233
      5          6           0        3.263159    0.648801   -0.922366
      6          6           0        2.192912    1.522972   -0.876799
      7          6           0        1.154956    1.371303    0.057876
      8          6           0        1.232067    0.287842    0.946459
      9          6           0        2.294101   -0.602311    0.912424
     10          6           0        0.042436    2.346766    0.047835
     11          8           0       -0.020846    3.238186   -0.792922
     12          6           0       -1.077150    2.211812    1.082769
     13          6           0       -2.032154    1.089167    0.722690
     14          6           0       -2.395376    0.109323    1.656069
     15          6           0       -3.269306   -0.917550    1.321314
     16          6           0       -3.803502   -0.989349    0.028685
     17          6           0       -3.452552   -0.019654   -0.917065
     18          6           0       -2.573640    1.004818   -0.562326
     19          8           0       -4.650235   -2.035105   -0.208081
     20          6           0       -5.213804   -2.148226   -1.503184
     21          1           0        5.344737   -3.035755    0.657279
     22          1           0        3.574512   -3.157641    0.590451
     23          1           0        4.360913   -2.201845    1.866630
     24          1           0        4.987577   -1.332097   -2.097226
     25          1           0        5.907081   -0.213253   -1.066189
     26          1           0        6.182766   -1.955085   -0.941393
     27          1           0        4.038231    0.806101   -1.662142
     28          1           0        2.132920    2.353711   -1.572240
     29          1           0        0.439402    0.114421    1.665517
     30          1           0        2.302566   -1.430919    1.609279
     31          1           0       -0.664572    2.043248    2.083231
     32          1           0       -1.598167    3.174545    1.093127
     33          1           0       -1.990569    0.154218    2.664710
     34          1           0       -3.553181   -1.676337    2.043444
     35          1           0       -3.850740   -0.051504   -1.924324
     36          1           0       -2.300271    1.751622   -1.302542
     37          1           0       -5.825394   -1.271640   -1.755120
     38          1           0       -4.438872   -2.276384   -2.270659
     39          1           0       -5.848195   -3.035983   -1.478649
 ---------------------------------------------------------------------

 SCF Done:  E(UB3LYP) =  -864.747762348     A.U. after   33 cycles
 SCF Done:  E(UB3LYP) =  -864.747762348     a.u. after    1 cycles

 The electronic state is 2-A.
 Alpha  occ. eigenvalues --  -19.06974 -18.94915 -14.22559 -10.14916 -10.13898
 Alpha  occ. eigenvalues --  -10.10150 -10.10091 -10.09715 -10.09267 -10.07859
 Alpha  occ. eigenvalues --  -10.07704 -10.07587 -10.07511 -10.07335 -10.05747
 Alpha  occ. eigenvalues --  -10.05083 -10.04937 -10.04917 -10.04392 -10.03661
 Alpha  occ. eigenvalues --   -0.98591  -0.88705  -0.84562  -0.76100  -0.72676
 Alpha  occ. eigenvalues --   -0.68357  -0.65639  -0.64271  -0.63875  -0.62871
 Alpha  occ. eigenvalues --   -0.61515  -0.58198  -0.55599  -0.52013  -0.49367
 Alpha  occ. eigenvalues --   -0.48493  -0.47536  -0.44886  -0.42904  -0.41135
 Alpha  occ. eigenvalues --   -0.40022  -0.39234  -0.37807  -0.37360  -0.36556
 Alpha  occ. eigenvalues --   -0.35553  -0.34871  -0.33618  -0.32992  -0.32476
 Alpha  occ. eigenvalues --   -0.31775  -0.31115  -0.30854  -0.30210  -0.29329
 Alpha  occ. eigenvalues --   -0.28636  -0.28030  -0.27967  -0.27274  -0.26771
 Alpha  occ. eigenvalues --   -0.25373  -0.24803  -0.23967  -0.22790  -0.22460
 Alpha  occ. eigenvalues --   -0.21496  -0.17331  -0.16173  -0.13817  -0.13023
 Alpha  occ. eigenvalues --   -0.10597  -0.08680   0.03933
 Alpha virt. eigenvalues --    0.05282   0.05615   0.07472   0.07887   0.07936
 Alpha virt. eigenvalues --    0.08052   0.08743   0.09480   0.09506   0.09674
 Alpha virt. eigenvalues --    0.10341   0.10458   0.10697   0.11080   0.11558

  Beta  occ. eigenvalues --  -19.06968 -18.94565 -14.22512 -10.14909 -10.13885
  Beta  occ. eigenvalues --  -10.10125 -10.10065 -10.09451 -10.09080 -10.07835
  Beta  occ. eigenvalues --  -10.07681 -10.07575 -10.07473 -10.07342 -10.05769
  Beta  occ. eigenvalues --  -10.05018 -10.04978 -10.04949 -10.04266 -10.03650
  Beta  occ. eigenvalues --   -0.98576  -0.88053  -0.84423  -0.76051  -0.72514
  Beta  occ. eigenvalues --   -0.68281  -0.65579  -0.64082  -0.63783  -0.62773
  Beta  occ. eigenvalues --   -0.61394  -0.58047  -0.55521  -0.51956  -0.49251
  Beta  occ. eigenvalues --   -0.48375  -0.47260  -0.44863  -0.42753  -0.40913
  Beta  occ. eigenvalues --   -0.39966  -0.39214  -0.37733  -0.37275  -0.36397
  Beta  occ. eigenvalues --   -0.35489  -0.34767  -0.33513  -0.32933  -0.32410
  Beta  occ. eigenvalues --   -0.31599  -0.31068  -0.30808  -0.30159  -0.29215
  Beta  occ. eigenvalues --   -0.28408  -0.27961  -0.27863  -0.26869  -0.26640
  Beta  occ. eigenvalues --   -0.25085  -0.24588  -0.23919  -0.22514  -0.21432
  Beta  occ. eigenvalues --   -0.21399  -0.16576  -0.16005  -0.13465  -0.12861
  Beta  occ. eigenvalues --   -0.10322  -0.08136
  Beta virt. eigenvalues --    0.05313   0.06267   0.07394   0.07777   0.08025
  Beta virt. eigenvalues --    0.08078   0.08524   0.09083   0.09498   0.09679
  Beta virt. eigenvalues --    0.09941   0.10384   0.10572   0.10866   0.11118

 Mulliken charges and spin densities:
               1          2
     1  C    0.232883  -0.595399
     2  N   -0.090616   0.163547
     3  C    0.235664  -0.588196
     4  C   -0.902029   0.487765
     5  C   -0.119068  -0.239844
     6  C    0.148984   0.013974
     7  C    1.241814  -0.155767
     8  C   -0.450508   0.026405
     9  C   -0.403644  -0.047088
    10  C   -0.209735   0.066020
    11  O   -0.347922   0.125935
    12  C   -0.326057  -0.101824
    13  C    1.062185  -0.033033
    14  C    0.087828  -0.061607
    15  C   -0.317512   0.002009
    16  C   -0.571283  -0.020205
    17  C   -0.046551   0.028187
    18  C   -0.643219   0.054314
    19  O   -0.173791   0.007684
    20  C   -0.182450  -0.153288
    21  H   -0.370689   0.502187
    22  H   -0.043664   0.203113
    23  H    0.006540   0.133506
    24  H   -0.045221   0.200792
    25  H    0.030932   0.107217
    26  H   -0.317309   0.447146
    27  H    0.164716  -0.032644
    28  H    0.166957   0.018872
    29  H   -0.038590   0.031861
    30  H    0.192820  -0.026423
    31  H    0.082866   0.040398
    32  H    0.177031   0.042749
    33  H    0.037958   0.123630
    34  H    0.134648   0.033296
    35  H    0.143522   0.022960
    36  H    0.181479  -0.006940
    37  H    0.095441   0.045822
    38  H    0.114126   0.034652
    39  H    0.061466   0.098219
 Sum of Mulliken charges =  -1.00000   1.00000

 Dipole moment (field-independent basis, Debye):
    X=             -6.0669    Y=             -1.9302    Z=              0.3350  Tot=              6.3753
 Quadrupole moment (field-independent basis, Debye-Ang):
   XX=           -195.2761   YY=           -168.9852   ZZ=           -134.1747
   XY=             16.1903   XZ=              7.1060   YZ=              4.1454

 Summary of Natural Population Analysis:

                                       Natural Population
                Natural  -----------------------------------------------
    Atom  No    Charge         Core      Valence    Rydberg      Total
 -----------------------------------------------------------------------
      C    1   -0.17366      0.99965     2.16591    0.00810     3.17366
      N    2   -0.24267      0.99965     2.73280    0.01022     3.74267
      C    3   -0.17344      0.99965     2.16573    0.00807     3.17344
      C    4    0.13049      0.99950     1.85925    0.01075     2.86951
      C    5   -0.15219      0.99954     2.14485    0.00780     3.15219
      C    6   -0.04242      0.99954     2.03314    0.00973     3.04242
      C    7   -0.09451      0.99946     2.08467    0.01037     3.09451
      C    8   -0.05422      0.99955     2.04730    0.00738     3.05422
      C    9   -0.15330      0.99955     2.14570    0.00805     3.15330
      C   10    0.30832      0.99961     1.67122    0.02085     2.69168
      O   11   -0.27646      0.99988     3.27056    0.00602     4.27646
      C   12   -0.23843      0.99958     2.22925    0.00960     3.23843
      C   13   -0.01794      0.99950     2.00803    0.01041     3.01794
      C   14   -0.08790      0.99952     2.07985    0.00853     3.08790
      C   15   -0.12076      0.99953     2.11113    0.01009     3.12076
      C   16    0.15336      0.99938     1.83536    0.01189     2.84664
      C   17   -0.14150      0.99953     2.13387    0.00810     3.14150
      C   18   -0.09016      0.99952     2.08234    0.00829     3.09016
      O   19   -0.27544      0.99986     3.26662    0.00896     4.27544
      C   20   -0.10052      0.99961     2.09273    0.00818     3.10052
      H   21    0.09778      0.00000     0.40126    0.00096     0.40222
      H   22    0.09216      0.00000     0.40629    0.00156     0.40784
      H   23    0.09190      0.00000     0.40671    0.00139     0.40810
      H   24    0.09177      0.00000     0.40674    0.00149     0.40823
      H   25    0.09178      0.00000     0.40687    0.00135     0.40822
      H   26    0.09782      0.00000     0.40124    0.00093     0.40218
      H   27    0.09836      0.00000     0.40059    0.00105     0.40164
      H   28    0.10679      0.00000     0.39195    0.00127     0.39321
      H   29    0.09572      0.00000     0.40236    0.00192     0.40428
      H   30    0.09892      0.00000     0.39996    0.00112     0.40108
      H   31    0.10304      0.00000     0.39556    0.00140     0.39696
      H   32    0.11085      0.00000     0.38748    0.00167     0.38915
      H   33    0.09836      0.00000     0.40057    0.00106     0.40164
      H   34    0.10261      0.00000     0.39613    0.00125     0.39739
      H   35    0.10057      0.00000     0.39830    0.00114     0.39943
      H   36    0.10971      0.00000     0.38909    0.00121     0.39029
      H   37    0.08128      0.00000     0.41673    0.00199     0.41872
      H   38    0.08358      0.00000     0.41464    0.00178     0.41642
      H   39    0.09033      0.00000     0.40859    0.00109     0.40967
 =======================================================================
   * Total *   -0.00000     19.99160    51.79138    0.21702    72.00000

 Normal termination of Gaussian 16 at Sat Dec 12 17:42:08 2020.
