 Gaussian 16, Revision A.03,

 -----------------------------------------------------------
 # opt freq B3LYP/6-31G(d) empiricaldispersion=gd3bj scf=xqc
 -----------------------------------------------------------

 -------------------------------
 CID_137923308_JID_7932_neutraal
 -------------------------------
 Symbolic Z-matrix:
 Charge =  0 Multiplicity = 1

 SCF Done:  E(RB3LYP) =  -783.461991648     A.U. after   15 cycles
 SCF Done:  E(RB3LYP) =  -783.464604394     A.U. after   13 cycles
 SCF Done:  E(RB3LYP) =  -783.463664976     A.U. after   13 cycles
 SCF Done:  E(RB3LYP) =  -783.465293383     A.U. after   12 cycles
 SCF Done:  E(RB3LYP) =  -783.465744440     A.U. after   12 cycles
 SCF Done:  E(RB3LYP) =  -783.465915473     A.U. after   12 cycles
 SCF Done:  E(RB3LYP) =  -783.466245200     A.U. after   12 cycles
 SCF Done:  E(RB3LYP) =  -783.466329546     A.U. after   13 cycles
 SCF Done:  E(RB3LYP) =  -783.466830169     A.U. after   12 cycles
 SCF Done:  E(RB3LYP) =  -783.467258183     A.U. after   12 cycles
 SCF Done:  E(RB3LYP) =  -783.469314074     A.U. after    7 cycles
 SCF Done:  E(RB3LYP) =  -783.469315177     A.U. after    8 cycles
 SCF Done:  E(RB3LYP) =  -783.469315412     A.U. after    7 cycles
 SCF Done:  E(RB3LYP) =  -783.469315650     A.U. after    7 cycles
 SCF Done:  E(RB3LYP) =  -783.469315674     A.U. after    6 cycles
 Optimization completed.
    -- Stationary point found.
 Normal termination of Gaussian 16 at Fri Dec 11 13:44:33 2020.

 --------------------------------------------------------------------
 #N Geom=AllCheck Guess=TCheck SCRF=Check GenChk RB3LYP/6-31G(d) Freq
 --------------------------------------------------------------------

 Structure from the checkpoint file:  "JID_7932.chk"
 -------------------------------
 CID_137923308_JID_7932_neutraal
 -------------------------------
 Charge =  0 Multiplicity = 1

 SCF Done:  E(RB3LYP) =  -783.469315674     A.U. after    1 cycles

  Exact polarizability: 148.402  -9.139 149.310   1.626  -4.502 126.036
 Approx polarizability: 196.573 -17.892 214.584  11.583  -8.561 216.808

                      1                      2                      3
                      A                      A                      A
 Frequencies --     31.1215                34.6999                40.5379
 Red. masses --      4.1309                 4.1460                 5.1636
 Frc consts  --      0.0024                 0.0029                 0.0050
 IR Inten    --      0.8242                 0.5413                 0.6234

                      4                      5                      6
                      A                      A                      A
 Frequencies --     58.1306                65.9356                87.9908
 Red. masses --      1.5186                 2.0731                 3.4655
 Frc consts  --      0.0030                 0.0053                 0.0158
 IR Inten    --      0.7608                 1.8360                 0.5714

                      7                      8                      9
                      A                      A                      A
 Frequencies --    101.6739               158.5759               176.2941
 Red. masses --      5.0398                 3.6720                 4.7314
 Frc consts  --      0.0307                 0.0544                 0.0866
 IR Inten    --      0.4545                 1.4102                 1.1568

                     10                     11                     12
                      A                      A                      A
 Frequencies --    212.6531               224.7934               243.1826
 Red. masses --      4.1079                 4.5544                 1.7773
 Frc consts  --      0.1095                 0.1356                 0.0619
 IR Inten    --      9.4489                 0.2912                 0.1485

                     13                     14                     15
                      A                      A                      A
 Frequencies --    284.8283               309.8716               344.3977
 Red. masses --      2.5708                 2.2594                 4.0643
 Frc consts  --      0.1229                 0.1278                 0.2840
 IR Inten    --      1.8147                 0.9540                 2.1412

                     16                     17                     18
                      A                      A                      A
 Frequencies --    363.8108               398.3194               425.6682
 Red. masses --      2.3537                 3.1883                 3.4118
 Frc consts  --      0.1835                 0.2980                 0.3642
 IR Inten    --      5.7654                 2.0330                 4.3090

                     19                     20                     21
                      A                      A                      A
 Frequencies --    446.9254               484.5874               504.3023
 Red. masses --      2.3310                 2.7626                 1.7145
 Frc consts  --      0.2743                 0.3822                 0.2569
 IR Inten    --      2.3348                 0.8848                32.1444

                     22                     23                     24
                      A                      A                      A
 Frequencies --    541.7287               605.3021               615.8477
 Red. masses --      2.1798                 2.8709                 3.7307
 Frc consts  --      0.3769                 0.6198                 0.8337
 IR Inten    --     39.1034                16.6689                 4.6408

                     25                     26                     27
                      A                      A                      A
 Frequencies --    628.1336               654.5172               708.8886
 Red. masses --      2.2132                 5.6148                 3.2021
 Frc consts  --      0.5145                 1.4172                 0.9481
 IR Inten    --     33.7821                 1.3694                21.9979

                     28                     29                     30
                      A                      A                      A
 Frequencies --    729.3044               760.9867               787.0875
 Red. masses --      3.4294                 3.3112                 2.7089
 Frc consts  --      1.0747                 1.1298                 0.9888
 IR Inten    --     31.6455                12.5391                10.9064

                     31                     32                     33
                      A                      A                      A
 Frequencies --    789.9214               830.2796               860.9831
 Red. masses --      1.7041                 1.5905                 2.5488
 Frc consts  --      0.6265                 0.6460                 1.1132
 IR Inten    --      6.7272                 1.3998                12.1830

                     34                     35                     36
                      A                      A                      A
 Frequencies --    867.1592               881.8204               892.2472
 Red. masses --      1.5577                 2.3849                 2.5386
 Frc consts  --      0.6901                 1.0926                 1.1908
 IR Inten    --     13.1986                 3.5254                 5.8506

                     37                     38                     39
                      A                      A                      A
 Frequencies --    954.0205               981.6146              1006.8470
 Red. masses --      1.8289                 1.7554                 2.1557
 Frc consts  --      0.9807                 0.9966                 1.2875
 IR Inten    --      6.3812                 6.1299                23.0566

                     40                     41                     42
                      A                      A                      A
 Frequencies --   1008.5227              1015.2184              1032.0835
 Red. masses --      2.8156                 1.6632                 2.2588
 Frc consts  --      1.6873                 1.0100                 1.4176
 IR Inten    --     13.1942                 5.8135                14.6331

                     43                     44                     45
                      A                      A                      A
 Frequencies --   1043.3945              1081.9945              1095.1057
 Red. masses --      4.9221                 1.5796                 2.0591
 Frc consts  --      3.1572                 1.0895                 1.4549
 IR Inten    --      4.7259                 7.0648                 4.1394

                     46                     47                     48
                      A                      A                      A
 Frequencies --   1117.7281              1121.3941              1155.3893
 Red. masses --      2.4729                 2.5368                 2.3707
 Frc consts  --      1.8202                 1.8795                 1.8646
 IR Inten    --     38.8486                 9.5646                 4.7376

                     49                     50                     51
                      A                      A                      A
 Frequencies --   1159.3388              1160.0184              1196.3086
 Red. masses --      1.4263                 2.6985                 1.8883
 Frc consts  --      1.1295                 2.1395                 1.5923
 IR Inten    --     18.3238                29.8811                21.9677

                     52                     53                     54
                      A                      A                      A
 Frequencies --   1209.7511              1230.7131              1247.7085
 Red. masses --      1.2317                 1.4684                 1.5151
 Frc consts  --      1.0621                 1.3104                 1.3897
 IR Inten    --      5.5165                 5.5607                78.4624

                     55                     56                     57
                      A                      A                      A
 Frequencies --   1274.8419              1291.5185              1293.6786
 Red. masses --      1.5161                 1.3804                 1.2626
 Frc consts  --      1.4518                 1.3567                 1.2450
 IR Inten    --     33.4496                 9.8850                 2.7631

                     58                     59                     60
                      A                      A                      A
 Frequencies --   1316.5158              1327.8122              1347.9724
 Red. masses --      1.2892                 1.6638                 2.1866
 Frc consts  --      1.3165                 1.7283                 2.3409
 IR Inten    --      6.9106                86.2385                 5.3287

                     61                     62                     63
                      A                      A                      A
 Frequencies --   1352.0035              1356.6252              1387.6596
 Red. masses --      1.4971                 1.2760                 1.4622
 Frc consts  --      1.6123                 1.3837                 1.6589
 IR Inten    --      6.8100                12.2404                17.0007

                     64                     65                     66
                      A                      A                      A
 Frequencies --   1400.4103              1409.2884              1414.5378
 Red. masses --      1.2574                 1.6088                 4.5280
 Frc consts  --      1.4530                 1.8826                 5.3381
 IR Inten    --      6.7954                41.5660                 0.6612

                     67                     68                     69
                      A                      A                      A
 Frequencies --   1417.0777              1440.5358              1446.4662
 Red. masses --      1.6509                 1.6073                 1.5509
 Frc consts  --      1.9532                 1.9652                 1.9118
 IR Inten    --     22.2492                 6.5451                28.0939

                     70                     71                     72
                      A                      A                      A
 Frequencies --   1452.8756              1470.5863              1484.6924
 Red. masses --      1.8723                 1.6921                 1.6566
 Frc consts  --      2.3286                 2.1560                 2.1515
 IR Inten    --     26.8183                 7.6324                41.6032

                     73                     74                     75
                      A                      A                      A
 Frequencies --   1493.4046              1503.5922              1505.4820
 Red. masses --      1.8734                 1.1109                 1.1667
 Frc consts  --      2.4617                 1.4798                 1.5580
 IR Inten    --      9.4821                 1.1954                20.2381

                     76                     77                     78
                      A                      A                      A
 Frequencies --   1509.4331              1520.8507              1522.7193
 Red. masses --      1.0635                 1.0895                 1.0900
 Frc consts  --      1.4277                 1.4847                 1.4890
 IR Inten    --      6.6672                 3.3500                 2.7493

                     79                     80                     81
                      A                      A                      A
 Frequencies --   1525.5489              1534.0133              1545.7563
 Red. masses --      1.1463                 1.1069                 1.1825
 Frc consts  --      1.5718                 1.5347                 1.6647
 IR Inten    --     31.1404                 0.8824                 7.3493

                     82                     83                     84
                      A                      A                      A
 Frequencies --   1619.6896              1776.6071              2950.0266
 Red. masses --      5.0238                 7.7314                 1.0729
 Frc consts  --      7.7651                14.3778                 5.5012
 IR Inten    --     19.4486               311.8166                20.3753

                     85                     86                     87
                      A                      A                      A
 Frequencies --   2958.0129              2989.3914              3043.6322
 Red. masses --      1.0730                 1.0822                 1.0703
 Frc consts  --      5.5315                 5.6978                 5.8420
 IR Inten    --    105.6299                49.6382                33.5976

                     88                     89                     90
                      A                      A                      A
 Frequencies --   3053.4189              3057.8326              3065.0099
 Red. masses --      1.0679                 1.0609                 1.0608
 Frc consts  --      5.8660                 5.8448                 5.8714
 IR Inten    --     20.5955                47.4578                14.9017

                     91                     92                     93
                      A                      A                      A
 Frequencies --   3068.6178              3091.2063              3103.8650
 Red. masses --      1.0366                 1.1051                 1.0899
 Frc consts  --      5.7509                 6.2219                 6.1866
 IR Inten    --     48.5175                17.4327                64.0427

                     94                     95                     96
                      A                      A                      A
 Frequencies --   3106.6955              3113.7413              3127.1738
 Red. masses --      1.0913                 1.1031                 1.0927
 Frc consts  --      6.2056                 6.3015                 6.2961
 IR Inten    --     27.6889                14.5150                33.6373

                     97                     98                     99
                      A                      A                      A
 Frequencies --   3137.0064              3141.2958              3172.7582
 Red. masses --      1.0935                 1.1005                 1.1056
 Frc consts  --      6.3401                 6.3982                 6.5574
 IR Inten    --      9.8410                14.2696                 6.4117

                    100                    101                    102
                      A                      A                      A
 Frequencies --   3256.6403              3266.1929              3598.0149
 Red. masses --      1.0960                 1.0977                 1.0763
 Frc consts  --      6.8483                 6.8995                 8.2091
 IR Inten    --      3.6178                 0.3718                21.8325

 - Thermochemistry -
 -------------------
 Temperature   298.150 Kelvin.  Pressure   1.00000 Atm.
 Atom     1 has atomic number  6 and mass  12.00000

 Molecular mass:   237.14773 amu.
 Principal axes and moments of inertia in atomic units:
                           1         2         3
     Eigenvalues --  2934.347575160.880417094.81802
           X            1.00000  -0.00080  -0.00078
           Y            0.00079   0.99998  -0.00610
           Z            0.00079   0.00610   0.99998
 This molecule is an asymmetric top.
 Rotational symmetry number  1.
 Warning -- assumption of classical behavior for rotation
           may cause significant error
 Rotational temperatures (Kelvin)      0.02952     0.01678     0.01221
 Rotational constants (GHZ):           0.61504     0.34970     0.25437
 Zero-point vibrational energy     820712.3 (Joules/Mol)
                                  196.15496 (Kcal/Mol)
 Warning -- explicit consideration of  24 degrees of freedom as
           vibrations may cause significant error
 Vibrational temperatures:     44.78    49.93    58.33    83.64    94.87
          (Kelvin)            126.60   146.29   228.16   253.65   305.96
                              323.43   349.89   409.80   445.84   495.51
                              523.44   573.09   612.44   643.03   697.21
                              725.58   779.43   870.89   886.07   903.74
                              941.70  1019.93  1049.31  1094.89  1132.44
                             1136.52  1194.59  1238.76  1247.65  1268.74
                             1283.74  1372.62  1412.32  1448.63  1451.04
                             1460.67  1484.94  1501.21  1556.75  1575.61
                             1608.16  1613.44  1662.35  1668.03  1669.01
                             1721.22  1740.56  1770.72  1795.17  1834.21
                             1858.21  1861.31  1894.17  1910.43  1939.43
                             1945.23  1951.88  1996.53  2014.88  2027.65
                             2035.20  2038.86  2072.61  2081.14  2090.36
                             2115.85  2136.14  2148.68  2163.33  2166.05
                             2171.74  2188.17  2190.85  2194.92  2207.10
                             2224.00  2330.37  2556.14  4244.43  4255.92
                             4301.07  4379.11  4393.19  4399.54  4409.87
                             4415.06  4447.56  4465.77  4469.84  4479.98
                             4499.31  4513.45  4519.62  4564.89  4685.58
                             4699.32  5176.74

 Zero-point correction=                           0.312593 (Hartree/Particle)
 Thermal correction to Energy=                    0.329020
 Thermal correction to Enthalpy=                  0.329964
 Thermal correction to Gibbs Free Energy=         0.266540
 Sum of electronic and zero-point Energies=           -783.156723
 Sum of electronic and thermal Energies=              -783.140296
 Sum of electronic and thermal Enthalpies=            -783.139352
 Sum of electronic and thermal Free Energies=         -783.202776

                     E (Thermal)             CV                S
                      KCal/Mol        Cal/Mol-Kelvin    Cal/Mol-Kelvin
 Total                  206.463             61.600            133.487
 Electronic               0.000              0.000              0.000
 Translational            0.889              2.981             42.292
 Rotational               0.889              2.981             33.041
 Vibrational            204.686             55.639             58.155
 Vibration     1          0.594              1.983              5.757
 Vibration     2          0.594              1.983              5.541
 Vibration     3          0.594              1.981              5.233
 Vibration     4          0.596              1.974              4.520
 Vibration     5          0.597              1.971              4.271
 Vibration     6          0.601              1.958              3.704
 Vibration     7          0.604              1.948              3.422
 Vibration     8          0.621              1.893              2.567
 Vibration     9          0.628              1.872              2.367
 Vibration    10          0.644              1.822              2.021
 Vibration    11          0.649              1.803              1.920
 Vibration    12          0.659              1.774              1.779
 Vibration    13          0.683              1.702              1.504
 Vibration    14          0.699              1.655              1.363
 Vibration    15          0.723              1.587              1.192
 Vibration    16          0.737              1.547              1.106
 Vibration    17          0.765              1.474              0.969
 Vibration    18          0.787              1.414              0.873
 Vibration    19          0.806              1.368              0.805
 Vibration    20          0.841              1.284              0.698
 Vibration    21          0.860              1.240              0.647
 Vibration    22          0.897              1.158              0.562
 Vibration    23          0.964              1.021              0.441
 Vibration    24          0.975              0.998              0.423

 Optimization completed.
    -- Stationary point found.
 Normal termination of Gaussian 16 at Fri Dec 11 13:58:16 2020.

 ----------------------------------------------------------------------
 # B3LYP/6-311++G(d,p) empiricaldispersion=gd3bj scf=xqc pop=npa geom=c
 heck
 ----------------------------------------------------------------------

 ---------------------------------------
 CID_137923308_JID_7932_Energie_neutraal
 ---------------------------------------
 Structure from the checkpoint file:  "JID_7932.chk"
 Charge =  0 Multiplicity = 1

 SCF Done:  E(RB3LYP) =  -783.690663208     A.U. after   15 cycles
 Normal termination of Gaussian 16 at Fri Dec 11 14:05:09 2020.

 ----------------------------------------------------------------------
 # B3LYP/6-311++G(d,p) empiricaldispersion=gd3bj scf=xqc pop=npa geom=c
 heck
 ----------------------------------------------------------------------

 -------------------------------------
 CID_137923308_JID_7932_Energie_kation
 -------------------------------------
 Structure from the checkpoint file:  "JID_7932.chk"
 Charge =  1 Multiplicity = 2

 SCF Done:  E(UB3LYP) =  -783.387241309     A.U. after   30 cycles
 Normal termination of Gaussian 16 at Fri Dec 11 14:24:19 2020.
 Gaussian 16:  ES64L-G16RevA.03 25-Dec-2016

 ----------------------------------------------------------------------
 # B3LYP/6-311++G(d,p) empiricaldispersion=gd3bj scf=xqc pop=npa geom=c
 heck
 ----------------------------------------------------------------------

 ------------------------------------
 CID_137923308_JID_7932_Energie_anion
 ------------------------------------
 Structure from the checkpoint file:  "JID_7932.chk"
 Charge = -1 Multiplicity = 2

                         Standard orientation:
 ---------------------------------------------------------------------
 Center     Atomic      Atomic             Coordinates (Angstroms)
 Number     Number       Type             X           Y           Z
 ---------------------------------------------------------------------
      1          6           0        3.316851   -2.568312    0.658454
      2          7           0        2.848395   -1.285816    0.172861
      3          6           0        2.610317   -0.153488    0.887660
      4          6           0        2.253139    0.831384   -0.017698
      5          6           0        2.314357    0.178949   -1.272770
      6          7           0        2.675247   -1.098317   -1.155339
      7          6           0        1.840381    2.246262    0.276876
      8          7           0        0.571703    2.641529   -0.332910
      9          6           0       -0.691512    2.170586   -0.074957
     10          8           0       -1.626493    2.500941   -0.797766
     11          6           0       -0.886210    1.283906    1.149104
     12          6           0       -1.628108   -0.037437    0.855805
     13          6           0       -0.956891   -0.868072   -0.249277
     14          6           0       -1.739899   -2.157647   -0.495877
     15          8           0       -3.099207   -1.904701   -0.815983
     16          6           0       -3.762907   -1.206860    0.229886
     17          6           0       -3.115179    0.148405    0.514631
     18          1           0        2.799810   -3.359926    0.113361
     19          1           0        4.396153   -2.674357    0.506515
     20          1           0        3.090963   -2.650387    1.723862
     21          1           0        2.698267   -0.133853    1.965065
     22          1           0        2.081529    0.582346   -2.249520
     23          1           0        1.800466    2.404302    1.360357
     24          1           0        2.587084    2.952823   -0.101962
     25          1           0        0.610764    3.198235   -1.177524
     26          1           0        0.068725    1.052932    1.626525
     27          1           0       -1.474421    1.870685    1.867042
     28          1           0       -1.576229   -0.624873    1.786859
     29          1           0       -0.931922   -0.287050   -1.178613
     30          1           0        0.078435   -1.111129    0.013438
     31          1           0       -1.325457   -2.713637   -1.342147
     32          1           0       -1.681646   -2.805535    0.398701
     33          1           0       -3.763066   -1.826150    1.146155
     34          1           0       -4.800341   -1.088973   -0.097003
     35          1           0       -3.639118    0.640206    1.345828
     36          1           0       -3.207826    0.796589   -0.360239
 ---------------------------------------------------------------------

 SCF Done:  E(UB3LYP) =  -783.684110989     A.U. after   33 cycles
 SCF Done:  E(UB3LYP) =  -783.684110989     a.u. after    1 cycles

 The electronic state is 2-A.
 Alpha  occ. eigenvalues --  -19.03320 -18.99585 -14.30006 -14.24746 -14.23826
 Alpha  occ. eigenvalues --  -10.18284 -10.13075 -10.12649 -10.12218 -10.11578
 Alpha  occ. eigenvalues --  -10.11287 -10.09866 -10.08836 -10.08536 -10.08275
 Alpha  occ. eigenvalues --  -10.06999 -10.06902  -0.96044  -0.94836  -0.94750
 Alpha  occ. eigenvalues --   -0.83404  -0.75193  -0.72754  -0.70706  -0.67244
 Alpha  occ. eigenvalues --   -0.64487  -0.63307  -0.59302  -0.54768  -0.54189
 Alpha  occ. eigenvalues --   -0.50682  -0.48771  -0.48251  -0.46216  -0.43581
 Alpha  occ. eigenvalues --   -0.40816  -0.40288  -0.39303  -0.38540  -0.38499
 Alpha  occ. eigenvalues --   -0.36576  -0.36080  -0.35514  -0.35292  -0.34277
 Alpha  occ. eigenvalues --   -0.33081  -0.31931  -0.31524  -0.30896  -0.30296
 Alpha  occ. eigenvalues --   -0.29387  -0.28881  -0.27988  -0.26949  -0.26241
 Alpha  occ. eigenvalues --   -0.24593  -0.22532  -0.21371  -0.20637  -0.17609
 Alpha  occ. eigenvalues --   -0.16854  -0.16621  -0.16351  -0.14998   0.03853
 Alpha virt. eigenvalues --    0.05875   0.06684   0.07236   0.07893   0.08546
 Alpha virt. eigenvalues --    0.08966   0.09180   0.09488   0.09877   0.10041
 Alpha virt. eigenvalues --    0.11066   0.11639   0.11675   0.11939   0.12255

  Beta  occ. eigenvalues --  -19.03316 -18.99585 -14.30006 -14.24738 -14.23817
  Beta  occ. eigenvalues --  -10.18283 -10.13044 -10.12645 -10.12211 -10.11523
  Beta  occ. eigenvalues --  -10.11250 -10.09861 -10.08828 -10.08518 -10.08274
  Beta  occ. eigenvalues --  -10.06997 -10.06898  -0.96035  -0.94831  -0.94745
  Beta  occ. eigenvalues --   -0.83387  -0.75173  -0.72737  -0.70679  -0.67235
  Beta  occ. eigenvalues --   -0.64453  -0.63265  -0.59241  -0.54756  -0.54170
  Beta  occ. eigenvalues --   -0.50659  -0.48738  -0.48193  -0.46189  -0.43521
  Beta  occ. eigenvalues --   -0.40779  -0.40250  -0.39275  -0.38514  -0.38486
  Beta  occ. eigenvalues --   -0.36551  -0.36063  -0.35480  -0.35251  -0.34263
  Beta  occ. eigenvalues --   -0.33052  -0.31902  -0.31484  -0.30878  -0.30264
  Beta  occ. eigenvalues --   -0.29365  -0.28853  -0.27966  -0.26932  -0.26229
  Beta  occ. eigenvalues --   -0.24571  -0.22522  -0.21360  -0.20620  -0.17596
  Beta  occ. eigenvalues --   -0.16835  -0.16601  -0.16340  -0.14981
  Beta virt. eigenvalues --    0.06316   0.06657   0.07204   0.07837   0.08179
  Beta virt. eigenvalues --    0.08938   0.09198   0.09515   0.09608   0.10215
  Beta virt. eigenvalues --    0.10417   0.11260   0.11850   0.12125   0.12183

 Mulliken charges and spin densities:
               1          2
     1  C    1.349133  -1.630933
     2  N    0.207525  -0.018230
     3  C   -1.318157   0.856536
     4  C    0.537530   0.107577
     5  C   -0.176847  -0.171612
     6  N   -0.396350   0.233303
     7  C    1.911541  -2.760274
     8  N   -0.258437   0.135028
     9  C   -0.898310   0.422637
    10  O   -0.315325   0.003518
    11  C    1.144548  -0.862715
    12  C   -0.244491   0.255858
    13  C   -0.331311   0.202401
    14  C   -0.080126  -0.424019
    15  O   -0.104718   0.009196
    16  C   -0.360205  -0.068921
    17  C   -0.372442  -0.031755
    18  H   -0.157295   0.319156
    19  H   -0.288016   0.468447
    20  H   -0.622860   0.797979
    21  H   -1.407892   1.612794
    22  H    0.152916  -0.007174
    23  H   -0.152274   0.371092
    24  H   -0.419303   0.600673
    25  H    0.138263   0.157543
    26  H    0.309994  -0.167225
    27  H   -0.085535   0.301373
    28  H   -0.193431   0.406863
    29  H    0.170163   0.045524
    30  H    0.569503  -0.416993
    31  H    0.163030   0.017427
    32  H   -0.009232   0.157282
    33  H    0.062192   0.041913
    34  H    0.159065   0.015348
    35  H    0.084115   0.030965
    36  H    0.233038  -0.010583
 Sum of Mulliken charges =  -1.00000   1.00000

 Dipole moment (field-independent basis, Debye):
    X=             -5.5036    Y=              1.2177    Z=             -4.3499  Tot=              7.1200
 Quadrupole moment (field-independent basis, Debye-Ang):
   XX=           -170.6584   YY=           -157.1280   ZZ=           -150.7660
   XY=              8.4621   XZ=            -20.0932   YZ=              3.9816

 Summary of Natural Population Analysis:

                                       Natural Population
                Natural  -----------------------------------------------
    Atom  No    Charge         Core      Valence    Rydberg      Total
 -----------------------------------------------------------------------
      C    1   -0.17130      0.99963     2.16299    0.00868     3.17130
      N    2   -0.10566      0.99967     2.59246    0.01352     3.60566
      C    3    0.00005      0.99948     1.98721    0.01326     2.99995
      C    4   -0.08757      0.99951     2.07645    0.01162     3.08757
      C    5   -0.00905      0.99956     1.99556    0.01392     3.00905
      N    6   -0.15202      0.99973     2.64092    0.01137     3.65202
      C    7   -0.09689      0.99957     2.08476    0.01257     3.09689
      N    8   -0.31649      0.99967     2.80705    0.00977     3.81649
      C    9    0.34905      0.99966     1.62777    0.02352     2.65095
      O   10   -0.33043      0.99988     3.32523    0.00532     4.33043
      C   11   -0.23058      0.99956     2.22169    0.00933     3.23058
      C   12   -0.10690      0.99959     2.09444    0.01288     3.10690
      C   13   -0.20914      0.99960     2.20102    0.00851     3.20914
      C   14   -0.00815      0.99958     1.99507    0.01350     3.00815
      O   15   -0.30010      0.99989     3.29207    0.00814     4.30010
      C   16   -0.00704      0.99959     1.99644    0.01101     3.00704
      C   17   -0.20935      0.99960     2.20076    0.00899     3.20935
      H   18    0.10437      0.00000     0.39406    0.00157     0.39563
      H   19    0.09904      0.00000     0.39959    0.00137     0.40096
      H   20    0.10751      0.00000     0.38906    0.00343     0.39249
      H   21    0.11385      0.00000     0.38020    0.00595     0.38615
      H   22    0.09784      0.00000     0.40121    0.00095     0.40216
      H   23    0.10458      0.00000     0.39361    0.00182     0.39542
      H   24    0.10684      0.00000     0.39167    0.00149     0.39316
      H   25    0.19290      0.00000     0.30497    0.00213     0.30710
      H   26    0.10779      0.00000     0.39002    0.00219     0.39221
      H   27    0.11195      0.00000     0.38696    0.00108     0.38805
      H   28    0.09647      0.00000     0.40123    0.00231     0.40353
      H   29    0.10063      0.00000     0.39790    0.00146     0.39937
      H   30    0.10754      0.00000     0.39005    0.00241     0.39246
      H   31    0.09136      0.00000     0.40756    0.00108     0.40864
      H   32    0.07551      0.00000     0.42314    0.00135     0.42449
      H   33    0.07338      0.00000     0.42526    0.00136     0.42662
      H   34    0.08795      0.00000     0.41107    0.00098     0.41205
      H   35    0.09721      0.00000     0.40193    0.00086     0.40279
      H   36    0.11486      0.00000     0.38400    0.00114     0.38514
 =======================================================================
   * Total *    0.00000     16.99378    46.77537    0.23085    64.00000

 Normal termination of Gaussian 16 at Fri Dec 11 14:44:58 2020.
