 Gaussian 16, Revision A.03,

 -----------------------------------------------------------
 # opt freq B3LYP/6-31G(d) empiricaldispersion=gd3bj scf=xqc
 -----------------------------------------------------------

 ------------------------------
 CID_44563029_JID_8874_neutraal
 ------------------------------
 Symbolic Z-matrix:
 Charge =  0 Multiplicity = 1

 SCF Done:  E(RB3LYP) =  -751.176608113     A.U. after   14 cycles
 SCF Done:  E(RB3LYP) =  -751.179819392     A.U. after   12 cycles
 SCF Done:  E(RB3LYP) =  -751.180140668     A.U. after   12 cycles
 SCF Done:  E(RB3LYP) =  -751.180331618     A.U. after   12 cycles
 SCF Done:  E(RB3LYP) =  -751.180396663     A.U. after   10 cycles
 SCF Done:  E(RB3LYP) =  -751.180452188     A.U. after   11 cycles
 SCF Done:  E(RB3LYP) =  -751.180479814     A.U. after   11 cycles
 SCF Done:  E(RB3LYP) =  -751.180559622     A.U. after   11 cycles
 SCF Done:  E(RB3LYP) =  -751.180746034     A.U. after   14 cycles
 SCF Done:  E(RB3LYP) =  -751.180793583     A.U. after   12 cycles
 SCF Done:  E(RB3LYP) =  -751.180903208     A.U. after   12 cycles
 SCF Done:  E(RB3LYP) =  -751.180902962     A.U. after   10 cycles
 SCF Done:  E(RB3LYP) =  -751.180905496     A.U. after   10 cycles
 SCF Done:  E(RB3LYP) =  -751.180905213     A.U. after    9 cycles
 SCF Done:  E(RB3LYP) =  -751.180906119     A.U. after    9 cycles
 Optimization completed.
    -- Stationary point found.
 Normal termination of Gaussian 16 at Fri Dec 11 22:21:28 2020.

 --------------------------------------------------------------------
 #N Geom=AllCheck Guess=TCheck SCRF=Check GenChk RB3LYP/6-31G(d) Freq
 --------------------------------------------------------------------

 Structure from the checkpoint file:  "JID_8874.chk"
 ------------------------------
 CID_44563029_JID_8874_neutraal
 ------------------------------
 Charge =  0 Multiplicity = 1

 SCF Done:  E(RB3LYP) =  -751.180906119     A.U. after    1 cycles

  Exact polarizability: 226.303  -9.576 151.025 -14.038   7.918 139.161
 Approx polarizability: 314.792  -9.366 225.852 -29.931  15.791 243.110

                      1                      2                      3
                      A                      A                      A
 Frequencies --     15.8883                31.5068                38.5518
 Red. masses --      3.9886                 1.1845                 2.3579
 Frc consts  --      0.0006                 0.0007                 0.0021
 IR Inten    --      0.0803                 0.2111                 0.1272

                      4                      5                      6
                      A                      A                      A
 Frequencies --     53.4189                60.4935                70.7032
 Red. masses --      3.1069                 3.0692                 4.2272
 Frc consts  --      0.0052                 0.0066                 0.0125
 IR Inten    --      0.0488                 0.1742                 0.1271

                      7                      8                      9
                      A                      A                      A
 Frequencies --     94.9676               134.6720               192.0527
 Red. masses --      3.8668                 3.8711                 4.0181
 Frc consts  --      0.0205                 0.0414                 0.0873
 IR Inten    --      0.4033                 0.2261                 0.1436

                     10                     11                     12
                      A                      A                      A
 Frequencies --    237.0753               247.0905               252.4950
 Red. masses --      1.3369                 3.1773                 1.2185
 Frc consts  --      0.0443                 0.1143                 0.0458
 IR Inten    --      0.2112                 0.5623                 0.2845

                     13                     14                     15
                      A                      A                      A
 Frequencies --    280.9640               314.6912               327.0631
 Red. masses --      2.4363                 3.0903                 3.7135
 Frc consts  --      0.1133                 0.1803                 0.2340
 IR Inten    --      2.0115                 3.3946                 0.6227

                     16                     17                     18
                      A                      A                      A
 Frequencies --    348.9591               377.0087               382.8144
 Red. masses --      3.1401                 2.7931                 2.5500
 Frc consts  --      0.2253                 0.2339                 0.2202
 IR Inten    --      0.2076                 2.2529                11.2210

                     19                     20                     21
                      A                      A                      A
 Frequencies --    424.0710               438.8871               456.2054
 Red. masses --      3.1911                 2.5289                 3.4118
 Frc consts  --      0.3381                 0.2870                 0.4184
 IR Inten    --      0.1741                 1.3208                 2.7292

                     22                     23                     24
                      A                      A                      A
 Frequencies --    469.4268               515.9257               520.4536
 Red. masses --      4.1154                 2.7281                 3.5347
 Frc consts  --      0.5343                 0.4278                 0.5641
 IR Inten    --      4.3437                 1.5817                 1.5900

                     25                     26                     27
                      A                      A                      A
 Frequencies --    551.7507               619.2813               635.1651
 Red. masses --      5.1760                 4.7797                 5.3163
 Frc consts  --      0.9284                 1.0800                 1.2637
 IR Inten    --      1.3672                 0.7340                 2.2731

                     28                     29                     30
                      A                      A                      A
 Frequencies --    661.7810               708.6126               727.2203
 Red. masses --      6.7073                 3.5764                 4.4662
 Frc consts  --      1.7307                 1.0581                 1.3916
 IR Inten    --      0.5408                 0.4360                 0.2583

                     31                     32                     33
                      A                      A                      A
 Frequencies --    753.8021               792.8956               811.7730
 Red. masses --      1.9971                 2.3687                 3.4838
 Frc consts  --      0.6686                 0.8774                 1.3526
 IR Inten    --     22.3751                23.5917                 7.4853

                     34                     35                     36
                      A                      A                      A
 Frequencies --    827.9241               832.8923               851.4416
 Red. masses --      1.4461                 1.3198                 2.9681
 Frc consts  --      0.5840                 0.5394                 1.2678
 IR Inten    --     38.2833                14.0207                 6.0846

                     37                     38                     39
                      A                      A                      A
 Frequencies --    864.7014               895.5248               905.6512
 Red. masses --      3.4237                 2.0061                 4.9592
 Frc consts  --      1.5083                 0.9479                 2.3965
 IR Inten    --     14.0737                13.8605                15.5143

                     40                     41                     42
                      A                      A                      A
 Frequencies --    944.9576               948.6513               950.3306
 Red. masses --      1.2558                 1.3692                 1.3347
 Frc consts  --      0.6607                 0.7260                 0.7102
 IR Inten    --      0.9728                 3.1319                 1.2417

                     43                     44                     45
                      A                      A                      A
 Frequencies --    980.4374               992.9309              1019.4445
 Red. masses --      1.2496                 1.8276                 1.4029
 Frc consts  --      0.7077                 1.0616                 0.8590
 IR Inten    --      0.0533                 4.7002                 0.1693

                     46                     47                     48
                      A                      A                      A
 Frequencies --   1039.4939              1063.3854              1073.2645
 Red. masses --      2.6718                 2.3119                 2.0212
 Frc consts  --      1.7010                 1.5403                 1.3717
 IR Inten    --      2.8633                34.5861                 5.3126

                     49                     50                     51
                      A                      A                      A
 Frequencies --   1075.9134              1084.1354              1133.4765
 Red. masses --      1.4900                 1.5330                 1.8085
 Frc consts  --      1.0162                 1.0616                 1.3690
 IR Inten    --     14.6887                10.4686                16.8123

                     52                     53                     54
                      A                      A                      A
 Frequencies --   1135.7956              1147.0817              1185.2379
 Red. masses --      1.2684                 1.2508                 1.2897
 Frc consts  --      0.9641                 0.9697                 1.0674
 IR Inten    --      9.2549                 8.5467                 3.5359

                     55                     56                     57
                      A                      A                      A
 Frequencies --   1191.9659              1205.1253              1220.4531
 Red. masses --      1.1450                 1.2522                 2.2456
 Frc consts  --      0.9585                 1.0715                 1.9707
 IR Inten    --      0.3384                14.4955                19.7245

                     58                     59                     60
                      A                      A                      A
 Frequencies --   1222.2478              1245.1658              1249.6593
 Red. masses --      1.9681                 2.6136                 3.1704
 Frc consts  --      1.7323                 2.3875                 2.9171
 IR Inten    --     12.3439                13.9271                25.9424

                     61                     62                     63
                      A                      A                      A
 Frequencies --   1289.3234              1299.2393              1320.6420
 Red. masses --      4.8137                 1.6669                 2.4421
 Frc consts  --      4.7147                 1.6578                 2.5095
 IR Inten    --    363.8818                29.7337                18.6307

                     64                     65                     66
                      A                      A                      A
 Frequencies --   1329.5436              1345.6258              1356.3889
 Red. masses --      2.2474                 1.3912                 5.8924
 Frc consts  --      2.3406                 1.4842                 6.3872
 IR Inten    --      4.6759                 0.0534                19.9771

                     67                     68                     69
                      A                      A                      A
 Frequencies --   1371.4961              1418.8371              1443.8773
 Red. masses --      2.6408                 1.4679                 1.2464
 Frc consts  --      2.9267                 1.7410                 1.5310
 IR Inten    --      3.9213                33.7907                 0.8096

                     70                     71                     72
                      A                      A                      A
 Frequencies --   1464.7151              1467.5711              1494.9270
 Red. masses --      2.5562                 1.2076                 1.2878
 Frc consts  --      3.2310                 1.5323                 1.6956
 IR Inten    --      1.5033                 1.8260                 5.6070

                     73                     74                     75
                      A                      A                      A
 Frequencies --   1502.8771              1510.4143              1515.0217
 Red. masses --      1.9635                 1.0532                 1.0981
 Frc consts  --      2.6130                 1.4156                 1.4850
 IR Inten    --     34.8295                 4.8305                 0.4345

                     76                     77                     78
                      A                      A                      A
 Frequencies --   1518.2685              1526.5367              1527.1150
 Red. masses --      1.0477                 1.1094                 1.0941
 Frc consts  --      1.4229                 1.5232                 1.5033
 IR Inten    --      4.6384                 2.0246                 9.1243

                     79                     80                     81
                      A                      A                      A
 Frequencies --   1528.8883              1538.4916              1541.2449
 Red. masses --      1.0795                 1.9668                 1.1675
 Frc consts  --      1.4867                 2.7428                 1.6340
 IR Inten    --     11.5910                83.8394                42.6785

                     82                     83                     84
                      A                      A                      A
 Frequencies --   1563.0683              1642.3348              1646.4541
 Red. masses --      2.5751                 6.1039                 6.4251
 Frc consts  --      3.7068                 9.7003                10.2619
 IR Inten    --    131.4875                11.3206                 7.3720

                     85                     86                     87
                      A                      A                      A
 Frequencies --   1663.1480              1678.9611              2921.2292
 Red. masses --      6.3161                 6.0172                 1.0684
 Frc consts  --     10.2935                 9.9937                 5.3719
 IR Inten    --     23.5129                27.2491                37.8301

                     88                     89                     90
                      A                      A                      A
 Frequencies --   2922.5815              2937.0281              3036.5401
 Red. masses --      1.0644                 1.0656                 1.0411
 Frc consts  --      5.3567                 5.4159                 5.6561
 IR Inten    --     46.4410               244.0882                49.1222

                     91                     92                     93
                      A                      A                      A
 Frequencies --   3079.7527              3085.4610              3088.4126
 Red. masses --      1.0699                 1.0725                 1.0823
 Frc consts  --      5.9789                 6.0158                 6.0825
 IR Inten    --     20.8807                29.8783                13.8961

                     94                     95                     96
                      A                      A                      A
 Frequencies --   3092.3096              3119.5745              3124.5629
 Red. masses --      1.0950                 1.1024                 1.1038
 Frc consts  --      6.1690                 6.3212                 6.3495
 IR Inten    --     23.6233                18.1634                22.1624

                     97                     98                     99
                      A                      A                      A
 Frequencies --   3131.8300              3176.6418              3178.3712
 Red. masses --      1.1033                 1.0893                 1.0886
 Frc consts  --      6.3757                 6.4763                 6.4793
 IR Inten    --     26.4155                20.5592                23.0259

                    100                    101                    102
                      A                      A                      A
 Frequencies --   3180.6947              3193.3518              3207.5799
 Red. masses --      1.0870                 1.0886                 1.0934
 Frc consts  --      6.4793                 6.5407                 6.6283
 IR Inten    --      5.7407                 9.7642                30.1056

                    103                    104                    105
                      A                      A                      A
 Frequencies --   3212.1773              3218.1422              3229.1123
 Red. masses --      1.0930                 1.0961                 1.0916
 Frc consts  --      6.6447                 6.6883                 6.7065
 IR Inten    --      9.0871                10.7095                 6.3374

 - Thermochemistry -
 -------------------
 Temperature   298.150 Kelvin.  Pressure   1.00000 Atm.
 Atom     1 has atomic number  6 and mass  12.00000

 Molecular mass:   241.14666 amu.
 Principal axes and moments of inertia in atomic units:
                           1         2         3
     Eigenvalues --  2637.123746054.115417223.81255
           X            0.99999   0.00487   0.00065
           Y           -0.00487   0.99994   0.01015
           Z           -0.00060  -0.01015   0.99995
 This molecule is an asymmetric top.
 Rotational symmetry number  1.
 Warning -- assumption of classical behavior for rotation
           may cause significant error
 Rotational temperatures (Kelvin)      0.03284     0.01431     0.01199
 Rotational constants (GHZ):           0.68436     0.29810     0.24983
 Zero-point vibrational energy     828266.4 (Joules/Mol)
                                  197.96041 (Kcal/Mol)
 Warning -- explicit consideration of  26 degrees of freedom as
           vibrations may cause significant error
 Vibrational temperatures:     22.86    45.33    55.47    76.86    87.04
          (Kelvin)            101.73   136.64   193.76   276.32   341.10
                              355.51   363.28   404.24   452.77   470.57
                              502.07   542.43   550.78   610.14   631.46
                              656.38   675.40   742.30   748.82   793.85
                              891.01   913.86   952.16  1019.54  1046.31
                             1084.55  1140.80  1167.96  1191.20  1198.35
                             1225.03  1244.11  1288.46  1303.03  1359.58
                             1364.90  1367.31  1410.63  1428.61  1466.75
                             1495.60  1529.97  1544.19  1548.00  1559.83
                             1630.82  1634.16  1650.39  1705.29  1714.97
                             1733.91  1755.96  1758.54  1791.52  1797.98
                             1855.05  1869.32  1900.11  1912.92  1936.06
                             1951.54  1973.28  2041.39  2077.42  2107.40
                             2111.51  2150.87  2162.30  2173.15  2179.78
                             2184.45  2196.35  2197.18  2199.73  2213.55
                             2217.51  2248.91  2362.95  2368.88  2392.90
                             2415.65  4203.00  4204.94  4225.73  4368.90
                             4431.08  4439.29  4443.54  4449.14  4488.37
                             4495.55  4506.00  4570.48  4572.97  4576.31
                             4594.52  4614.99  4621.61  4630.19  4645.97

 Zero-point correction=                           0.315470 (Hartree/Particle)
 Thermal correction to Energy=                    0.332747
 Thermal correction to Enthalpy=                  0.333691
 Thermal correction to Gibbs Free Energy=         0.267959
 Sum of electronic and zero-point Energies=           -750.865436
 Sum of electronic and thermal Energies=              -750.848159
 Sum of electronic and thermal Enthalpies=            -750.847215
 Sum of electronic and thermal Free Energies=         -750.912947

                     E (Thermal)             CV                S
                      KCal/Mol        Cal/Mol-Kelvin    Cal/Mol-Kelvin
 Total                  208.802             65.595            138.343
 Electronic               0.000              0.000              0.000
 Translational            0.889              2.981             42.342
 Rotational               0.889              2.981             33.111
 Vibrational            207.024             59.633             62.891
 Vibration     1          0.593              1.986              7.091
 Vibration     2          0.594              1.983              5.732
 Vibration     3          0.594              1.981              5.332
 Vibration     4          0.596              1.976              4.687
 Vibration     5          0.597              1.973              4.441
 Vibration     6          0.598              1.968              4.134
 Vibration     7          0.603              1.953              3.555
 Vibration     8          0.613              1.919              2.878
 Vibration     9          0.634              1.851              2.208
 Vibration    10          0.656              1.784              1.825
 Vibration    11          0.661              1.768              1.751
 Vibration    12          0.664              1.759              1.713
 Vibration    13          0.681              1.709              1.528
 Vibration    14          0.702              1.646              1.338
 Vibration    15          0.711              1.621              1.275
 Vibration    16          0.726              1.577              1.171
 Vibration    17          0.748              1.519              1.051
 Vibration    18          0.752              1.507              1.028
 Vibration    19          0.786              1.418              0.878
 Vibration    20          0.799              1.385              0.830
 Vibration    21          0.814              1.347              0.777
 Vibration    22          0.827              1.318              0.739
 Vibration    23          0.871              1.215              0.619
 Vibration    24          0.875              1.205              0.609
 Vibration    25          0.907              1.136              0.541
 Vibration    26          0.979              0.991              0.418

                           ! Non-Optimized Parameters !
 Normal termination of Gaussian 16 at Fri Dec 11 22:38:52 2020.

 ----------------------------------------------------------------------
 # B3LYP/6-311++G(d,p) empiricaldispersion=gd3bj scf=xqc pop=npa geom=c
 heck
 ----------------------------------------------------------------------

 --------------------------------------
 CID_44563029_JID_8874_Energie_neutraal
 --------------------------------------
 Structure from the checkpoint file:  "JID_8874.chk"
 Charge =  0 Multiplicity = 1

 SCF Done:  E(RB3LYP) =  -751.376932720     A.U. after   15 cycles
 Normal termination of Gaussian 16 at Fri Dec 11 22:45:25 2020.

 ----------------------------------------------------------------------
 # B3LYP/6-311++G(d,p) empiricaldispersion=gd3bj scf=xqc pop=npa geom=c
 heck
 ----------------------------------------------------------------------

 ------------------------------------
 CID_44563029_JID_8874_Energie_kation
 ------------------------------------
 Structure from the checkpoint file:  "JID_8874.chk"
 Charge =  1 Multiplicity = 2

 SCF Done:  E(UB3LYP) =  -751.109724765     A.U. after   23 cycles
 Normal termination of Gaussian 16 at Fri Dec 11 22:58:58 2020.
 Gaussian 16:  ES64L-G16RevA.03 25-Dec-2016

 ----------------------------------------------------------------------
 # B3LYP/6-311++G(d,p) empiricaldispersion=gd3bj scf=xqc pop=npa geom=c
 heck
 ----------------------------------------------------------------------

 -----------------------------------
 CID_44563029_JID_8874_Energie_anion
 -----------------------------------
 Structure from the checkpoint file:  "JID_8874.chk"
 Charge = -1 Multiplicity = 2

                         Standard orientation:
 ---------------------------------------------------------------------
 Center     Atomic      Atomic             Coordinates (Angstroms)
 Number     Number       Type             X           Y           Z
 ---------------------------------------------------------------------
      1          6           0       -4.875381   -0.536273   -1.013780
      2          6           0       -3.491435   -0.567655   -0.411376
      3          6           0       -3.298340   -0.418301    0.967662
      4          6           0       -2.027458   -0.474952    1.532992
      5          6           0       -0.916435   -0.680201    0.715055
      6          6           0       -1.077841   -0.831550   -0.661647
      7          6           0       -2.358970   -0.771711   -1.207425
      8          8           0        0.304880   -0.718349    1.356627
      9          6           0        1.462320   -0.845363    0.608114
     10          6           0        1.912329   -2.115009    0.255447
     11          6           0        3.121882   -2.252432   -0.427046
     12          6           0        3.874045   -1.121395   -0.743723
     13          6           0        3.411239    0.144099   -0.378297
     14          6           0        2.200045    0.305879    0.298896
     15          6           0        1.667635    1.664349    0.687206
     16          7           0        0.471967    2.007446   -0.076047
     17          6           0       -0.301433    3.067204    0.542906
     18          6           0        0.756011    2.275431   -1.473493
     19          1           0       -5.333705   -1.534454   -1.025154
     20          1           0       -5.544284    0.119751   -0.446125
     21          1           0       -4.852950   -0.178848   -2.048929
     22          1           0       -4.157832   -0.252640    1.613160
     23          1           0       -1.877358   -0.353522    2.601049
     24          1           0       -0.213750   -0.973129   -1.299723
     25          1           0       -2.476622   -0.881799   -2.283131
     26          1           0        1.311752   -2.978106    0.524343
     27          1           0        3.475181   -3.241411   -0.704230
     28          1           0        4.817659   -1.222521   -1.271747
     29          1           0        3.995308    1.028222   -0.622011
     30          1           0        1.384125    1.645184    1.744724
     31          1           0        2.469294    2.421338    0.575665
     32          1           0        0.235634    4.035594    0.594217
     33          1           0       -1.224024    3.220775   -0.026531
     34          1           0       -0.578079    2.771481    1.560237
     35          1           0        1.378565    3.180648   -1.624800
     36          1           0        1.283815    1.424381   -1.913841
     37          1           0       -0.184806    2.411006   -2.016803
 ---------------------------------------------------------------------

 SCF Done:  E(UB3LYP) =  -751.362405880     A.U. after   33 cycles
 SCF Done:  E(UB3LYP) =  -751.362405880     a.u. after    1 cycles

 The electronic state is 2-A.
 Alpha  occ. eigenvalues --  -19.06832 -14.21343 -10.14458 -10.14211 -10.10884
 Alpha  occ. eigenvalues --  -10.09484 -10.09476 -10.09048 -10.09002 -10.08936
 Alpha  occ. eigenvalues --  -10.08846 -10.08606 -10.08490 -10.08120 -10.07954
 Alpha  occ. eigenvalues --  -10.07841 -10.07755 -10.07617  -0.98884  -0.83605
 Alpha  occ. eigenvalues --   -0.77596  -0.76144  -0.68923  -0.68200  -0.65910
 Alpha  occ. eigenvalues --   -0.65177  -0.61497  -0.61005  -0.59083  -0.53852
 Alpha  occ. eigenvalues --   -0.52603  -0.51789  -0.50019  -0.47897  -0.45359
 Alpha  occ. eigenvalues --   -0.41287  -0.40427  -0.39451  -0.38460  -0.37759
 Alpha  occ. eigenvalues --   -0.36826  -0.36562  -0.35146  -0.34619  -0.33183
 Alpha  occ. eigenvalues --   -0.32997  -0.32449  -0.31674  -0.30840  -0.30164
 Alpha  occ. eigenvalues --   -0.29614  -0.28975  -0.28195  -0.27702  -0.26863
 Alpha  occ. eigenvalues --   -0.26786  -0.26447  -0.25821  -0.24487  -0.22880
 Alpha  occ. eigenvalues --   -0.17033  -0.16367  -0.15937  -0.13399  -0.12041
 Alpha  occ. eigenvalues --    0.04116
 Alpha virt. eigenvalues --    0.05562   0.06389   0.06581   0.07088   0.07150
 Alpha virt. eigenvalues --    0.07518   0.07959   0.08118   0.08438   0.08967
 Alpha virt. eigenvalues --    0.09137   0.09983   0.10328   0.10413   0.10811

  Beta  occ. eigenvalues --  -19.06828 -14.21338 -10.14456 -10.14213 -10.10874
  Beta  occ. eigenvalues --  -10.09475 -10.09467 -10.09034 -10.08978 -10.08927
  Beta  occ. eigenvalues --  -10.08828 -10.08588 -10.08490 -10.08105 -10.07935
  Beta  occ. eigenvalues --  -10.07832 -10.07750 -10.07590  -0.98876  -0.83592
  Beta  occ. eigenvalues --   -0.77577  -0.76124  -0.68900  -0.68179  -0.65884
  Beta  occ. eigenvalues --   -0.65148  -0.61463  -0.60976  -0.59045  -0.53821
  Beta  occ. eigenvalues --   -0.52566  -0.51751  -0.49984  -0.47864  -0.45329
  Beta  occ. eigenvalues --   -0.41245  -0.40406  -0.39427  -0.38437  -0.37726
  Beta  occ. eigenvalues --   -0.36790  -0.36540  -0.35118  -0.34591  -0.33163
  Beta  occ. eigenvalues --   -0.32967  -0.32425  -0.31640  -0.30817  -0.30142
  Beta  occ. eigenvalues --   -0.29584  -0.28948  -0.28168  -0.27677  -0.26834
  Beta  occ. eigenvalues --   -0.26761  -0.26419  -0.25793  -0.24468  -0.22855
  Beta  occ. eigenvalues --   -0.16999  -0.16325  -0.15914  -0.13373  -0.12017
  Beta virt. eigenvalues --    0.06000   0.06591   0.06633   0.06889   0.07151
  Beta virt. eigenvalues --    0.07542   0.08030   0.08165   0.08360   0.08721
  Beta virt. eigenvalues --    0.09201   0.09483   0.10211   0.10552   0.10571

 Mulliken charges and spin densities:
               1          2
     1  C    1.973819  -2.611728
     2  C   -0.214923   0.670480
     3  C   -0.732536   0.442071
     4  C   -0.493128   0.384232
     5  C   -0.347057   0.020706
     6  C   -0.162769   0.039409
     7  C    0.038988  -0.428036
     8  O   -0.044631  -0.006492
     9  C   -1.577405   0.882627
    10  C   -0.025321   0.095164
    11  C    0.943699  -1.237679
    12  C    0.616978  -1.081246
    13  C    0.096290  -0.026149
    14  C   -0.138396   1.492858
    15  C    1.101980  -2.031948
    16  N    0.104051   0.137807
    17  C    0.283064  -0.624027
    18  C    0.086835  -0.559576
    19  H    0.073855   0.080357
    20  H   -0.162567   0.302723
    21  H   -0.255959   0.406822
    22  H   -0.310019   0.475319
    23  H    0.009023   0.150134
    24  H    0.223137  -0.043720
    25  H   -0.359223   0.537486
    26  H   -0.005812   0.183587
    27  H   -0.413798   0.594051
    28  H   -0.783702   0.968493
    29  H   -0.367841   0.541015
    30  H    0.146192   0.044778
    31  H   -0.124536   0.245901
    32  H    0.021846   0.083217
    33  H    0.062113   0.068035
    34  H   -0.046991   0.181088
    35  H   -0.148476   0.267956
    36  H    0.010939   0.126501
    37  H   -0.077717   0.227784
 Sum of Mulliken charges =  -1.00000   1.00000

 Dipole moment (field-independent basis, Debye):
    X=             -1.7352    Y=             -0.0724    Z=              3.6065  Tot=              4.0029
 Quadrupole moment (field-independent basis, Debye-Ang):
   XX=           -209.4178   YY=           -155.8819   ZZ=           -146.0561
   XY=              6.9269   XZ=              5.4051   YZ=              0.7121

 Summary of Natural Population Analysis:

                                       Natural Population
                Natural  -----------------------------------------------
    Atom  No    Charge         Core      Valence    Rydberg      Total
 -----------------------------------------------------------------------
      C    1   -0.28927      0.99964     2.28469    0.00494     3.28927
      C    2   -0.03368      0.99951     2.02419    0.00998     3.03368
      C    3   -0.09406      0.99952     2.08515    0.00938     3.09406
      C    4   -0.12003      0.99952     2.11045    0.01007     3.12003
      C    5    0.16238      0.99934     1.82461    0.01367     2.83762
      C    6   -0.12811      0.99950     2.11940    0.00921     3.12811
      C    7   -0.08972      0.99952     2.08031    0.00989     3.08972
      O    8   -0.27389      0.99984     3.26466    0.00939     4.27389
      C    9    0.15421      0.99930     1.83241    0.01409     2.84579
      C   10   -0.11475      0.99950     2.10613    0.00912     3.11475
      C   11   -0.09665      0.99957     2.08692    0.01016     3.09665
      C   12   -0.10188      0.99956     2.09186    0.01046     3.10188
      C   13   -0.09228      0.99951     2.08245    0.01032     3.09228
      C   14   -0.03609      0.99944     2.02590    0.01075     3.03609
      C   15   -0.08953      0.99957     2.07854    0.01141     3.08953
      N   16   -0.28196      0.99973     2.76906    0.01317     3.78196
      C   17   -0.17382      0.99964     2.16571    0.00846     3.17382
      C   18   -0.17727      0.99964     2.16889    0.00874     3.17727
      H   19    0.10103      0.00000     0.39779    0.00119     0.39897
      H   20    0.10188      0.00000     0.39689    0.00123     0.39812
      H   21    0.10344      0.00000     0.39522    0.00134     0.39656
      H   22    0.09870      0.00000     0.40038    0.00092     0.40130
      H   23    0.10358      0.00000     0.39497    0.00144     0.39642
      H   24    0.10943      0.00000     0.38856    0.00201     0.39057
      H   25    0.09981      0.00000     0.39917    0.00102     0.40019
      H   26    0.10671      0.00000     0.39201    0.00128     0.39329
      H   27    0.10340      0.00000     0.39527    0.00133     0.39660
      H   28    0.10494      0.00000     0.39292    0.00214     0.39506
      H   29    0.10385      0.00000     0.39461    0.00154     0.39615
      H   30    0.10447      0.00000     0.39423    0.00130     0.39553
      H   31    0.08571      0.00000     0.41277    0.00152     0.41429
      H   32    0.07838      0.00000     0.42031    0.00131     0.42162
      H   33    0.09833      0.00000     0.40068    0.00099     0.40167
      H   34    0.09569      0.00000     0.40329    0.00102     0.40431
      H   35    0.07989      0.00000     0.41858    0.00152     0.42011
      H   36    0.09913      0.00000     0.39931    0.00156     0.40087
      H   37    0.09799      0.00000     0.40090    0.00110     0.40201
 =======================================================================
   * Total *   -0.00000     17.99185    46.79919    0.20896    65.00000

 Normal termination of Gaussian 16 at Fri Dec 11 23:18:45 2020.
