 Gaussian 16, Revision A.03,

 -----------------------------------------------------------
 # opt freq B3LYP/6-31G(d) empiricaldispersion=gd3bj scf=xqc
 -----------------------------------------------------------

 ------------------------------
 CID_64483318_JID_7083_neutraal
 ------------------------------
 Symbolic Z-matrix:
 Charge =  0 Multiplicity = 1

 SCF Done:  E(RB3LYP) =  -1106.44290336     A.U. after   15 cycles
 SCF Done:  E(RB3LYP) =  -1106.44749175     A.U. after   12 cycles
 SCF Done:  E(RB3LYP) =  -1106.44620907     A.U. after   13 cycles
 SCF Done:  E(RB3LYP) =  -1106.44837181     A.U. after   12 cycles
 SCF Done:  E(RB3LYP) =  -1106.44929987     A.U. after   12 cycles
 SCF Done:  E(RB3LYP) =  -1106.44977443     A.U. after   12 cycles
 SCF Done:  E(RB3LYP) =  -1106.45013737     A.U. after   13 cycles
 SCF Done:  E(RB3LYP) =  -1106.45049947     A.U. after   13 cycles
 SCF Done:  E(RB3LYP) =  -1106.45082169     A.U. after   13 cycles
 SCF Done:  E(RB3LYP) =  -1106.45070189     A.U. after   13 cycles
 SCF Done:  E(RB3LYP) =  -1106.45104953     A.U. after   10 cycles
 SCF Done:  E(RB3LYP) =  -1106.45104953     A.U. after    8 cycles
 SCF Done:  E(RB3LYP) =  -1106.45104954     A.U. after    8 cycles
 SCF Done:  E(RB3LYP) =  -1106.45104955     A.U. after    7 cycles
 Optimization completed.
    -- Stationary point found.
 Normal termination of Gaussian 16 at Fri Dec 11 12:14:43 2020.

 --------------------------------------------------------------------
 #N Geom=AllCheck Guess=TCheck SCRF=Check GenChk RB3LYP/6-31G(d) Freq
 --------------------------------------------------------------------

 Structure from the checkpoint file:  "JID_7083.chk"
 ------------------------------
 CID_64483318_JID_7083_neutraal
 ------------------------------
 Charge =  0 Multiplicity = 1

 SCF Done:  E(RB3LYP) =  -1106.45104955     A.U. after    1 cycles

  Exact polarizability: 170.058  12.469 150.675   6.511   0.243 146.787
 Approx polarizability: 220.097  28.435 227.119  18.271   2.773 262.117

                      1                      2                      3
                      A                      A                      A
 Frequencies --     21.9249                32.3779                36.8394
 Red. masses --      3.6783                 6.6255                 4.7989
 Frc consts  --      0.0010                 0.0041                 0.0038
 IR Inten    --      0.5159                 0.7430                 0.5322

                      4                      5                      6
                      A                      A                      A
 Frequencies --     41.2687                71.6219               108.1633
 Red. masses --      8.3322                 3.3558                 2.1819
 Frc consts  --      0.0084                 0.0101                 0.0150
 IR Inten    --      0.7654                 0.2832                 1.8184

                      7                      8                      9
                      A                      A                      A
 Frequencies --    115.1417               138.9112               155.3015
 Red. masses --      2.0438                 3.0874                 2.1851
 Frc consts  --      0.0160                 0.0351                 0.0311
 IR Inten    --      2.3561                 0.9040                 2.1395

                     10                     11                     12
                      A                      A                      A
 Frequencies --    179.5422               198.6384               217.7082
 Red. masses --      5.6365                 2.4543                 1.5604
 Frc consts  --      0.1071                 0.0571                 0.0436
 IR Inten    --      2.0074                 2.7665                 1.0618

                     13                     14                     15
                      A                      A                      A
 Frequencies --    243.4303               247.2100               263.4436
 Red. masses --      1.4293                 3.0556                 2.8230
 Frc consts  --      0.0499                 0.1100                 0.1154
 IR Inten    --      1.9467                 4.8119                 0.4522

                     16                     17                     18
                      A                      A                      A
 Frequencies --    339.9281               343.2393               384.6772
 Red. masses --      5.2780                 4.7362                 3.1056
 Frc consts  --      0.3593                 0.3288                 0.2708
 IR Inten    --      2.8471                 7.5940                 0.7897

                     19                     20                     21
                      A                      A                      A
 Frequencies --    399.5177               408.5037               510.4132
 Red. masses --      3.8874                 3.1262                 4.0788
 Frc consts  --      0.3656                 0.3074                 0.6261
 IR Inten    --      0.9017                 1.3512                 6.8128

                     22                     23                     24
                      A                      A                      A
 Frequencies --    544.7609               552.6547               582.6118
 Red. masses --      3.8338                 1.4120                 2.2362
 Frc consts  --      0.6703                 0.2541                 0.4472
 IR Inten    --      5.0729                34.2748                98.0998

                     25                     26                     27
                      A                      A                      A
 Frequencies --    610.4005               628.6475               652.5682
 Red. masses --      3.8201                 8.0222                 3.0510
 Frc consts  --      0.8386                 1.8679                 0.7655
 IR Inten    --     10.4707                 5.9514                 1.4436

                     28                     29                     30
                      A                      A                      A
 Frequencies --    666.9995               696.2949               731.3227
 Red. masses --      2.8480                 3.4006                 3.0891
 Frc consts  --      0.7465                 0.9714                 0.9734
 IR Inten    --     16.0959                27.5556                 3.5526

                     31                     32                     33
                      A                      A                      A
 Frequencies --    739.6256               766.5896               791.2152
 Red. masses --      1.4854                 5.0375                 2.0226
 Frc consts  --      0.4788                 1.7442                 0.7460
 IR Inten    --     45.9592                 4.8027                41.8978

                     34                     35                     36
                      A                      A                      A
 Frequencies --    825.6447               831.8939               872.3774
 Red. masses --      3.1359                 1.4076                 2.4870
 Frc consts  --      1.2595                 0.5739                 1.1152
 IR Inten    --      5.1459                18.4954                 1.3095

                     37                     38                     39
                      A                      A                      A
 Frequencies --    890.1465               895.8825               923.2703
 Red. masses --      3.6929                 1.3931                 1.9407
 Frc consts  --      1.7240                 0.6588                 0.9747
 IR Inten    --      0.3989                 1.2095                 7.1384

                     40                     41                     42
                      A                      A                      A
 Frequencies --    948.2870               969.2021               989.5110
 Red. masses --      2.3257                 1.6915                 2.1134
 Frc consts  --      1.2322                 0.9362                 1.2192
 IR Inten    --      1.6029                 3.0847                 6.2728

                     43                     44                     45
                      A                      A                      A
 Frequencies --   1016.9092              1030.8087              1045.7126
 Red. masses --      2.0402                 1.6619                 2.0500
 Frc consts  --      1.2430                 1.0404                 1.3208
 IR Inten    --      3.5309                 5.2407                 9.5299

                     46                     47                     48
                      A                      A                      A
 Frequencies --   1078.9937              1091.9840              1099.4481
 Red. masses --      2.0808                 1.4808                 2.0111
 Frc consts  --      1.4273                 1.0404                 1.4323
 IR Inten    --     12.9914                 6.9474                 7.0439

                     49                     50                     51
                      A                      A                      A
 Frequencies --   1115.8038              1124.3377              1140.3271
 Red. masses --      2.1638                 1.8014                 2.9800
 Frc consts  --      1.5873                 1.3417                 2.2831
 IR Inten    --      6.2568                 2.5838                54.9921

                     52                     53                     54
                      A                      A                      A
 Frequencies --   1162.8305              1172.3826              1181.8515
 Red. masses --      1.7803                 2.4636                 2.5245
 Frc consts  --      1.4184                 1.9951                 2.0775
 IR Inten    --      4.3011                27.4015                 4.4050

                     55                     56                     57
                      A                      A                      A
 Frequencies --   1228.3572              1233.3433              1249.1104
 Red. masses --      1.3274                 2.4113                 1.4223
 Frc consts  --      1.1801                 2.1611                 1.3075
 IR Inten    --      2.8638                13.0724                19.2692

                     58                     59                     60
                      A                      A                      A
 Frequencies --   1286.4214              1289.6393              1304.7303
 Red. masses --      1.4201                 1.3379                 2.0203
 Frc consts  --      1.3846                 1.3110                 2.0263
 IR Inten    --     58.0161                28.8327                65.3181

                     61                     62                     63
                      A                      A                      A
 Frequencies --   1315.4393              1324.3676              1347.9419
 Red. masses --      1.2536                 1.2003                 1.1863
 Frc consts  --      1.2781                 1.2404                 1.2699
 IR Inten    --      6.7762                 1.7889                 5.2013

                     64                     65                     66
                      A                      A                      A
 Frequencies --   1354.7051              1363.0585              1383.6724
 Red. masses --      1.6446                 1.4665                 1.5353
 Frc consts  --      1.7783                 1.6053                 1.7318
 IR Inten    --      2.1773                23.2262                79.9297

                     67                     68                     69
                      A                      A                      A
 Frequencies --   1391.1582              1408.7850              1421.1645
 Red. masses --      1.4858                 1.5078                 1.5038
 Frc consts  --      1.6942                 1.7632                 1.7895
 IR Inten    --     18.3420                52.4639                65.4707

                     70                     71                     72
                      A                      A                      A
 Frequencies --   1441.3943              1448.1887              1458.0073
 Red. masses --      1.4093                 1.2422                 1.2995
 Frc consts  --      1.7251                 1.5350                 1.6277
 IR Inten    --      7.2055                 4.4343                 9.3155

                     73                     74                     75
                      A                      A                      A
 Frequencies --   1488.9283              1497.3246              1519.4229
 Red. masses --      1.6632                 4.8470                 1.1023
 Frc consts  --      2.1724                 6.4025                 1.4994
 IR Inten    --     71.7255                 5.8409                 0.9113

                     76                     77                     78
                      A                      A                      A
 Frequencies --   1525.4907              1526.7828              1535.1044
 Red. masses --      1.0500                 1.0412                 1.0888
 Frc consts  --      1.4397                 1.4300                 1.5117
 IR Inten    --      8.5536                 4.7325                 5.9545

                     79                     80                     81
                      A                      A                      A
 Frequencies --   1541.8384              1554.6249              1562.0853
 Red. masses --      1.0506                 1.0861                 1.0868
 Frc consts  --      1.4715                 1.5466                 1.5625
 IR Inten    --      5.9550                 0.3424                 2.3983

                     82                     83                     84
                      A                      A                      A
 Frequencies --   1570.8470              1780.1934              2964.6228
 Red. masses --      5.8524                 8.2842                 1.0741
 Frc consts  --      8.5085                15.4680                 5.5618
 IR Inten    --     21.9585               349.8862                84.6639

                     85                     86                     87
                      A                      A                      A
 Frequencies --   3008.0307              3035.4616              3036.4753
 Red. masses --      1.0817                 1.0700                 1.0618
 Frc consts  --      5.7666                 5.8086                 5.7679
 IR Inten    --     22.5542                46.5569                17.9644

                     88                     89                     90
                      A                      A                      A
 Frequencies --   3058.5040              3059.3262              3071.4999
 Red. masses --      1.0454                 1.0393                 1.0870
 Frc consts  --      5.7616                 5.7311                 6.0420
 IR Inten    --     17.6245                22.5311                69.9658

                     91                     92                     93
                      A                      A                      A
 Frequencies --   3076.8971              3079.5901              3090.6620
 Red. masses --      1.0932                 1.0864                 1.0909
 Frc consts  --      6.0976                 6.0705                 6.1397
 IR Inten    --      7.6684                25.5933                24.1073

                     94                     95                     96
                      A                      A                      A
 Frequencies --   3104.5428              3119.5117              3121.7656
 Red. masses --      1.0949                 1.0988                 1.1022
 Frc consts  --      6.2178                 6.3000                 6.3285
 IR Inten    --     26.9538                41.7058                34.5624

                     97                     98                     99
                      A                      A                      A
 Frequencies --   3152.8258              3187.8018              3234.9320
 Red. masses --      1.1004                 1.0976                 1.0915
 Frc consts  --      6.4446                 6.5717                 6.7301
 IR Inten    --     17.9759                 4.1860                10.3197

                    100                    101                    102
                      A                      A                      A
 Frequencies --   3282.3350              3548.1462              3578.7889
 Red. masses --      1.0980                 1.0760                 1.0757
 Frc consts  --      6.9697                 7.9809                 8.1171
 IR Inten    --      1.5082                 0.7675                20.8265

 - Thermochemistry -
 -------------------
 Temperature   298.150 Kelvin.  Pressure   1.00000 Atm.
 Atom     1 has atomic number  6 and mass  12.00000

 Molecular mass:   253.12488 amu.
 Principal axes and moments of inertia in atomic units:
                           1         2         3
     Eigenvalues --  2887.009896339.794567078.44370
           X            0.99962  -0.02623   0.00839
           Y            0.02654   0.99884  -0.04010
           Z           -0.00733   0.04031   0.99916
 This molecule is an asymmetric top.
 Rotational symmetry number  1.
 Warning -- assumption of classical behavior for rotation
           may cause significant error
 Rotational temperatures (Kelvin)      0.03000     0.01366     0.01224
 Rotational constants (GHZ):           0.62512     0.28467     0.25496
 Zero-point vibrational energy     807437.1 (Joules/Mol)
                                  192.98210 (Kcal/Mol)
 Warning -- explicit consideration of  25 degrees of freedom as
           vibrations may cause significant error
 Vibrational temperatures:     31.54    46.58    53.00    59.38   103.05
          (Kelvin)            155.62   165.66   199.86   223.44   258.32
                              285.80   313.23   350.24   355.68   379.04
                              489.08   493.84   553.46   574.82   587.75
                              734.37   783.79   795.15   838.25   878.23
                              904.48   938.90   959.66  1001.81  1052.21
                             1064.16  1102.95  1138.38  1187.92  1196.91
                             1255.16  1280.72  1288.98  1328.38  1364.37
                             1394.47  1423.69  1463.11  1483.10  1504.55
                             1552.43  1571.12  1581.86  1605.39  1617.67
                             1640.68  1673.05  1686.80  1700.42  1767.33
                             1774.51  1797.19  1850.87  1855.50  1877.22
                             1892.62  1905.47  1939.39  1949.12  1961.14
                             1990.80  2001.57  2026.93  2044.74  2073.84
                             2083.62  2097.75  2142.24  2154.32  2186.11
                             2194.84  2196.70  2208.67  2218.36  2236.76
                             2247.49  2260.10  2561.30  4265.43  4327.89
                             4367.35  4368.81  4400.51  4401.69  4419.20
                             4426.97  4430.84  4446.77  4466.74  4488.28
                             4491.52  4536.21  4586.54  4654.35  4722.55
                             5104.99  5149.08

 Zero-point correction=                           0.307537 (Hartree/Particle)
 Thermal correction to Energy=                    0.324998
 Thermal correction to Enthalpy=                  0.325942
 Thermal correction to Gibbs Free Energy=         0.259891
 Sum of electronic and zero-point Energies=          -1106.143513
 Sum of electronic and thermal Energies=             -1106.126052
 Sum of electronic and thermal Enthalpies=           -1106.125108
 Sum of electronic and thermal Free Energies=        -1106.191159

                     E (Thermal)             CV                S
                      KCal/Mol        Cal/Mol-Kelvin    Cal/Mol-Kelvin
 Total                  203.939             64.936            139.017
 Electronic               0.000              0.000              0.000
 Translational            0.889              2.981             42.486
 Rotational               0.889              2.981             33.227
 Vibrational            202.162             58.974             63.304
 Vibration     1          0.593              1.985              6.452
 Vibration     2          0.594              1.983              5.678
 Vibration     3          0.594              1.982              5.422
 Vibration     4          0.594              1.981              5.197
 Vibration     5          0.598              1.968              4.108
 Vibration     6          0.606              1.943              3.302
 Vibration     7          0.608              1.937              3.180
 Vibration     8          0.615              1.914              2.819
 Vibration     9          0.620              1.897              2.606
 Vibration    10          0.629              1.867              2.333
 Vibration    11          0.637              1.842              2.146
 Vibration    12          0.646              1.814              1.978
 Vibration    13          0.659              1.774              1.778
 Vibration    14          0.661              1.767              1.750
 Vibration    15          0.670              1.740              1.639
 Vibration    16          0.720              1.596              1.212
 Vibration    17          0.722              1.589              1.197
 Vibration    18          0.754              1.503              1.021
 Vibration    19          0.766              1.471              0.964
 Vibration    20          0.773              1.452              0.932
 Vibration    21          0.866              1.227              0.633
 Vibration    22          0.900              1.151              0.555
 Vibration    23          0.908              1.134              0.539
 Vibration    24          0.939              1.069              0.481
 Vibration    25          0.969              1.010              0.432

 Optimization completed.
    -- Stationary point found.
 Normal termination of Gaussian 16 at Fri Dec 11 12:28:13 2020.

 ----------------------------------------------------------------------
 # B3LYP/6-311++G(d,p) empiricaldispersion=gd3bj scf=xqc pop=npa geom=c
 heck
 ----------------------------------------------------------------------

 --------------------------------------
 CID_64483318_JID_7083_Energie_neutraal
 --------------------------------------
 Structure from the checkpoint file:  "JID_7083.chk"
 Charge =  0 Multiplicity = 1

 SCF Done:  E(RB3LYP) =  -1106.67975583     A.U. after   16 cycles
 Normal termination of Gaussian 16 at Fri Dec 11 12:35:01 2020.

 ----------------------------------------------------------------------
 # B3LYP/6-311++G(d,p) empiricaldispersion=gd3bj scf=xqc pop=npa geom=c
 heck
 ----------------------------------------------------------------------

 ------------------------------------
 CID_64483318_JID_7083_Energie_kation
 ------------------------------------
 Structure from the checkpoint file:  "JID_7083.chk"
 Charge =  1 Multiplicity = 2

 SCF Done:  E(UB3LYP) =  -1106.38184310     A.U. after   33 cycles
 SCF Done:  E(UB3LYP) =  -1106.38184310     a.u. after    1 cycles
 Normal termination of Gaussian 16 at Fri Dec 11 12:57:39 2020.
 Gaussian 16:  ES64L-G16RevA.03 25-Dec-2016

 ----------------------------------------------------------------------
 # B3LYP/6-311++G(d,p) empiricaldispersion=gd3bj scf=xqc pop=npa geom=c
 heck
 ----------------------------------------------------------------------

 -----------------------------------
 CID_64483318_JID_7083_Energie_anion
 -----------------------------------
 Structure from the checkpoint file:  "JID_7083.chk"
 Charge = -1 Multiplicity = 2

                         Standard orientation:
 ---------------------------------------------------------------------
 Center     Atomic      Atomic             Coordinates (Angstroms)
 Number     Number       Type             X           Y           Z
 ---------------------------------------------------------------------
      1          6           0        3.125514   -2.128532    1.613725
      2          6           0        2.171763   -2.255441    0.426375
      3          6           0        1.129333   -1.119041    0.327212
      4          6           0        1.783625    0.224282    0.092663
      5          7           0        2.352218    0.942115    1.018610
      6          6           0        2.898353    2.091957    0.489141
      7          6           0        2.744952    2.255117   -0.856972
      8         16           0        1.860927    0.917644   -1.520875
      9          7           0        0.178356   -1.444437   -0.724339
     10          6           0       -1.182185   -1.221394   -0.789989
     11          8           0       -1.813717   -1.687738   -1.729544
     12          6           0       -1.809172   -0.429385    0.348422
     13          6           0       -1.370516    1.051640    0.484113
     14          7           0       -2.481562    1.711433    1.198355
     15          6           0       -3.529837    0.712341    1.474983
     16          6           0       -3.352446   -0.316405    0.347473
     17          6           0       -3.970278    0.195828   -0.960445
     18          1           0        3.694490   -1.196668    1.574354
     19          1           0        3.829526   -2.967026    1.624599
     20          1           0        2.574484   -2.138010    2.561076
     21          1           0        2.740298   -2.284530   -0.513389
     22          1           0        1.612510   -3.196758    0.492410
     23          1           0        0.604646   -1.056265    1.285736
     24          1           0        3.398375    2.790814    1.149573
     25          1           0        3.073794    3.076677   -1.477602
     26          1           0        0.509884   -2.030100   -1.482537
     27          1           0       -1.530155   -0.941640    1.281596
     28          1           0       -0.422399    1.161342    1.018055
     29          1           0       -1.232922    1.497966   -0.509822
     30          1           0       -2.158645    2.157481    2.049793
     31          1           0       -4.522593    1.177249    1.455539
     32          1           0       -3.409322    0.223396    2.457422
     33          1           0       -3.805974   -1.277438    0.612835
     34          1           0       -3.785803   -0.499069   -1.778618
     35          1           0       -5.051732    0.317557   -0.828713
     36          1           0       -3.561287    1.175052   -1.230542
 ---------------------------------------------------------------------

 SCF Done:  E(UB3LYP) =  -1106.67575264     A.U. after   33 cycles
 SCF Done:  E(UB3LYP) =  -1106.67575264     a.u. after    1 cycles

 The electronic state is 2-A.
 Alpha  occ. eigenvalues --  -88.75591 -18.98498 -14.23155 -14.18997 -14.18807
 Alpha  occ. eigenvalues --  -10.17176 -10.11874 -10.10179 -10.08700 -10.08592
 Alpha  occ. eigenvalues --  -10.08575 -10.07895 -10.07725 -10.07447 -10.07429
 Alpha  occ. eigenvalues --  -10.05650 -10.04847  -7.84243  -5.80514  -5.80169
 Alpha  occ. eigenvalues --   -5.79872  -0.93755  -0.84642  -0.81989  -0.81221
 Alpha  occ. eigenvalues --   -0.69145  -0.68358  -0.67615  -0.63786  -0.63212
 Alpha  occ. eigenvalues --   -0.58233  -0.57482  -0.52266  -0.50707  -0.48132
 Alpha  occ. eigenvalues --   -0.47281  -0.44159  -0.43607  -0.41431  -0.40052
 Alpha  occ. eigenvalues --   -0.39285  -0.37533  -0.35391  -0.33920  -0.33574
 Alpha  occ. eigenvalues --   -0.32700  -0.31692  -0.30875  -0.30546  -0.29576
 Alpha  occ. eigenvalues --   -0.28887  -0.28346  -0.27562  -0.27379  -0.27066
 Alpha  occ. eigenvalues --   -0.26314  -0.25053  -0.24762  -0.24061  -0.23316
 Alpha  occ. eigenvalues --   -0.22517  -0.21941  -0.16950  -0.16323  -0.15427
 Alpha  occ. eigenvalues --   -0.15131  -0.13167  -0.11817   0.04388
 Alpha virt. eigenvalues --    0.06951   0.07297   0.07674   0.08498   0.09011
 Alpha virt. eigenvalues --    0.09403   0.09825   0.09998   0.10660   0.11137
 Alpha virt. eigenvalues --    0.11268   0.12016   0.12120   0.12461   0.13195

  Beta  occ. eigenvalues --  -88.75550 -18.98493 -14.23147 -14.18986 -14.18737
  Beta  occ. eigenvalues --  -10.17172 -10.11890 -10.09871 -10.08682 -10.08595
  Beta  occ. eigenvalues --  -10.08590 -10.07875 -10.07533 -10.07444 -10.07383
  Beta  occ. eigenvalues --  -10.05633 -10.04842  -7.84206  -5.80499  -5.80154
  Beta  occ. eigenvalues --   -5.79731  -0.93744  -0.84402  -0.81940  -0.81196
  Beta  occ. eigenvalues --   -0.69045  -0.68303  -0.67374  -0.63757  -0.62956
  Beta  occ. eigenvalues --   -0.58156  -0.57450  -0.52214  -0.50591  -0.48070
  Beta  occ. eigenvalues --   -0.47057  -0.44031  -0.43449  -0.41375  -0.39992
  Beta  occ. eigenvalues --   -0.39146  -0.37476  -0.35249  -0.33884  -0.33550
  Beta  occ. eigenvalues --   -0.32597  -0.31564  -0.30815  -0.30489  -0.29513
  Beta  occ. eigenvalues --   -0.28543  -0.28262  -0.27472  -0.27345  -0.26893
  Beta  occ. eigenvalues --   -0.26241  -0.24926  -0.24561  -0.23979  -0.23290
  Beta  occ. eigenvalues --   -0.22482  -0.21917  -0.16425  -0.16028  -0.15362
  Beta  occ. eigenvalues --   -0.14990  -0.12184  -0.11768
  Beta virt. eigenvalues --    0.06971   0.07514   0.07753   0.08606   0.09032
  Beta virt. eigenvalues --    0.09312   0.09442   0.09801   0.10296   0.10976
  Beta virt. eigenvalues --    0.11220   0.11432   0.12081   0.12309   0.12498

 Mulliken charges and spin densities:
               1          2
     1  C    0.100974  -0.754419
     2  C   -0.629406   0.430105
     3  C   -0.737901   0.795999
     4  C    1.029347  -1.067038
     5  N    0.021798   0.101934
     6  C   -0.041937  -0.073177
     7  C   -0.248301   0.063616
     8  S   -0.180796   0.030505
     9  N   -0.125939  -0.012967
    10  C   -0.236961   0.057834
    11  O   -0.302101  -0.001552
    12  C    0.904882  -0.693546
    13  C   -0.506136  -0.215903
    14  N   -0.190197   0.144776
    15  C    0.612150  -1.044014
    16  C   -0.774763   0.665148
    17  C   -0.311046  -0.301664
    18  H    0.184453  -0.014446
    19  H   -0.075756   0.201005
    20  H   -0.173130   0.318815
    21  H    0.099897   0.000315
    22  H   -0.290688   0.474764
    23  H    0.097302   0.169640
    24  H    0.070050   0.065932
    25  H    0.166818   0.019729
    26  H    0.298926   0.017207
    27  H   -0.185553   0.382897
    28  H   -0.038555   0.290835
    29  H    0.185356   0.010423
    30  H    0.132387   0.093437
    31  H    0.163376   0.017062
    32  H   -0.400693   0.535985
    33  H   -0.012074   0.235263
    34  H    0.199229  -0.018236
    35  H    0.084628   0.024409
    36  H    0.110358   0.049329
 Sum of Mulliken charges =  -1.00000   1.00000

 Dipole moment (field-independent basis, Debye):
    X=              1.3895    Y=              2.2012    Z=             -3.2640  Tot=              4.1748
 Quadrupole moment (field-independent basis, Debye-Ang):
   XX=           -157.7241   YY=           -146.3799   ZZ=           -148.7715
   XY=              0.0149   XZ=             -4.0598   YZ=              3.4539

 Summary of Natural Population Analysis:

                                       Natural Population
                Natural  -----------------------------------------------
    Atom  No    Charge         Core      Valence    Rydberg      Total
 -----------------------------------------------------------------------
      C    1   -0.28772      0.99966     2.28261    0.00546     3.28772
      C    2   -0.18038      0.99962     2.17219    0.00857     3.18038
      C    3   -0.04203      0.99951     2.02664    0.01589     3.04203
      C    4    0.07996      0.99958     1.90058    0.01988     2.92004
      N    5   -0.24719      0.99964     2.73610    0.01145     3.74719
      C    6   -0.03069      0.99953     2.01697    0.01419     3.03069
      C    7   -0.18752      0.99954     2.17747    0.01051     3.18752
      S    8    0.19157      4.99941     2.78993    0.01909     7.80843
      N    9   -0.31823      0.99967     2.80871    0.00985     3.81823
      C   10    0.35725      0.99963     1.62005    0.02307     2.64275
      O   11   -0.32720      0.99988     3.32209    0.00523     4.32720
      C   12   -0.15780      0.99953     2.14737    0.01091     3.15780
      C   13   -0.08886      0.99961     2.07804    0.01121     3.08886
      N   14   -0.34864      0.99975     2.83771    0.01117     3.84864
      C   15   -0.08485      0.99962     2.07387    0.01137     3.08485
      C   16   -0.10968      0.99961     2.09807    0.01200     3.10968
      C   17   -0.29203      0.99965     2.28712    0.00527     3.29203
      H   18    0.10756      0.00000     0.39130    0.00114     0.39244
      H   19    0.09444      0.00000     0.40489    0.00067     0.40556
      H   20    0.10113      0.00000     0.39770    0.00117     0.39887
      H   21    0.09254      0.00000     0.40625    0.00122     0.40746
      H   22    0.10072      0.00000     0.39762    0.00166     0.39928
      H   23    0.11520      0.00000     0.38109    0.00370     0.38480
      H   24    0.09403      0.00000     0.40504    0.00093     0.40597
      H   25    0.10406      0.00000     0.39492    0.00102     0.39594
      H   26    0.19330      0.00000     0.30472    0.00198     0.30670
      H   27    0.11391      0.00000     0.38361    0.00248     0.38609
      H   28    0.10503      0.00000     0.39334    0.00163     0.39497
      H   29    0.09006      0.00000     0.40852    0.00142     0.40994
      H   30    0.17780      0.00000     0.32006    0.00215     0.32220
      H   31    0.08882      0.00000     0.41003    0.00115     0.41118
      H   32    0.08587      0.00000     0.41244    0.00169     0.41413
      H   33    0.10244      0.00000     0.39672    0.00084     0.39756
      H   34    0.11520      0.00000     0.38401    0.00079     0.38480
      H   35    0.09191      0.00000     0.40730    0.00079     0.40809
      H   36    0.10001      0.00000     0.39916    0.00083     0.39999
 =======================================================================
   * Total *    0.00000     20.99342    46.77423    0.23235    68.00000

 Normal termination of Gaussian 16 at Fri Dec 11 13:15:36 2020.
