 Gaussian 16, Revision A.03,

 -----------------------------------------------------------
 # opt freq B3LYP/6-31G(d) empiricaldispersion=gd3bj scf=xqc
 -----------------------------------------------------------

 -------------------------------
 CID_112581291_JID_4830_neutraal
 -------------------------------
 Symbolic Z-matrix:
 Charge =  0 Multiplicity = 1

 SCF Done:  E(RB3LYP) =  -1008.31664129     A.U. after   15 cycles
 SCF Done:  E(RB3LYP) =  -1008.32610008     A.U. after   12 cycles
 SCF Done:  E(RB3LYP) =  -1008.32689587     A.U. after   12 cycles
 SCF Done:  E(RB3LYP) =  -1008.32627505     A.U. after   13 cycles
 SCF Done:  E(RB3LYP) =  -1008.32795992     A.U. after   13 cycles
 SCF Done:  E(RB3LYP) =  -1008.32828431     A.U. after   13 cycles
 SCF Done:  E(RB3LYP) =  -1008.32894404     A.U. after   15 cycles
 SCF Done:  E(RB3LYP) =  -1008.32954572     A.U. after   12 cycles
 SCF Done:  E(RB3LYP) =  -1008.33032997     A.U. after   13 cycles
 SCF Done:  E(RB3LYP) =  -1008.33036348     A.U. after   15 cycles
 SCF Done:  E(RB3LYP) =  -1008.33084432     A.U. after   10 cycles
 SCF Done:  E(RB3LYP) =  -1008.33084559     A.U. after    9 cycles
 SCF Done:  E(RB3LYP) =  -1008.33084603     A.U. after    8 cycles
 SCF Done:  E(RB3LYP) =  -1008.33084627     A.U. after    7 cycles
 SCF Done:  E(RB3LYP) =  -1008.33084640     A.U. after    8 cycles
 Optimization completed.
    -- Stationary point found.
 Normal termination of Gaussian 16 at Thu Dec 10 10:44:56 2020.

 --------------------------------------------------------------------
 #N Geom=AllCheck Guess=TCheck SCRF=Check GenChk RB3LYP/6-31G(d) Freq
 --------------------------------------------------------------------

 Structure from the checkpoint file:  "JID_4830.chk"
 -------------------------------
 CID_112581291_JID_4830_neutraal
 -------------------------------
 Charge =  0 Multiplicity = 1

 SCF Done:  E(RB3LYP) =  -1008.33084640     A.U. after    1 cycles

  Exact polarizability: 140.092  -2.334 129.260  -8.817  -5.055  94.172
 Approx polarizability: 200.441  -8.526 209.778 -14.490 -17.996 154.570

                      1                      2                      3
                      A                      A                      A
 Frequencies --     22.9239                38.7170                43.9481
 Red. masses --      5.8958                 6.2096                 7.6174
 Frc consts  --      0.0018                 0.0055                 0.0087
 IR Inten    --      0.1448                 1.5331                 0.5037

                      4                      5                      6
                      A                      A                      A
 Frequencies --     85.0014               100.5166               128.5982
 Red. masses --      4.5432                 3.4296                 1.4224
 Frc consts  --      0.0193                 0.0204                 0.0139
 IR Inten    --      0.4930                 1.3904                 0.4323

                      7                      8                      9
                      A                      A                      A
 Frequencies --    137.6654               180.1356               230.7669
 Red. masses --      1.9677                 2.7064                 5.0209
 Frc consts  --      0.0220                 0.0517                 0.1575
 IR Inten    --      0.4848                 3.3187                 3.6152

                     10                     11                     12
                      A                      A                      A
 Frequencies --    240.4219               290.7862               322.9218
 Red. masses --      4.4099                 4.5747                 4.2731
 Frc consts  --      0.1502                 0.2279                 0.2625
 IR Inten    --      3.9210                 0.8925                12.8610

                     13                     14                     15
                      A                      A                      A
 Frequencies --    356.6975               389.7223               454.4142
 Red. masses --      2.1332                 4.3708                 4.5282
 Frc consts  --      0.1599                 0.3911                 0.5509
 IR Inten    --      8.0530                 7.8745                 3.6141

                     16                     17                     18
                      A                      A                      A
 Frequencies --    523.8812               590.1800               601.6009
 Red. masses --      4.9338                 3.7949                 5.8876
 Frc consts  --      0.7978                 0.7788                 1.2555
 IR Inten    --      5.5143                 4.5749                 7.4409

                     19                     20                     21
                      A                      A                      A
 Frequencies --    619.3651               666.2217               723.8128
 Red. masses --      4.8670                 4.1009                 1.6131
 Frc consts  --      1.1000                 1.0724                 0.4979
 IR Inten    --      9.0729                30.5025                23.7112

                     22                     23                     24
                      A                      A                      A
 Frequencies --    750.4652               777.9050               785.0773
 Red. masses --      2.7387                 5.3809                 4.8063
 Frc consts  --      0.9088                 1.9185                 1.7454
 IR Inten    --     15.8203                17.4440                15.2747

                     25                     26                     27
                      A                      A                      A
 Frequencies --    810.1809               854.7834               889.9386
 Red. masses --      1.8344                 2.0180                 4.6323
 Frc consts  --      0.7094                 0.8687                 2.1616
 IR Inten    --      3.5914                 1.2198                 0.8529

                     28                     29                     30
                      A                      A                      A
 Frequencies --    896.8705               933.0199               946.6961
 Red. masses --      1.3182                 2.2772                 2.9301
 Frc consts  --      0.6247                 1.1680                 1.5472
 IR Inten    --      1.1832                 0.4853                 3.4265

                     31                     32                     33
                      A                      A                      A
 Frequencies --    975.3318               991.6093              1051.1428
 Red. masses --      3.2156                 3.4383                 3.3310
 Frc consts  --      1.8022                 1.9919                 2.1684
 IR Inten    --      2.4759                10.3418                96.2185

                     34                     35                     36
                      A                      A                      A
 Frequencies --   1070.8445              1095.0327              1127.8653
 Red. masses --      2.3851                 1.3721                 2.3986
 Frc consts  --      1.6114                 0.9694                 1.7977
 IR Inten    --     23.9687                 0.8896                12.9754

                     37                     38                     39
                      A                      A                      A
 Frequencies --   1149.7609              1185.6600              1186.6775
 Red. masses --      2.4941                 1.2762                 1.5936
 Frc consts  --      1.9426                 1.0571                 1.3222
 IR Inten    --     19.5196                 1.2734                13.0998

                     40                     41                     42
                      A                      A                      A
 Frequencies --   1205.8009              1218.0886              1220.0827
 Red. masses --      3.2894                 1.5094                 1.9381
 Frc consts  --      2.8179                 1.3195                 1.6998
 IR Inten    --     25.3493                10.5420                 5.8877

                     43                     44                     45
                      A                      A                      A
 Frequencies --   1229.2046              1239.4896              1269.3814
 Red. masses --      1.6641                 2.4573                 1.4514
 Frc consts  --      1.4814                 2.2243                 1.3779
 IR Inten    --     16.9708               261.9215                30.8766

                     46                     47                     48
                      A                      A                      A
 Frequencies --   1276.3488              1340.2058              1353.5200
 Red. masses --      1.3220                 1.4907                 1.6562
 Frc consts  --      1.2688                 1.5776                 1.7877
 IR Inten    --     27.2436                 8.0223                 2.5910

                     49                     50                     51
                      A                      A                      A
 Frequencies --   1362.7345              1387.6083              1413.8634
 Red. masses --      1.5765                 1.2910                 1.8206
 Frc consts  --      1.7249                 1.4646                 2.1443
 IR Inten    --      8.3831                 4.1305                28.1024

                     52                     53                     54
                      A                      A                      A
 Frequencies --   1484.6200              1490.8653              1493.8354
 Red. masses --      1.6602                 1.9591                 1.2781
 Frc consts  --      2.1560                 2.5655                 1.6805
 IR Inten    --      9.8073                 3.9671                 7.5806

                     55                     56                     57
                      A                      A                      A
 Frequencies --   1512.9576              1521.4654              1524.9920
 Red. masses --      1.0480                 1.1060                 1.0475
 Frc consts  --      1.4134                 1.5085                 1.4353
 IR Inten    --      5.4713                 1.3073                 9.0286

                     58                     59                     60
                      A                      A                      A
 Frequencies --   1555.4380              1566.6867              1837.1848
 Red. masses --      1.1513                 5.0579                11.7990
 Frc consts  --      1.6411                 7.3145                23.4640
 IR Inten    --      1.5906                27.0480               229.0627

                     61                     62                     63
                      A                      A                      A
 Frequencies --   3004.3539              3041.0866              3075.0494
 Red. masses --      1.0814                 1.0586                 1.0589
 Frc consts  --      5.7509                 5.7682                 5.8997
 IR Inten    --     21.5540                36.9346                20.4029

                     64                     65                     66
                      A                      A                      A
 Frequencies --   3076.9465              3093.9270              3115.8074
 Red. masses --      1.0294                 1.1072                 1.0592
 Frc consts  --      5.7423                 6.2445                 6.0586
 IR Inten    --     34.2303                42.1918                24.7538

                     67                     68                     69
                      A                      A                      A
 Frequencies --   3125.4528              3152.2548              3172.4927
 Red. masses --      1.1066                 1.1076                 1.1105
 Frc consts  --      6.3689                 6.4846                 6.5853
 IR Inten    --      6.0946                18.9612                13.9467

                     70                     71                     72
                      A                      A                      A
 Frequencies --   3183.9651              3233.9620              3281.7711
 Red. masses --      1.1073                 1.0914                 1.0978
 Frc consts  --      6.6136                 6.7251                 6.9662
 IR Inten    --     15.0662                 9.6825                 1.6302

 - Thermochemistry -
 -------------------
 Temperature   298.150 Kelvin.  Pressure   1.00000 Atm.
 Atom     1 has atomic number  6 and mass  12.00000

 Molecular mass:   212.06195 amu.
 Principal axes and moments of inertia in atomic units:
                           1         2         3
     Eigenvalues --  1778.660024229.551115259.92291
           X            0.99975  -0.02046  -0.00907
           Y            0.02058   0.99970   0.01318
           Z            0.00880  -0.01336   0.99987
 This molecule is an asymmetric top.
 Rotational symmetry number  1.
 Warning -- assumption of classical behavior for rotation
           may cause significant error
 Rotational temperatures (Kelvin)      0.04870     0.02048     0.01647
 Rotational constants (GHZ):           1.01466     0.42670     0.34311
 Zero-point vibrational energy     546027.1 (Joules/Mol)
                                  130.50361 (Kcal/Mol)
 Warning -- explicit consideration of  19 degrees of freedom as
           vibrations may cause significant error
 Vibrational temperatures:     32.98    55.71    63.23   122.30   144.62
          (Kelvin)            185.02   198.07   259.17   332.02   345.91
                              418.38   464.61   513.21   560.72   653.80
                              753.75   849.14   865.57   891.13   958.54
                             1041.41  1079.75  1119.23  1129.55  1165.67
                             1229.84  1280.42  1290.40  1342.41  1362.08
                             1403.28  1426.70  1512.36  1540.71  1575.51
                             1622.75  1654.25  1705.90  1707.36  1734.88
                             1752.56  1755.43  1768.55  1783.35  1826.36
                             1836.38  1928.26  1947.41  1960.67  1996.46
                             2034.23  2136.04  2145.02  2149.30  2176.81
                             2189.05  2194.12  2237.93  2254.11  2643.30
                             4322.60  4375.45  4424.31  4427.04  4451.47
                             4482.95  4496.83  4535.39  4564.51  4581.02
                             4652.95  4721.74

 Zero-point correction=                           0.207971 (Hartree/Particle)
 Thermal correction to Energy=                    0.221549
 Thermal correction to Enthalpy=                  0.222493
 Thermal correction to Gibbs Free Energy=         0.165161
 Sum of electronic and zero-point Energies=          -1008.122876
 Sum of electronic and thermal Energies=             -1008.109298
 Sum of electronic and thermal Enthalpies=           -1008.108353
 Sum of electronic and thermal Free Energies=        -1008.165685

                     E (Thermal)             CV                S
                      KCal/Mol        Cal/Mol-Kelvin    Cal/Mol-Kelvin
 Total                  139.024             49.062            120.665
 Electronic               0.000              0.000              0.000
 Translational            0.889              2.981             41.959
 Rotational               0.889              2.981             32.048
 Vibrational            137.247             43.101             46.658
 Vibration     1          0.593              1.985              6.363
 Vibration     2          0.594              1.981              5.324
 Vibration     3          0.595              1.980              5.073
 Vibration     4          0.601              1.960              3.772
 Vibration     5          0.604              1.949              3.444
 Vibration     6          0.611              1.925              2.967
 Vibration     7          0.614              1.916              2.836
 Vibration     8          0.629              1.867              2.327
 Vibration     9          0.652              1.794              1.873
 Vibration    10          0.658              1.779              1.800
 Vibration    11          0.687              1.691              1.469
 Vibration    12          0.708              1.630              1.295
 Vibration    13          0.732              1.561              1.136
 Vibration    14          0.758              1.492              1.001
 Vibration    15          0.813              1.351              0.783
 Vibration    16          0.879              1.197              0.601
 Vibration    17          0.948              1.053              0.467
 Vibration    18          0.960              1.028              0.447
 Vibration    19          0.979              0.991              0.418

                           ! Non-Optimized Parameters !
 Normal termination of Gaussian 16 at Thu Dec 10 10:52:42 2020.

 ----------------------------------------------------------------------
 # B3LYP/6-311++G(d,p) empiricaldispersion=gd3bj scf=xqc pop=npa geom=c
 heck
 ----------------------------------------------------------------------

 ---------------------------------------
 CID_112581291_JID_4830_Energie_neutraal
 ---------------------------------------
 Structure from the checkpoint file:  "JID_4830.chk"
 Charge =  0 Multiplicity = 1

 SCF Done:  E(RB3LYP) =  -1008.52827507     A.U. after   15 cycles
 Normal termination of Gaussian 16 at Thu Dec 10 10:56:28 2020.

 ----------------------------------------------------------------------
 # B3LYP/6-311++G(d,p) empiricaldispersion=gd3bj scf=xqc pop=npa geom=c
 heck
 ----------------------------------------------------------------------

 -------------------------------------
 CID_112581291_JID_4830_Energie_kation
 -------------------------------------
 Structure from the checkpoint file:  "JID_4830.chk"
 Charge =  1 Multiplicity = 2

 SCF Done:  E(UB3LYP) =  -1008.22792586     A.U. after   26 cycles
 Normal termination of Gaussian 16 at Thu Dec 10 11:05:17 2020.
 Gaussian 16:  ES64L-G16RevA.03 25-Dec-2016

 ----------------------------------------------------------------------
 # B3LYP/6-311++G(d,p) empiricaldispersion=gd3bj scf=xqc pop=npa geom=c
 heck
 ----------------------------------------------------------------------

 ------------------------------------
 CID_112581291_JID_4830_Energie_anion
 ------------------------------------
 Structure from the checkpoint file:  "JID_4830.chk"
 Charge = -1 Multiplicity = 2

                         Standard orientation:
 ---------------------------------------------------------------------
 Center     Atomic      Atomic             Coordinates (Angstroms)
 Number     Number       Type             X           Y           Z
 ---------------------------------------------------------------------
      1          6           0        3.189987   -2.150852   -0.402222
      2          8           0        2.063206   -1.283373   -0.194768
      3          6           0        2.345778   -0.100046    0.400627
      4          8           0        3.451661    0.220547    0.772413
      5          6           0        1.089501    0.734180    0.503820
      6          6           0        1.210806    2.223399    0.875019
      7          6           0        0.219470    2.480906   -0.285906
      8          7           0        0.550511    1.137427   -0.815138
      9          6           0       -0.450356    0.325183   -1.496093
     10          6           0       -1.659920   -0.019871   -0.666303
     11          7           0       -2.658027    0.791083   -0.441169
     12          6           0       -3.570685    0.235873    0.426616
     13          6           0       -3.275901   -1.016648    0.884151
     14         16           0       -1.772829   -1.549242    0.205964
     15          1           0        2.788882   -3.043326   -0.882662
     16          1           0        3.657910   -2.403769    0.552586
     17          1           0        3.930638   -1.666757   -1.043938
     18          1           0        0.359896    0.204559    1.136595
     19          1           0        0.886897    2.503708    1.878256
     20          1           0        2.215806    2.603723    0.685872
     21          1           0        0.438387    3.297390   -0.982855
     22          1           0       -0.819213    2.565237    0.060673
     23          1           0       -0.787707    0.885515   -2.374183
     24          1           0        0.039605   -0.589888   -1.841711
     25          1           0       -4.456809    0.800692    0.692417
     26          1           0       -3.847421   -1.638912    1.558277
 ---------------------------------------------------------------------

 SCF Done:  E(UB3LYP) =  -1008.51689459     A.U. after   33 cycles
 SCF Done:  E(UB3LYP) =  -1008.51689459     a.u. after    1 cycles

 The electronic state is 2-A.
 Alpha  occ. eigenvalues --  -88.75035 -19.06475 -19.01271 -14.20534 -14.18495
 Alpha  occ. eigenvalues --  -10.19563 -10.11574 -10.10928 -10.09505 -10.09295
 Alpha  occ. eigenvalues --  -10.09024 -10.08003 -10.07550 -10.07233  -7.83690
 Alpha  occ. eigenvalues --   -5.79953  -5.79608  -5.79330  -1.00482  -0.92011
 Alpha  occ. eigenvalues --   -0.85002  -0.83207  -0.68244  -0.67178  -0.64595
 Alpha  occ. eigenvalues --   -0.61525  -0.58182  -0.54845  -0.48711  -0.46806
 Alpha  occ. eigenvalues --   -0.45058  -0.43207  -0.41720  -0.39160  -0.38206
 Alpha  occ. eigenvalues --   -0.37488  -0.37354  -0.35049  -0.34153  -0.31562
 Alpha  occ. eigenvalues --   -0.30733  -0.29791  -0.28660  -0.28172  -0.26425
 Alpha  occ. eigenvalues --   -0.26107  -0.25026  -0.24446  -0.23742  -0.23017
 Alpha  occ. eigenvalues --   -0.20690  -0.18363  -0.16474  -0.15875  -0.13129
 Alpha  occ. eigenvalues --   -0.11671   0.05032
 Alpha virt. eigenvalues --    0.06935   0.07511   0.08190   0.09116   0.09549
 Alpha virt. eigenvalues --    0.09892   0.10085   0.10565   0.10739   0.11570
 Alpha virt. eigenvalues --    0.12498   0.12931   0.13262   0.13808   0.14413

  Beta  occ. eigenvalues --  -88.74994 -19.06464 -19.01255 -14.20500 -14.18434
  Beta  occ. eigenvalues --  -10.19555 -10.11522 -10.10929 -10.09293 -10.09193
  Beta  occ. eigenvalues --  -10.09037 -10.08005 -10.07545 -10.07033  -7.83652
  Beta  occ. eigenvalues --   -5.79938  -5.79593  -5.79191  -1.00458  -0.91984
  Beta  occ. eigenvalues --   -0.84896  -0.83007  -0.68108  -0.66919  -0.64539
  Beta  occ. eigenvalues --   -0.61265  -0.58137  -0.54766  -0.48644  -0.46504
  Beta  occ. eigenvalues --   -0.44976  -0.43064  -0.41635  -0.38994  -0.38158
  Beta  occ. eigenvalues --   -0.37414  -0.37260  -0.34988  -0.34115  -0.31510
  Beta  occ. eigenvalues --   -0.30516  -0.29615  -0.28574  -0.27738  -0.26330
  Beta  occ. eigenvalues --   -0.25983  -0.24984  -0.24290  -0.23609  -0.22991
  Beta  occ. eigenvalues --   -0.20636  -0.18337  -0.15874  -0.15584  -0.12208
  Beta  occ. eigenvalues --   -0.11402
  Beta virt. eigenvalues --    0.07310   0.07923   0.08286   0.08873   0.09496
  Beta virt. eigenvalues --    0.09574   0.10314   0.10441   0.11064   0.11162
  Beta virt. eigenvalues --    0.11814   0.12542   0.13013   0.13533   0.13929

 Mulliken charges and spin densities:
               1          2
     1  C    1.185211  -1.445733
     2  O   -0.153627   0.090900
     3  C   -0.371823   0.183879
     4  O   -0.294326   0.023473
     5  C    0.153579  -0.290504
     6  C   -0.327996   0.017187
     7  C   -0.212527  -0.065346
     8  N    0.249239   0.085641
     9  C    0.190983  -1.083330
    10  C   -0.330101   0.773616
    11  N   -0.080426   0.040521
    12  C   -0.053149  -0.184076
    13  C   -0.335220   0.223397
    14  S    0.134357  -0.056807
    15  H   -0.601896   0.763908
    16  H   -0.244235   0.410940
    17  H   -0.382410   0.562178
    18  H    0.095150   0.015645
    19  H    0.081505   0.056325
    20  H    0.142620   0.027976
    21  H    0.058837   0.089589
    22  H    0.182014  -0.032347
    23  H   -0.049951   0.227358
    24  H   -0.064460   0.282984
    25  H    0.034107   0.091209
    26  H   -0.005456   0.191415
 Sum of Mulliken charges =  -1.00000   1.00000

 Dipole moment (field-independent basis, Debye):
    X=             -3.3583    Y=              4.2614    Z=              3.0642  Tot=              6.2311
 Quadrupole moment (field-independent basis, Debye-Ang):
   XX=           -153.8066   YY=           -126.7526   ZZ=           -114.1873
   XY=             12.6717   XZ=              1.6225   YZ=             -3.8580

 Summary of Natural Population Analysis:

                                       Natural Population
                Natural  -----------------------------------------------
    Atom  No    Charge         Core      Valence    Rydberg      Total
 -----------------------------------------------------------------------
      C    1   -0.10376      0.99959     2.09506    0.00911     3.10376
      O    2   -0.27691      0.99987     3.26794    0.00911     4.27691
      C    3    0.41009      0.99965     1.56420    0.02606     2.58991
      O    4   -0.30563      0.99987     3.30026    0.00550     4.30563
      C    5   -0.05102      0.99956     2.03798    0.01348     3.05102
      C    6   -0.19145      0.99961     2.18449    0.00735     3.19145
      C    7   -0.08044      0.99965     2.07220    0.00860     3.08044
      N    8   -0.26589      0.99972     2.75238    0.01379     3.76589
      C    9   -0.11229      0.99954     2.09803    0.01472     3.11229
      C   10    0.07242      0.99961     1.90924    0.01872     2.92758
      N   11   -0.25141      0.99964     2.73985    0.01192     3.75141
      C   12   -0.03044      0.99953     2.01622    0.01469     3.03044
      C   13   -0.18728      0.99954     2.17703    0.01070     3.18728
      S   14    0.19345      4.99943     2.78685    0.02027     7.80655
      H   15    0.09604      0.00000     0.40145    0.00251     0.40396
      H   16    0.08960      0.00000     0.40918    0.00122     0.41040
      H   17    0.09220      0.00000     0.40573    0.00207     0.40780
      H   18    0.10455      0.00000     0.39325    0.00219     0.39545
      H   19    0.09644      0.00000     0.40268    0.00088     0.40356
      H   20    0.10575      0.00000     0.39309    0.00117     0.39425
      H   21    0.08729      0.00000     0.41143    0.00127     0.41271
      H   22    0.09652      0.00000     0.40172    0.00176     0.40348
      H   23    0.10666      0.00000     0.39188    0.00146     0.39334
      H   24    0.10872      0.00000     0.38940    0.00188     0.39128
      H   25    0.09235      0.00000     0.40665    0.00101     0.40765
      H   26    0.10445      0.00000     0.39461    0.00094     0.39555
 =======================================================================
   * Total *   -0.00000     17.99483    37.80280    0.20238    56.00000

 Normal termination of Gaussian 16 at Thu Dec 10 11:16:21 2020.
