 Gaussian 16, Revision A.03,

 -----------------------------------------------------------
 # opt freq B3LYP/6-31G(d) empiricaldispersion=gd3bj scf=xqc
 -----------------------------------------------------------

 ------------------------------
 CID_55105390_JID_9492_neutraal
 ------------------------------
 Symbolic Z-matrix:
 Charge =  0 Multiplicity = 1

 SCF Done:  E(RB3LYP) =  -898.014908604     A.U. after   15 cycles
 SCF Done:  E(RB3LYP) =  -898.041604116     A.U. after   13 cycles
 SCF Done:  E(RB3LYP) =  -898.043336337     A.U. after   13 cycles
 SCF Done:  E(RB3LYP) =  -898.043840821     A.U. after   13 cycles
 SCF Done:  E(RB3LYP) =  -898.044641819     A.U. after   11 cycles
 SCF Done:  E(RB3LYP) =  -898.044554360     A.U. after   13 cycles
 SCF Done:  E(RB3LYP) =  -898.044893774     A.U. after   12 cycles
 SCF Done:  E(RB3LYP) =  -898.044869473     A.U. after   11 cycles
 SCF Done:  E(RB3LYP) =  -898.045024249     A.U. after   11 cycles
 SCF Done:  E(RB3LYP) =  -898.045082787     A.U. after   11 cycles
 SCF Done:  E(RB3LYP) =  -898.049781784     A.U. after   10 cycles
 SCF Done:  E(RB3LYP) =  -898.049786697     A.U. after   10 cycles
 SCF Done:  E(RB3LYP) =  -898.049788210     A.U. after    9 cycles
 SCF Done:  E(RB3LYP) =  -898.049789135     A.U. after    8 cycles
 SCF Done:  E(RB3LYP) =  -898.049789227     A.U. after    7 cycles
 SCF Done:  E(RB3LYP) =  -898.049789250     A.U. after    7 cycles
 Optimization completed.
    -- Stationary point found.
 Normal termination of Gaussian 16 at Sat Dec 12 10:24:08 2020.

 --------------------------------------------------------------------
 #N Geom=AllCheck Guess=TCheck SCRF=Check GenChk RB3LYP/6-31G(d) Freq
 --------------------------------------------------------------------

 Structure from the checkpoint file:  "JID_9492.chk"
 ------------------------------
 CID_55105390_JID_9492_neutraal
 ------------------------------
 Charge =  0 Multiplicity = 1

 SCF Done:  E(RB3LYP) =  -898.049789250     A.U. after    1 cycles

  Exact polarizability: 182.692  -3.482 147.949  -0.487   4.016 133.270
 Approx polarizability: 239.921  -5.071 198.878   3.671  12.248 224.845

                      1                      2                      3
                      A                      A                      A
 Frequencies --     27.4130                28.2300                39.5991
 Red. masses --      5.5894                 6.7476                 8.7315
 Frc consts  --      0.0025                 0.0032                 0.0081
 IR Inten    --      0.5251                 1.9042                 0.3872

                      4                      5                      6
                      A                      A                      A
 Frequencies --     47.2975                63.1309                72.6197
 Red. masses --      3.8366                 3.1462                 4.1768
 Frc consts  --      0.0051                 0.0074                 0.0130
 IR Inten    --      0.6360                 1.2333                 0.1429

                      7                      8                      9
                      A                      A                      A
 Frequencies --     81.0359                88.5043               105.5049
 Red. masses --      5.9921                 3.8069                 3.4045
 Frc consts  --      0.0232                 0.0176                 0.0223
 IR Inten    --      8.5122                 2.8215                 1.9013

                     10                     11                     12
                      A                      A                      A
 Frequencies --    126.0554               149.1902               172.2413
 Red. masses --      3.2813                 3.7485                 3.5779
 Frc consts  --      0.0307                 0.0492                 0.0625
 IR Inten    --      1.4226                 5.6441                 3.2086

                     13                     14                     15
                      A                      A                      A
 Frequencies --    181.8034               237.5176               270.9417
 Red. masses --      2.7568                 1.3074                 1.8921
 Frc consts  --      0.0537                 0.0435                 0.0818
 IR Inten    --      1.2518                 1.3769                 0.2138

                     16                     17                     18
                      A                      A                      A
 Frequencies --    287.0759               294.7832               320.6695
 Red. masses --      3.0603                 3.6709                 3.4745
 Frc consts  --      0.1486                 0.1879                 0.2105
 IR Inten    --      4.0340                 2.3052                 7.3237

                     19                     20                     21
                      A                      A                      A
 Frequencies --    329.4006               340.0208               356.4138
 Red. masses --      3.2204                 3.5403                 3.8409
 Frc consts  --      0.2059                 0.2412                 0.2875
 IR Inten    --      0.9775                 7.3272                14.0744

                     22                     23                     24
                      A                      A                      A
 Frequencies --    387.5717               408.1179               431.0305
 Red. masses --      3.1534                 3.1401                 2.0320
 Frc consts  --      0.2791                 0.3081                 0.2224
 IR Inten    --      0.2372                 2.8801                 0.5662

                     25                     26                     27
                      A                      A                      A
 Frequencies --    474.3177               513.7300               526.7296
 Red. masses --      3.4192                 2.7927                 1.8445
 Frc consts  --      0.4532                 0.4342                 0.3015
 IR Inten    --      9.9396                 6.1317                15.4220

                     28                     29                     30
                      A                      A                      A
 Frequencies --    541.6278               563.9350               592.3212
 Red. masses --      3.4513                 3.8828                 3.1609
 Frc consts  --      0.5965                 0.7275                 0.6534
 IR Inten    --      6.2935                34.9378                22.2300

                     31                     32                     33
                      A                      A                      A
 Frequencies --    650.2074               654.5581               685.8290
 Red. masses --      4.0211                 3.0925                 1.4466
 Frc consts  --      1.0016                 0.7807                 0.4009
 IR Inten    --     10.9909                10.3493                91.9973

                     34                     35                     36
                      A                      A                      A
 Frequencies --    751.6802               779.3120               794.5351
 Red. masses --      3.3321                 2.5684                 1.8191
 Frc consts  --      1.1093                 0.9190                 0.6766
 IR Inten    --      2.4484                 7.8199                13.0612

                     37                     38                     39
                      A                      A                      A
 Frequencies --    808.4898               829.9909               857.8862
 Red. masses --      2.0968                 2.4591                 2.5847
 Frc consts  --      0.8075                 0.9981                 1.1208
 IR Inten    --      1.2832                 2.5654                 0.6487

                     40                     41                     42
                      A                      A                      A
 Frequencies --    874.3710               893.9807               908.8582
 Red. masses --      1.9356                 2.5259                 2.4051
 Frc consts  --      0.8719                 1.1894                 1.1705
 IR Inten    --      6.3717                 3.1162                 1.5044

                     43                     44                     45
                      A                      A                      A
 Frequencies --    927.5721               942.9783               990.4699
 Red. masses --      2.1630                 2.1060                 2.3994
 Frc consts  --      1.0965                 1.1034                 1.3869
 IR Inten    --      0.7994                 9.6680                 4.7254

                     46                     47                     48
                      A                      A                      A
 Frequencies --    994.5701              1008.0404              1020.5141
 Red. masses --      2.5913                 2.5900                 1.5079
 Frc consts  --      1.5102                 1.5506                 0.9253
 IR Inten    --      9.9004                 6.0295                 5.3240

                     49                     50                     51
                      A                      A                      A
 Frequencies --   1048.6813              1073.9808              1099.3698
 Red. masses --      2.2996                 1.9986                 1.9553
 Frc consts  --      1.4900                 1.3582                 1.3924
 IR Inten    --     24.5523                 6.9071                19.8414

                     52                     53                     54
                      A                      A                      A
 Frequencies --   1111.8398              1114.9498              1131.4097
 Red. masses --      1.9507                 2.5506                 2.4868
 Frc consts  --      1.4208                 1.8681                 1.8756
 IR Inten    --     13.0725                 2.6160               110.0123

                     55                     56                     57
                      A                      A                      A
 Frequencies --   1145.0318              1171.5478              1178.3294
 Red. masses --      2.2217                 2.5762                 1.8342
 Frc consts  --      1.7162                 2.0833                 1.5005
 IR Inten    --     54.5305               187.4727                48.3994

                     58                     59                     60
                      A                      A                      A
 Frequencies --   1202.0623              1211.7874              1232.8652
 Red. masses --      2.2152                 1.3905                 1.4527
 Frc consts  --      1.8859                 1.2030                 1.3009
 IR Inten    --     36.2415                44.6520                 7.5908

                     61                     62                     63
                      A                      A                      A
 Frequencies --   1257.2441              1266.3300              1278.5277
 Red. masses --      1.4611                 1.6467                 1.2190
 Frc consts  --      1.3607                 1.5558                 1.1741
 IR Inten    --     24.7766                14.3465                 5.0472

                     64                     65                     66
                      A                      A                      A
 Frequencies --   1292.3327              1309.1809              1315.3314
 Red. masses --      1.7052                 1.4711                 1.2819
 Frc consts  --      1.6780                 1.4856                 1.3067
 IR Inten    --     51.6098                76.2571                 7.0679

                     67                     68                     69
                      A                      A                      A
 Frequencies --   1319.9251              1350.0122              1359.7043
 Red. masses --      1.4128                 1.4906                 1.2685
 Frc consts  --      1.4502                 1.6006                 1.3817
 IR Inten    --     34.9072                33.7224                 4.0758

                     70                     71                     72
                      A                      A                      A
 Frequencies --   1362.7763              1381.3816              1389.7445
 Red. masses --      1.3289                 1.4253                 1.4173
 Frc consts  --      1.4541                 1.6024                 1.6128
 IR Inten    --     11.2297                27.8459                 2.3161

                     73                     74                     75
                      A                      A                      A
 Frequencies --   1392.4836              1403.9825              1417.1747
 Red. masses --      1.3422                 1.3301                 1.5266
 Frc consts  --      1.5334                 1.5448                 1.8064
 IR Inten    --     31.6233                 6.2514                17.8552

                     76                     77                     78
                      A                      A                      A
 Frequencies --   1418.8773              1430.3632              1440.1926
 Red. masses --      1.4564                 1.5761                 1.4356
 Frc consts  --      1.7275                 1.8999                 1.7544
 IR Inten    --     29.0242                90.5199                 5.2835

                     79                     80                     81
                      A                      A                      A
 Frequencies --   1442.4432              1450.5450              1487.6659
 Red. masses --      1.7135                 2.0011                 1.0963
 Frc consts  --      2.1006                 2.4807                 1.4295
 IR Inten    --     55.7420               228.2443                10.9358

                     82                     83                     84
                      A                      A                      A
 Frequencies --   1496.6803              1515.9428              1518.0498
 Red. masses --      1.0942                 1.0723                 1.0825
 Frc consts  --      1.4441                 1.4519                 1.4697
 IR Inten    --      4.9529                 7.9682                 2.8743

                     85                     86                     87
                      A                      A                      A
 Frequencies --   1522.1002              1530.1847              1530.3884
 Red. masses --      1.0455                 1.0833                 1.0678
 Frc consts  --      1.4272                 1.4944                 1.4735
 IR Inten    --      1.8641                10.4228                 5.1600

                     88                     89                     90
                      A                      A                      A
 Frequencies --   1536.7404              1543.1887              1549.7766
 Red. masses --      1.1034                 1.0807                 1.1006
 Frc consts  --      1.5353                 1.5164                 1.5575
 IR Inten    --     11.1151                12.7608                 5.0792

                     91                     92                     93
                      A                      A                      A
 Frequencies --   1754.3116              1844.0570              2368.0793
 Red. masses --     11.4729                 9.5466                12.5994
 Frc consts  --     20.8035                19.1270                41.6286
 IR Inten    --    285.3004               229.1751                10.9150

                     94                     95                     96
                      A                      A                      A
 Frequencies --   3009.7907              3036.2942              3044.3566
 Red. masses --      1.0732                 1.0713                 1.0695
 Frc consts  --      5.7280                 5.8192                 5.8402
 IR Inten    --     37.5075                17.9623                22.7589

                     97                     98                     99
                      A                      A                      A
 Frequencies --   3045.7086              3046.7015              3054.2033
 Red. masses --      1.0686                 1.0614                 1.0376
 Frc consts  --      5.8406                 5.8049                 5.7028
 IR Inten    --     28.5893                 7.5465                28.1463

                    100                    101                    102
                      A                      A                      A
 Frequencies --   3055.0582              3058.4520              3064.9383
 Red. masses --      1.0647                 1.0636                 1.0674
 Frc consts  --      5.8546                 5.8617                 5.9079
 IR Inten    --     40.6763                 4.4947                48.9064

                    103                    104                    105
                      A                      A                      A
 Frequencies --   3069.3458              3089.0053              3096.7252
 Red. masses --      1.0849                 1.0983                 1.0984
 Frc consts  --      6.0218                 6.1748                 6.2063
 IR Inten    --     16.0416                16.8049                24.3438

                    106                    107                    108
                      A                      A                      A
 Frequencies --   3099.0974              3105.3356              3116.6128
 Red. masses --      1.1022                 1.0973                 1.1004
 Frc consts  --      6.2370                 6.2344                 6.2975
 IR Inten    --      6.9585                32.9502                 7.7362

                    109                    110                    111
                      A                      A                      A
 Frequencies --   3125.6217              3127.3697              3141.5580
 Red. masses --      1.0953                 1.0987                 1.1004
 Frc consts  --      6.3049                 6.3315                 6.3984
 IR Inten    --     26.3284                29.0344                39.1606

                    112                    113                    114
                      A                      A                      A
 Frequencies --   3163.5345              3164.3183              3684.5984
 Red. masses --      1.0901                 1.0929                 1.0639
 Frc consts  --      6.4279                 6.4478                 8.5102
 IR Inten    --      2.0555                 3.7084                45.7871

 - Thermochemistry -
 -------------------
 Temperature   298.150 Kelvin.  Pressure   1.00000 Atm.
 Atom     1 has atomic number  6 and mass  12.00000

 Molecular mass:   267.15829 amu.
 Principal axes and moments of inertia in atomic units:
                           1         2         3
     Eigenvalues --  3388.216217439.404179277.41004
           X            0.99984  -0.01568  -0.00833
           Y            0.01565   0.99987  -0.00321
           Z            0.00838   0.00308   0.99996
 This molecule is an asymmetric top.
 Rotational symmetry number  1.
 Warning -- assumption of classical behavior for rotation
           may cause significant error
 Rotational temperatures (Kelvin)      0.02556     0.01164     0.00934
 Rotational constants (GHZ):           0.53265     0.24259     0.19453
 Zero-point vibrational energy     903353.3 (Joules/Mol)
                                  215.90661 (Kcal/Mol)
 Warning -- explicit consideration of  30 degrees of freedom as
           vibrations may cause significant error
 Vibrational temperatures:     39.44    40.62    56.97    68.05    90.83
          (Kelvin)            104.48   116.59   127.34   151.80   181.37
                              214.65   247.82   261.57   341.73   389.82
                              413.04   424.13   461.37   473.93   489.21
                              512.80   557.63   587.19   620.16   682.44
                              739.14   757.85   779.28   811.38   852.22
                              935.50   941.76   986.75  1081.50  1121.26
                             1143.16  1163.24  1194.17  1234.31  1258.02
                             1286.24  1307.64  1334.57  1356.74  1425.07
                             1430.96  1450.35  1468.29  1508.82  1545.22
                             1581.75  1599.69  1604.16  1627.85  1647.45
                             1685.60  1695.35  1729.50  1743.49  1773.82
                             1808.89  1821.97  1839.52  1859.38  1883.62
                             1892.47  1899.08  1942.37  1956.31  1960.73
                             1987.50  1999.53  2003.47  2020.02  2039.00
                             2041.45  2057.97  2072.12  2075.35  2087.01
                             2140.42  2153.39  2181.10  2184.14  2189.96
                             2201.59  2201.89  2211.03  2220.30  2229.78
                             2524.06  2653.19  3407.14  4330.42  4368.55
                             4380.15  4382.10  4383.52  4394.32  4395.55
                             4400.43  4409.76  4416.10  4444.39  4455.50
                             4458.91  4467.89  4484.11  4497.07  4499.59
                             4520.00  4551.62  4552.75  5301.32

 Zero-point correction=                           0.344069 (Hartree/Particle)
 Thermal correction to Energy=                    0.363919
 Thermal correction to Enthalpy=                  0.364864
 Thermal correction to Gibbs Free Energy=         0.293375
 Sum of electronic and zero-point Energies=           -897.705720
 Sum of electronic and thermal Energies=              -897.685870
 Sum of electronic and thermal Enthalpies=            -897.684926
 Sum of electronic and thermal Free Energies=         -897.756414

                     E (Thermal)             CV                S
                      KCal/Mol        Cal/Mol-Kelvin    Cal/Mol-Kelvin
 Total                  228.363             72.627            150.460
 Electronic               0.000              0.000              0.000
 Translational            0.889              2.981             42.647
 Rotational               0.889              2.981             33.813
 Vibrational            226.585             66.665             74.000
 Vibration     1          0.593              1.984              6.008
 Vibration     2          0.593              1.984              5.950
 Vibration     3          0.594              1.981              5.279
 Vibration     4          0.595              1.979              4.927
 Vibration     5          0.597              1.972              4.357
 Vibration     6          0.599              1.967              4.081
 Vibration     7          0.600              1.962              3.866
 Vibration     8          0.601              1.957              3.693
 Vibration     9          0.605              1.945              3.350
 Vibration    10          0.611              1.927              3.005
 Vibration    11          0.618              1.904              2.683
 Vibration    12          0.626              1.877              2.411
 Vibration    13          0.630              1.865              2.310
 Vibration    14          0.656              1.783              1.821
 Vibration    15          0.675              1.727              1.590
 Vibration    16          0.684              1.698              1.491
 Vibration    17          0.689              1.683              1.446
 Vibration    18          0.706              1.634              1.307
 Vibration    19          0.712              1.617              1.263
 Vibration    20          0.720              1.596              1.212
 Vibration    21          0.732              1.562              1.138
 Vibration    22          0.756              1.497              1.009
 Vibration    23          0.773              1.453              0.933
 Vibration    24          0.792              1.403              0.855
 Vibration    25          0.831              1.307              0.726
 Vibration    26          0.869              1.220              0.625
 Vibration    27          0.882              1.191              0.595
 Vibration    28          0.897              1.158              0.562
 Vibration    29          0.920              1.109              0.516
 Vibration    30          0.950              1.048              0.463

                           ! Non-Optimized Parameters !
 Normal termination of Gaussian 16 at Sat Dec 12 10:47:26 2020.

 ----------------------------------------------------------------------
 # B3LYP/6-311++G(d,p) empiricaldispersion=gd3bj scf=xqc pop=npa geom=c
 heck
 ----------------------------------------------------------------------

 --------------------------------------
 CID_55105390_JID_9492_Energie_neutraal
 --------------------------------------
 Structure from the checkpoint file:  "JID_9492.chk"
 Charge =  0 Multiplicity = 1

 SCF Done:  E(RB3LYP) =  -898.313052933     A.U. after   16 cycles
 Normal termination of Gaussian 16 at Sat Dec 12 10:58:58 2020.

 ----------------------------------------------------------------------
 # B3LYP/6-311++G(d,p) empiricaldispersion=gd3bj scf=xqc pop=npa geom=c
 heck
 ----------------------------------------------------------------------

 ------------------------------------
 CID_55105390_JID_9492_Energie_kation
 ------------------------------------
 Structure from the checkpoint file:  "JID_9492.chk"
 Charge =  1 Multiplicity = 2

 SCF Done:  E(UB3LYP) =  -898.009938812     A.U. after   25 cycles
 Normal termination of Gaussian 16 at Sat Dec 12 11:25:14 2020.
 Gaussian 16:  ES64L-G16RevA.03 25-Dec-2016

 ----------------------------------------------------------------------
 # B3LYP/6-311++G(d,p) empiricaldispersion=gd3bj scf=xqc pop=npa geom=c
 heck
 ----------------------------------------------------------------------

 -----------------------------------
 CID_55105390_JID_9492_Energie_anion
 -----------------------------------
 Structure from the checkpoint file:  "JID_9492.chk"
 Charge = -1 Multiplicity = 2

                         Standard orientation:
 ---------------------------------------------------------------------
 Center     Atomic      Atomic             Coordinates (Angstroms)
 Number     Number       Type             X           Y           Z
 ---------------------------------------------------------------------
      1          6           0       -3.847614   -1.129738    1.574073
      2          6           0       -2.745328   -0.072452    1.474925
      3          7           0       -2.361082    0.231129    0.093287
      4          6           0       -3.184908    1.181286   -0.627935
      5          6           0       -2.732932    2.632086   -0.330189
      6          6           0       -1.282141    2.772710   -0.477891
      7          7           0       -0.126748    2.840846   -0.567163
      8          6           0       -1.707397   -0.744954   -0.683391
      9          8           0       -2.077906   -1.047257   -1.813992
     10          7           0       -0.618703   -1.332588   -0.074873
     11          6           0        0.002803   -2.429664   -0.839397
     12          6           0        1.246829   -2.927174   -0.107399
     13          6           0        2.317977   -1.820641    0.002540
     14          6           0        1.667369   -0.421814    0.085379
     15          6           0        0.292721   -0.526903    0.755991
     16          6           0        2.530885    0.612398    0.805630
     17          6           0        3.851616    0.865762    0.116639
     18          8           0        4.167846    0.491249   -0.991354
     19          8           0        4.678795    1.611648    0.892364
     20          1           0       -4.744905   -0.825392    1.024445
     21          1           0       -4.128942   -1.297466    2.619989
     22          1           0       -3.499882   -2.079608    1.155330
     23          1           0       -3.071745    0.865684    1.939214
     24          1           0       -1.867169   -0.400918    2.034324
     25          1           0       -3.088749    0.962521   -1.691467
     26          1           0       -4.247114    1.087941   -0.366833
     27          1           0       -3.244787    3.337792   -0.995004
     28          1           0       -2.993459    2.913791    0.697423
     29          1           0        0.259462   -2.086200   -1.849965
     30          1           0       -0.737029   -3.226521   -0.957267
     31          1           0        1.647072   -3.799750   -0.634196
     32          1           0        0.951929   -3.273747    0.891054
     33          1           0        2.934682   -1.997733    0.894024
     34          1           0        2.993896   -1.846397   -0.855817
     35          1           0        1.497980   -0.049434   -0.931481
     36          1           0        0.395076   -0.969662    1.757847
     37          1           0       -0.141010    0.465711    0.867972
     38          1           0        2.006053    1.576620    0.846839
     39          1           0        2.731400    0.320063    1.844409
     40          1           0        5.483809    1.756458    0.360406
 ---------------------------------------------------------------------

 SCF Done:  E(UB3LYP) =  -898.307176880     A.U. after   32 cycles

 The electronic state is 2-A.
 Alpha  occ. eigenvalues --  -19.09256 -19.03741 -18.99415 -14.24409 -14.23663
 Alpha  occ. eigenvalues --  -14.22070 -10.22842 -10.19811 -10.12247 -10.12149
 Alpha  occ. eigenvalues --  -10.12063 -10.11364 -10.11311 -10.11284 -10.10101
 Alpha  occ. eigenvalues --  -10.09409 -10.08898 -10.08311 -10.07020  -1.03254
 Alpha  occ. eigenvalues --   -0.95891  -0.94299  -0.85370  -0.83840  -0.81721
 Alpha  occ. eigenvalues --   -0.73664  -0.70718  -0.69266  -0.65855  -0.64684
 Alpha  occ. eigenvalues --   -0.60074  -0.57041  -0.55910  -0.54395  -0.51377
 Alpha  occ. eigenvalues --   -0.47308  -0.45363  -0.43771  -0.43148  -0.42478
 Alpha  occ. eigenvalues --   -0.41557  -0.40104  -0.39399  -0.38777  -0.37534
 Alpha  occ. eigenvalues --   -0.36725  -0.36115  -0.35125  -0.34400  -0.33463
 Alpha  occ. eigenvalues --   -0.32814  -0.32338  -0.31450  -0.31053  -0.30439
 Alpha  occ. eigenvalues --   -0.29992  -0.29523  -0.28636  -0.28024  -0.27878
 Alpha  occ. eigenvalues --   -0.27231  -0.26257  -0.25299  -0.24743  -0.24442
 Alpha  occ. eigenvalues --   -0.23990  -0.23624  -0.23332  -0.20505  -0.18540
 Alpha  occ. eigenvalues --   -0.15317  -0.14468   0.03619
 Alpha virt. eigenvalues --    0.04993   0.05862   0.07032   0.07293   0.07596
 Alpha virt. eigenvalues --    0.08176   0.08778   0.09385   0.09581   0.10082
 Alpha virt. eigenvalues --    0.10575   0.11056   0.11266   0.11598   0.11737

  Beta  occ. eigenvalues --  -19.09233 -19.03736 -18.99414 -14.24407 -14.23664
  Beta  occ. eigenvalues --  -14.22054 -10.22842 -10.19810 -10.12240 -10.12097
  Beta  occ. eigenvalues --  -10.12039 -10.11350 -10.11309 -10.11251 -10.10087
  Beta  occ. eigenvalues --  -10.09408 -10.08889 -10.08305 -10.06990  -1.03224
  Beta  occ. eigenvalues --   -0.95888  -0.94274  -0.85362  -0.83826  -0.81690
  Beta  occ. eigenvalues --   -0.73651  -0.70659  -0.69241  -0.65802  -0.64656
  Beta  occ. eigenvalues --   -0.60039  -0.56989  -0.55870  -0.54342  -0.51335
  Beta  occ. eigenvalues --   -0.47277  -0.45338  -0.43746  -0.43095  -0.42436
  Beta  occ. eigenvalues --   -0.41541  -0.40083  -0.39356  -0.38747  -0.37510
  Beta  occ. eigenvalues --   -0.36691  -0.36070  -0.35108  -0.34366  -0.33427
  Beta  occ. eigenvalues --   -0.32795  -0.32311  -0.31419  -0.31023  -0.30410
  Beta  occ. eigenvalues --   -0.29973  -0.29490  -0.28611  -0.27998  -0.27854
  Beta  occ. eigenvalues --   -0.27195  -0.26223  -0.25282  -0.24726  -0.24415
  Beta  occ. eigenvalues --   -0.23932  -0.23601  -0.23313  -0.20487  -0.18533
  Beta  occ. eigenvalues --   -0.15308  -0.14455
  Beta virt. eigenvalues --    0.05557   0.06132   0.06637   0.07439   0.07519
  Beta virt. eigenvalues --    0.07856   0.08856   0.09058   0.09566   0.09895
  Beta virt. eigenvalues --    0.10288   0.10701   0.11195   0.11530   0.11664

 Mulliken charges and spin densities:
               1          2
     1  C    0.790247  -1.335884
     2  C   -0.358002   0.244857
     3  N    0.001092   0.089476
     4  C    0.189191  -0.270577
     5  C    0.853860  -1.178825
     6  C   -0.026977   0.153785
     7  N   -0.318486   0.052426
     8  C    0.020339  -0.359233
     9  O   -0.290356   0.012378
    10  N    0.297814   0.034896
    11  C   -0.175410  -0.065792
    12  C   -0.261218  -0.214848
    13  C   -0.010856  -0.489269
    14  C    1.237037  -0.060292
    15  C   -1.562237   0.110747
    16  C   -0.511552  -0.247789
    17  C    0.234618  -0.186118
    18  O   -0.250959  -0.002626
    19  O   -0.142735   0.018019
    20  H    0.137862   0.002171
    21  H   -0.339777   0.493941
    22  H   -0.021829   0.181443
    23  H   -0.623995   0.804225
    24  H   -0.032878   0.189294
    25  H    0.280367  -0.085865
    26  H   -0.478354   0.645563
    27  H   -0.336577   0.539003
    28  H   -0.278393   0.485721
    29  H    0.204215  -0.009023
    30  H    0.128411   0.054111
    31  H    0.106088   0.075798
    32  H   -0.000633   0.156549
    33  H    0.030462   0.127110
    34  H    0.170400  -0.004610
    35  H    0.205775   0.054171
    36  H   -0.157684   0.357907
    37  H    0.295225  -0.121726
    38  H    0.135572   0.121634
    39  H   -0.086930   0.295129
    40  H   -0.052737   0.332121
 Sum of Mulliken charges =  -1.00000   1.00000

 Dipole moment (field-independent basis, Debye):
    X=              4.5573    Y=             -4.1554    Z=             -1.9384  Tot=              6.4648
 Quadrupole moment (field-independent basis, Debye-Ang):
   XX=           -203.6269   YY=           -160.7248   ZZ=           -160.7316
   XY=              4.6242   XZ=              9.4733   YZ=             -1.5990

 Summary of Natural Population Analysis:

                                       Natural Population
                Natural  -----------------------------------------------
    Atom  No    Charge         Core      Valence    Rydberg      Total
 -----------------------------------------------------------------------
      C    1   -0.29107      0.99966     2.28648    0.00493     3.29107
      C    2   -0.08329      0.99960     2.07222    0.01147     3.08329
      N    3   -0.29024      0.99966     2.77651    0.01407     3.79024
      C    4   -0.07788      0.99960     2.06581    0.01247     3.07788
      C    5   -0.25110      0.99954     2.24211    0.00945     3.25110
      C    6    0.17194      0.99965     1.81184    0.01657     2.82806
      N    7   -0.19486      0.99978     2.68405    0.01103     3.69486
      C    8    0.42441      0.99962     1.55217    0.02380     2.57559
      O    9   -0.33334      0.99988     3.32920    0.00426     4.33334
      N   10   -0.26961      0.99964     2.76003    0.00995     3.76961
      C   11   -0.08353      0.99962     2.07347    0.01044     3.08353
      C   12   -0.19790      0.99963     2.19040    0.00787     3.19790
      C   13   -0.19099      0.99962     2.18281    0.00857     3.19099
      C   14   -0.11833      0.99959     2.10894    0.00981     3.11833
      C   15   -0.08648      0.99957     2.07565    0.01125     3.08648
      C   16   -0.24174      0.99955     2.23337    0.00881     3.24174
      C   17    0.41130      0.99973     1.56391    0.02507     2.58870
      O   18   -0.30751      0.99987     3.30177    0.00588     4.30751
      O   19   -0.34476      0.99988     3.33890    0.00598     4.34476
      H   20    0.09914      0.00000     0.39984    0.00102     0.40086
      H   21    0.10239      0.00000     0.39649    0.00112     0.39761
      H   22    0.09843      0.00000     0.40048    0.00109     0.40157
      H   23    0.09904      0.00000     0.39783    0.00313     0.40096
      H   24    0.09935      0.00000     0.39878    0.00186     0.40065
      H   25    0.11508      0.00000     0.38356    0.00136     0.38492
      H   26    0.09909      0.00000     0.39923    0.00168     0.40091
      H   27    0.12199      0.00000     0.37626    0.00176     0.37801
      H   28    0.12457      0.00000     0.37142    0.00401     0.37543
      H   29    0.09592      0.00000     0.40303    0.00105     0.40408
      H   30    0.10243      0.00000     0.39671    0.00086     0.39757
      H   31    0.10159      0.00000     0.39771    0.00071     0.39841
      H   32    0.09783      0.00000     0.40102    0.00115     0.40217
      H   33    0.09596      0.00000     0.40309    0.00095     0.40404
      H   34    0.10709      0.00000     0.39197    0.00094     0.39291
      H   35    0.10833      0.00000     0.38996    0.00171     0.39167
      H   36    0.09158      0.00000     0.40685    0.00157     0.40842
      H   37    0.11534      0.00000     0.38229    0.00238     0.38466
      H   38    0.12855      0.00000     0.37026    0.00119     0.37145
      H   39    0.11176      0.00000     0.38707    0.00117     0.38824
      H   40    0.23952      0.00000     0.25580    0.00468     0.26048
 =======================================================================
   * Total *    0.00000     18.99368    52.75926    0.24706    72.00000

 Normal termination of Gaussian 16 at Sat Dec 12 11:58:22 2020.
