 Gaussian 16, Revision A.03,

 -----------------------------------------------------------
 # opt freq B3LYP/6-31G(d) empiricaldispersion=gd3bj scf=xqc
 -----------------------------------------------------------

 -------------------------------
 CID_131103063_JID_4397_neutraal
 -------------------------------
 Symbolic Z-matrix:
 Charge =  0 Multiplicity = 1

 SCF Done:  E(RB3LYP) =  -681.578367460     A.U. after   15 cycles
 SCF Done:  E(RB3LYP) =  -681.581026257     A.U. after   13 cycles
 SCF Done:  E(RB3LYP) =  -681.585397258     A.U. after   13 cycles
 SCF Done:  E(RB3LYP) =  -681.587608941     A.U. after   13 cycles
 SCF Done:  E(RB3LYP) =  -681.588714721     A.U. after   13 cycles
 SCF Done:  E(RB3LYP) =  -681.588927595     A.U. after   13 cycles
 SCF Done:  E(RB3LYP) =  -681.589174097     A.U. after   13 cycles
 SCF Done:  E(RB3LYP) =  -681.589717652     A.U. after   13 cycles
 SCF Done:  E(RB3LYP) =  -681.590712228     A.U. after   13 cycles
 SCF Done:  E(RB3LYP) =  -681.590937469     A.U. after   13 cycles
 SCF Done:  E(RB3LYP) =  -681.591379432     A.U. after    9 cycles
 SCF Done:  E(RB3LYP) =  -681.591383769     A.U. after    9 cycles
 SCF Done:  E(RB3LYP) =  -681.591387962     A.U. after   10 cycles
 SCF Done:  E(RB3LYP) =  -681.591391308     A.U. after   10 cycles
 SCF Done:  E(RB3LYP) =  -681.591392472     A.U. after    9 cycles
 SCF Done:  E(RB3LYP) =  -681.591392862     A.U. after    8 cycles
 Optimization completed.
    -- Stationary point found.
 Normal termination of Gaussian 16 at Thu Dec 10 09:31:04 2020.

 --------------------------------------------------------------------
 #N Geom=AllCheck Guess=TCheck SCRF=Check GenChk RB3LYP/6-31G(d) Freq
 --------------------------------------------------------------------

 Structure from the checkpoint file:  "JID_4397.chk"
 -------------------------------
 CID_131103063_JID_4397_neutraal
 -------------------------------
 Charge =  0 Multiplicity = 1

 SCF Done:  E(RB3LYP) =  -681.591392862     A.U. after    1 cycles

  Exact polarizability: 153.263  -1.696 134.233   4.547   3.559  66.197
 Approx polarizability: 212.938   3.609 235.642   6.987   9.496 103.745

                      1                      2                      3
                      A                      A                      A
 Frequencies --     36.4712                49.9976                80.2303
 Red. masses --      5.5300                 6.2239                 4.1650
 Frc consts  --      0.0043                 0.0092                 0.0158
 IR Inten    --      1.2806                 3.6354                 0.5834

                      4                      5                      6
                      A                      A                      A
 Frequencies --    107.7112               131.9140               191.2184
 Red. masses --      4.9851                 5.8420                 4.2025
 Frc consts  --      0.0341                 0.0599                 0.0905
 IR Inten    --      1.9528                 2.4711                 1.6035

                      7                      8                      9
                      A                      A                      A
 Frequencies --    236.3422               250.4516               261.7546
 Red. masses --      5.4577                 1.1044                 4.1668
 Frc consts  --      0.1796                 0.0408                 0.1682
 IR Inten    --      4.9592                 1.0850                 1.5923

                     10                     11                     12
                      A                      A                      A
 Frequencies --    303.9578               385.3215               401.6858
 Red. masses --      5.2041                 3.0273                 5.8380
 Frc consts  --      0.2833                 0.2648                 0.5550
 IR Inten    --      5.7220                 4.7856                 2.7657

                     13                     14                     15
                      A                      A                      A
 Frequencies --    418.6217               429.1737               444.1451
 Red. masses --      2.5797                 2.7463                 2.4796
 Frc consts  --      0.2664                 0.2980                 0.2882
 IR Inten    --      8.4369                37.8833                 3.3648

                     16                     17                     18
                      A                      A                      A
 Frequencies --    470.0676               564.8634               572.6440
 Red. masses --      1.4658                 4.1821                 4.1252
 Frc consts  --      0.1908                 0.7862                 0.7970
 IR Inten    --    167.5574                25.5178                45.8780

                     19                     20                     21
                      A                      A                      A
 Frequencies --    584.6550               608.0344               609.0386
 Red. masses --      3.4096                 1.3288                 3.1491
 Frc consts  --      0.6867                 0.2894                 0.6882
 IR Inten    --     45.2421                62.6157                12.7585

                     22                     23                     24
                      A                      A                      A
 Frequencies --    623.7294               650.1428               696.1560
 Red. masses --      1.4969                 1.0773                 3.4021
 Frc consts  --      0.3431                 0.2683                 0.9714
 IR Inten    --    108.6610                26.0219                44.0461

                     25                     26                     27
                      A                      A                      A
 Frequencies --    729.8685               744.6106               816.5626
 Red. masses --      5.0552                 5.4489                 7.7473
 Frc consts  --      1.5866                 1.7800                 3.0435
 IR Inten    --      9.0657                32.7712                21.9849

                     28                     29                     30
                      A                      A                      A
 Frequencies --    821.1706               853.6592               913.9473
 Red. masses --      3.0246                 1.2679                 2.8643
 Frc consts  --      1.2017                 0.5444                 1.4096
 IR Inten    --      1.5633                 9.2610                 1.0294

                     31                     32                     33
                      A                      A                      A
 Frequencies --    934.3318               968.9470               984.1924
 Red. masses --      2.9284                 1.4069                 2.0213
 Frc consts  --      1.5062                 0.7782                 1.1536
 IR Inten    --     18.3734                 0.6278                10.6193

                     34                     35                     36
                      A                      A                      A
 Frequencies --   1032.0588              1056.1652              1083.3605
 Red. masses --      1.9193                 2.1910                 2.2981
 Frc consts  --      1.2045                 1.4400                 1.5891
 IR Inten    --     16.6026                 4.0209                99.1593

                     37                     38                     39
                      A                      A                      A
 Frequencies --   1125.9706              1154.4611              1181.4368
 Red. masses --      1.9303                 2.2974                 2.8852
 Frc consts  --      1.4418                 1.8041                 2.3727
 IR Inten    --     11.3271                 3.5974                14.8314

                     40                     41                     42
                      A                      A                      A
 Frequencies --   1204.3691              1272.8084              1287.5844
 Red. masses --      2.7151                 2.0914                 1.8655
 Frc consts  --      2.3203                 1.9963                 1.8222
 IR Inten    --     39.2968                11.6060                92.2519

                     43                     44                     45
                      A                      A                      A
 Frequencies --   1302.4274              1343.1042              1375.0147
 Red. masses --      1.9974                 1.2269                 1.7714
 Frc consts  --      1.9963                 1.3040                 1.9733
 IR Inten    --     37.3783                 7.4906                 2.5920

                     46                     47                     48
                      A                      A                      A
 Frequencies --   1380.5300              1400.2788              1428.7961
 Red. masses --      1.3011                 1.4845                 1.2689
 Frc consts  --      1.4611                 1.7150                 1.5263
 IR Inten    --     33.6977                67.9009                30.7425

                     49                     50                     51
                      A                      A                      A
 Frequencies --   1444.7023              1479.0130              1492.9692
 Red. masses --      1.7192                 2.8589                 1.6838
 Frc consts  --      2.1142                 3.6846                 2.2113
 IR Inten    --     49.6615                83.3495                41.6953

                     52                     53                     54
                      A                      A                      A
 Frequencies --   1505.2917              1514.4108              1518.3242
 Red. masses --      1.4826                 1.6641                 1.2337
 Frc consts  --      1.9793                 2.2486                 1.6757
 IR Inten    --     12.2418                44.3179                42.9928

                     55                     56                     57
                      A                      A                      A
 Frequencies --   1522.2750              1537.2408              1595.0071
 Red. masses --      1.3872                 1.0543                 6.0984
 Frc consts  --      1.8939                 1.4679                 9.1410
 IR Inten    --     66.3099                 1.5235                49.1119

                     58                     59                     60
                      A                      A                      A
 Frequencies --   1599.8849              1661.9584              1734.2723
 Red. masses --      3.0621                 2.3527                 5.3418
 Frc consts  --      4.6179                 3.8288                 9.4662
 IR Inten    --     53.8380               403.6753               322.2218

                     61                     62                     63
                      A                      A                      A
 Frequencies --   2942.4758              3051.1872              3061.5344
 Red. masses --      1.0826                 1.0390                 1.0691
 Frc consts  --      5.5227                 5.6990                 5.9040
 IR Inten    --     93.7529                14.6678                51.7256

                     64                     65                     66
                      A                      A                      A
 Frequencies --   3120.4936              3137.0172              3157.0600
 Red. masses --      1.1025                 1.1010                 1.0935
 Frc consts  --      6.3250                 6.3836                 6.4212
 IR Inten    --     40.7584                21.1573                11.3672

                     67                     68                     69
                      A                      A                      A
 Frequencies --   3180.2789              3213.9309              3521.7482
 Red. masses --      1.0897                 1.0950                 1.0503
 Frc consts  --      6.4938                 6.6640                 7.6747
 IR Inten    --     18.2545                22.1352                98.6303

                     70                     71                     72
                      A                      A                      A
 Frequencies --   3542.6294              3591.8772              3679.5321
 Red. masses --      1.0666                 1.0752                 1.0996
 Frc consts  --      7.8866                 8.1728                 8.7718
 IR Inten    --    599.7885                35.3804                95.1572

 - Thermochemistry -
 -------------------
 Temperature   298.150 Kelvin.  Pressure   1.00000 Atm.
 Atom     1 has atomic number  6 and mass  12.00000

 Molecular mass:   196.09603 amu.
 Principal axes and moments of inertia in atomic units:
                           1         2         3
     Eigenvalues --  1441.544513806.850024912.47768
           X            0.99999  -0.00154   0.00495
           Y            0.00153   1.00000   0.00211
           Z           -0.00495  -0.00211   0.99999
 This molecule is an asymmetric top.
 Rotational symmetry number  1.
 Warning -- assumption of classical behavior for rotation
           may cause significant error
 Rotational temperatures (Kelvin)      0.06008     0.02275     0.01763
 Rotational constants (GHZ):           1.25195     0.47408     0.36738
 Zero-point vibrational energy     558112.4 (Joules/Mol)
                                  133.39205 (Kcal/Mol)
 Warning -- explicit consideration of  21 degrees of freedom as
           vibrations may cause significant error
 Vibrational temperatures:     52.47    71.94   115.43   154.97   189.79
          (Kelvin)            275.12   340.04   360.34   376.61   437.33
                              554.39   577.94   602.30   617.49   639.03
                              676.32   812.71   823.91   841.19   874.83
                              876.27   897.41   935.41  1001.61  1050.12
                             1071.33  1174.85  1181.48  1228.23  1314.97
                             1344.30  1394.10  1416.03  1484.90  1519.59
                             1558.71  1620.02  1661.01  1699.82  1732.82
                             1831.29  1852.55  1873.90  1932.43  1978.34
                             1986.27  2014.69  2055.72  2078.60  2127.97
                             2148.05  2165.78  2178.90  2184.53  2190.21
                             2211.75  2294.86  2301.88  2391.19  2495.23
                             4233.57  4389.98  4404.87  4489.69  4513.47
                             4542.31  4575.71  4624.13  5067.01  5097.05
                             5167.91  5294.03

 Zero-point correction=                           0.212574 (Hartree/Particle)
 Thermal correction to Energy=                    0.225556
 Thermal correction to Enthalpy=                  0.226500
 Thermal correction to Gibbs Free Energy=         0.172535
 Sum of electronic and zero-point Energies=           -681.378819
 Sum of electronic and thermal Energies=              -681.365837
 Sum of electronic and thermal Enthalpies=            -681.364893
 Sum of electronic and thermal Free Energies=         -681.418858

                     E (Thermal)             CV                S
                      KCal/Mol        Cal/Mol-Kelvin    Cal/Mol-Kelvin
 Total                  141.538             49.829            113.579
 Electronic               0.000              0.000              0.000
 Translational            0.889              2.981             41.725
 Rotational               0.889              2.981             31.667
 Vibrational            139.761             43.868             40.187
 Vibration     1          0.594              1.982              5.442
 Vibration     2          0.595              1.978              4.817
 Vibration     3          0.600              1.963              3.885
 Vibration     4          0.606              1.943              3.310
 Vibration     5          0.612              1.921              2.918
 Vibration     6          0.634              1.852              2.216
 Vibration     7          0.655              1.785              1.830
 Vibration     8          0.663              1.762              1.727
 Vibration     9          0.669              1.743              1.650
 Vibration    10          0.695              1.666              1.395
 Vibration    11          0.754              1.502              1.018
 Vibration    12          0.767              1.466              0.956
 Vibration    13          0.781              1.430              0.897
 Vibration    14          0.791              1.407              0.861
 Vibration    15          0.804              1.374              0.814
 Vibration    16          0.827              1.316              0.737
 Vibration    17          0.921              1.107              0.514
 Vibration    18          0.929              1.090              0.499
 Vibration    19          0.942              1.065              0.477
 Vibration    20          0.967              1.015              0.436
 Vibration    21          0.968              1.013              0.434

                           ! Non-Optimized Parameters !
 Normal termination of Gaussian 16 at Thu Dec 10 09:38:32 2020.

 ----------------------------------------------------------------------
 # B3LYP/6-311++G(d,p) empiricaldispersion=gd3bj scf=xqc pop=npa geom=c
 heck
 ----------------------------------------------------------------------

 ---------------------------------------
 CID_131103063_JID_4397_Energie_neutraal
 ---------------------------------------
 Structure from the checkpoint file:  "JID_4397.chk"
 Charge =  0 Multiplicity = 1

 SCF Done:  E(RB3LYP) =  -681.800447808     A.U. after   15 cycles
 Normal termination of Gaussian 16 at Thu Dec 10 09:41:52 2020.

 ----------------------------------------------------------------------
 # B3LYP/6-311++G(d,p) empiricaldispersion=gd3bj scf=xqc pop=npa geom=c
 heck
 ----------------------------------------------------------------------

 -------------------------------------
 CID_131103063_JID_4397_Energie_kation
 -------------------------------------
 Structure from the checkpoint file:  "JID_4397.chk"
 Charge =  1 Multiplicity = 2

 SCF Done:  E(UB3LYP) =  -681.489187064     A.U. after   28 cycles
 Normal termination of Gaussian 16 at Thu Dec 10 09:50:43 2020.
 Gaussian 16:  ES64L-G16RevA.03 25-Dec-2016

 ----------------------------------------------------------------------
 # B3LYP/6-311++G(d,p) empiricaldispersion=gd3bj scf=xqc pop=npa geom=c
 heck
 ----------------------------------------------------------------------

 ------------------------------------
 CID_131103063_JID_4397_Energie_anion
 ------------------------------------
 Structure from the checkpoint file:  "JID_4397.chk"
 Charge = -1 Multiplicity = 2

                         Standard orientation:
 ---------------------------------------------------------------------
 Center     Atomic      Atomic             Coordinates (Angstroms)
 Number     Number       Type             X           Y           Z
 ---------------------------------------------------------------------
      1          6           0       -4.082699    0.107844    0.279281
      2          6           0       -2.898568   -0.712754   -0.221422
      3          6           0       -1.948000    0.110641   -1.113638
      4          7           0       -1.276140    1.195899   -0.411279
      5          6           0       -0.017245    1.311151    0.084454
      6          8           0        0.356051    2.389253    0.570505
      7          6           0        0.941063    0.157197    0.014821
      8          7           0        0.487531   -1.096897    0.063578
      9          6           0        1.359385   -2.109190    0.027898
     10          6           0        2.727097   -1.854144   -0.069298
     11          7           0        3.226145   -0.622379   -0.091070
     12          6           0        2.353399    0.404440   -0.025574
     13          7           0        2.870854    1.653583   -0.035969
     14          8           0       -2.237922   -1.239935    0.909266
     15          1           0       -3.732911    0.949528    0.887239
     16          1           0       -4.719896   -0.515127    0.913539
     17          1           0       -4.685698    0.489298   -0.553206
     18          1           0       -3.283757   -1.524869   -0.866581
     19          1           0       -1.189678   -0.538653   -1.551155
     20          1           0       -2.520778    0.548726   -1.940232
     21          1           0       -1.812881    2.038345   -0.242507
     22          1           0        0.960374   -3.117174    0.081067
     23          1           0        3.443599   -2.671824   -0.119154
     24          1           0        3.872282    1.725200    0.074170
     25          1           0        2.258651    2.399954    0.278157
     26          1           0       -1.299662   -1.380494    0.664534
 ---------------------------------------------------------------------

 SCF Done:  E(UB3LYP) =  -681.820855303     A.U. after   22 cycles

 The electronic state is 2-A.
 Alpha  occ. eigenvalues --  -18.97688 -18.93394 -14.19666 -14.17457 -14.14025
 Alpha  occ. eigenvalues --  -14.13519 -10.11673 -10.10618 -10.09426 -10.08635
 Alpha  occ. eigenvalues --  -10.05673 -10.03995 -10.03692 -10.03469  -0.89284
 Alpha  occ. eigenvalues --   -0.88590  -0.82306  -0.78616  -0.76831  -0.72373
 Alpha  occ. eigenvalues --   -0.65223  -0.60225  -0.58193  -0.51905  -0.48814
 Alpha  occ. eigenvalues --   -0.48175  -0.45109  -0.39607  -0.39065  -0.37398
 Alpha  occ. eigenvalues --   -0.36752  -0.35627  -0.34288  -0.32177  -0.31886
 Alpha  occ. eigenvalues --   -0.29803  -0.28730  -0.28102  -0.26990  -0.26330
 Alpha  occ. eigenvalues --   -0.25055  -0.24800  -0.24461  -0.21227  -0.19950
 Alpha  occ. eigenvalues --   -0.15776  -0.14690  -0.14581  -0.12140  -0.11961
 Alpha  occ. eigenvalues --   -0.09040  -0.07458   0.04310
 Alpha virt. eigenvalues --    0.07504   0.09584   0.10019   0.10139   0.10951
 Alpha virt. eigenvalues --    0.11868   0.12571   0.13199   0.13476   0.13662
 Alpha virt. eigenvalues --    0.14666   0.15167   0.15706   0.17222   0.17493

  Beta  occ. eigenvalues --  -18.97689 -18.93169 -14.19611 -14.17477 -14.13325
  Beta  occ. eigenvalues --  -14.13101 -10.11535 -10.10614 -10.09507 -10.08638
  Beta  occ. eigenvalues --  -10.05670 -10.04108 -10.03439 -10.03170  -0.89111
  Beta  occ. eigenvalues --   -0.88378  -0.81823  -0.78380  -0.76355  -0.71561
  Beta  occ. eigenvalues --   -0.65193  -0.59767  -0.58143  -0.51092  -0.48572
  Beta  occ. eigenvalues --   -0.48119  -0.44936  -0.39571  -0.38824  -0.37205
  Beta  occ. eigenvalues --   -0.36533  -0.35441  -0.34193  -0.32015  -0.31816
  Beta  occ. eigenvalues --   -0.29513  -0.28469  -0.27388  -0.26649  -0.26047
  Beta  occ. eigenvalues --   -0.24975  -0.24313  -0.23997  -0.20988  -0.18637
  Beta  occ. eigenvalues --   -0.14768  -0.13969  -0.13215  -0.11751  -0.11277
  Beta  occ. eigenvalues --   -0.08447  -0.06388
  Beta virt. eigenvalues --    0.07421   0.09505   0.09944   0.10104   0.10914
  Beta virt. eigenvalues --    0.11421   0.11817   0.12501   0.13195   0.13614
  Beta virt. eigenvalues --    0.13967   0.14642   0.15141   0.15675   0.17519

 Mulliken charges and spin densities:
               1          2
     1  C   -0.574113  -0.032427
     2  C   -0.074969   0.002024
     3  C   -0.228127  -0.028302
     4  N   -0.226176   0.014931
     5  C   -0.101945   0.058285
     6  O   -0.450983   0.075668
     7  C   -0.193336   0.235203
     8  N   -0.161914   0.309448
     9  C    0.020041  -0.027426
    10  C   -0.295487   0.234508
    11  N   -0.234711   0.170957
    12  C   -0.091910  -0.067567
    13  N   -0.336732  -0.000650
    14  O   -0.293085   0.002417
    15  H    0.141050   0.011360
    16  H    0.127324   0.011150
    17  H    0.096196   0.007605
    18  H    0.098899   0.016436
    19  H    0.230203  -0.004896
    20  H    0.107568   0.022928
    21  H    0.285092   0.000861
    22  H    0.091580   0.012841
    23  H    0.116818  -0.021000
    24  H    0.243389  -0.002763
    25  H    0.286194   0.000046
    26  H    0.419134  -0.001637
 Sum of Mulliken charges =  -1.00000   1.00000

 Dipole moment (field-independent basis, Debye):
    X=             -4.3807    Y=              0.5868    Z=             -2.2027  Tot=              4.9383
 Quadrupole moment (field-independent basis, Debye-Ang):
   XX=           -113.7466   YY=           -102.5624   ZZ=            -94.6473
   XY=              1.3593   XZ=              6.9104   YZ=              0.0109

 Summary of Natural Population Analysis:

                                       Natural Population
                Natural  -----------------------------------------------
    Atom  No    Charge         Core      Valence    Rydberg      Total
 -----------------------------------------------------------------------
      C    1   -0.29493      0.99965     2.28913    0.00615     3.29493
      C    2    0.06260      0.99959     1.92437    0.01344     2.93740
      C    3   -0.10072      0.99960     2.09052    0.01060     3.10072
      N    4   -0.31060      0.99966     2.80061    0.01033     3.81060
      C    5    0.35372      0.99963     1.62364    0.02301     2.64628
      O    6   -0.33833      0.99987     3.33206    0.00640     4.33833
      C    7    0.05561      0.99947     1.93061    0.01431     2.94439
      N    8   -0.15626      0.99965     2.64128    0.01533     3.65626
      C    9   -0.04949      0.99960     2.03630    0.01360     3.04949
      C   10    0.06487      0.99961     1.92110    0.01443     2.93513
      N   11   -0.21364      0.99968     2.69826    0.01571     3.71364
      C   12    0.18545      0.99956     1.79769    0.01730     2.81455
      N   13   -0.40614      0.99968     2.89706    0.00940     3.90614
      O   14   -0.39439      0.99988     3.38654    0.00796     4.39439
      H   15    0.09994      0.00000     0.39870    0.00136     0.40006
      H   16    0.09979      0.00000     0.39923    0.00098     0.40021
      H   17    0.08996      0.00000     0.40882    0.00123     0.41004
      H   18    0.06401      0.00000     0.43403    0.00195     0.43599
      H   19    0.11454      0.00000     0.38419    0.00127     0.38546
      H   20    0.08647      0.00000     0.41223    0.00131     0.41353
      H   21    0.18407      0.00000     0.31324    0.00269     0.31593
      H   22    0.08168      0.00000     0.41701    0.00131     0.41832
      H   23    0.07501      0.00000     0.42336    0.00164     0.42499
      H   24    0.18469      0.00000     0.31353    0.00178     0.31531
      H   25    0.21052      0.00000     0.28807    0.00141     0.28948
      H   26    0.25160      0.00000     0.24537    0.00304     0.24840
 =======================================================================
   * Total *    0.00000     13.99514    37.80693    0.19792    52.00000

 Normal termination of Gaussian 16 at Thu Dec 10 09:57:42 2020.
