 Gaussian 16, Revision A.03,

 -----------------------------------------------------------
 # opt freq B3LYP/6-31G(d) empiricaldispersion=gd3bj scf=xqc
 -----------------------------------------------------------

 ------------------------------
 CID_105315496_JID_858_neutraal
 ------------------------------
 Symbolic Z-matrix:
 Charge =  0 Multiplicity = 1

 SCF Done:  E(RB3LYP) =  -811.162764498     A.U. after   16 cycles
 SCF Done:  E(RB3LYP) =  -811.187930960     A.U. after   13 cycles
 SCF Done:  E(RB3LYP) =  -811.190620805     A.U. after   14 cycles
 SCF Done:  E(RB3LYP) =  -811.179385446     A.U. after   16 cycles
 SCF Done:  E(RB3LYP) =  -811.191818524     A.U. after   12 cycles
 SCF Done:  E(RB3LYP) =  -811.191473963     A.U. after   13 cycles
 SCF Done:  E(RB3LYP) =  -811.192198305     A.U. after   14 cycles
 SCF Done:  E(RB3LYP) =  -811.193566904     A.U. after   12 cycles
 SCF Done:  E(RB3LYP) =  -811.194699827     A.U. after   13 cycles
 SCF Done:  E(RB3LYP) =  -811.196802692     A.U. after   14 cycles
 SCF Done:  E(RB3LYP) =  -811.198066754     A.U. after   11 cycles
 SCF Done:  E(RB3LYP) =  -811.198073503     A.U. after   11 cycles
 SCF Done:  E(RB3LYP) =  -811.198074014     A.U. after    9 cycles
 SCF Done:  E(RB3LYP) =  -811.198074293     A.U. after   10 cycles
 SCF Done:  E(RB3LYP) =  -811.198074325     A.U. after    8 cycles
 Optimization completed.
    -- Stationary point found.
 Normal termination of Gaussian 16 at Tue Dec  8 13:41:59 2020.

 --------------------------------------------------------------------
 #N Geom=AllCheck Guess=TCheck SCRF=Check GenChk RB3LYP/6-31G(d) Freq
 --------------------------------------------------------------------

 Structure from the checkpoint file:  "JID_858.chk"
 ------------------------------
 CID_105315496_JID_858_neutraal
 ------------------------------
 Charge =  0 Multiplicity = 1

 SCF Done:  E(RB3LYP) =  -811.198074325     A.U. after    1 cycles

  Exact polarizability: 106.191  -5.203  85.801   6.174   2.202  68.921
 Approx polarizability: 169.120  -3.615 134.589  16.676  13.200 134.989

                      1                      2                      3
                      A                      A                      A
 Frequencies --     25.1380                85.2659               118.0128
 Red. masses --      6.8745                 6.1362                 4.1326
 Frc consts  --      0.0026                 0.0263                 0.0339
 IR Inten    --      5.4720                 0.6191                 5.1834

                      4                      5                      6
                      A                      A                      A
 Frequencies --    149.5869               197.2257               263.6829
 Red. masses --      4.3190                 3.2636                 6.2225
 Frc consts  --      0.0569                 0.0748                 0.2549
 IR Inten    --      1.1706                21.1928                 0.9023

                      7                      8                      9
                      A                      A                      A
 Frequencies --    321.6988               358.7891               411.5118
 Red. masses --      2.5435                 1.5279                 6.8904
 Frc consts  --      0.1551                 0.1159                 0.6875
 IR Inten    --     17.2986                45.0452                 3.4035

                     10                     11                     12
                      A                      A                      A
 Frequencies --    477.1052               492.1540               526.0889
 Red. masses --      5.3805                13.5703                 7.6238
 Frc consts  --      0.7216                 1.9366                 1.2432
 IR Inten    --      9.5569                27.9960                 0.6259

                     13                     14                     15
                      A                      A                      A
 Frequencies --    542.4626               606.4889               641.4055
 Red. masses --      7.4368                 1.2482                 1.2299
 Frc consts  --      1.2894                 0.2705                 0.2981
 IR Inten    --      1.4112                39.3306                34.1393

                     16                     17                     18
                      A                      A                      A
 Frequencies --    688.6341               738.0543               790.0898
 Red. masses --      4.4179                 4.6245                 2.4675
 Frc consts  --      1.2344                 1.4842                 0.9075
 IR Inten    --     12.1196                 4.7824                 9.3208

                     19                     20                     21
                      A                      A                      A
 Frequencies --    808.6667               846.4060               887.2781
 Red. masses --      1.7522                 2.7166                 4.4963
 Frc consts  --      0.6751                 1.1467                 2.0856
 IR Inten    --     24.0742               114.6798                30.0926

                     22                     23                     24
                      A                      A                      A
 Frequencies --    942.3251               998.1889              1026.3688
 Red. masses --      2.8861                 3.3842                 2.9022
 Frc consts  --      1.5100                 1.9867                 1.8013
 IR Inten    --    136.6039                13.8368                27.6075

                     25                     26                     27
                      A                      A                      A
 Frequencies --   1116.1432              1143.2766              1203.0539
 Red. masses --      2.0506                 1.5720                 2.6806
 Frc consts  --      1.5051                 1.2106                 2.2859
 IR Inten    --     20.0895                 8.8214                25.1833

                     28                     29                     30
                      A                      A                      A
 Frequencies --   1276.7075              1305.7341              1339.9534
 Red. masses --      2.3509                 1.3740                 1.3063
 Frc consts  --      2.2577                 1.3802                 1.3818
 IR Inten    --      7.7499                12.0205                 3.4540

                     31                     32                     33
                      A                      A                      A
 Frequencies --   1366.7045              1391.4830              1527.9271
 Red. masses --      1.6080                 8.9918                 3.2480
 Frc consts  --      1.7696                10.2578                 4.4676
 IR Inten    --     32.5253                48.9366                 6.8394

                     34                     35                     36
                      A                      A                      A
 Frequencies --   1529.9261              1701.6111              2247.1330
 Red. masses --      1.4329                 1.0800                 5.9389
 Frc consts  --      1.9762                 1.8424                17.6690
 IR Inten    --      1.3172                23.7927                 1.1145

                     37                     38                     39
                      A                      A                      A
 Frequencies --   3072.3911              3281.8971              3422.1748
 Red. masses --      1.0836                 1.0949                 1.0566
 Frc consts  --      6.0267                 6.9484                 7.2906
 IR Inten    --      7.0943                 2.6714                 8.1561

                     40                     41                     42
                      A                      A                      A
 Frequencies --   3436.8312              3495.9436              3554.2800
 Red. masses --      1.0708                 1.1616                 1.0897
 Frc consts  --      7.4521                 8.3643                 8.1109
 IR Inten    --      0.0044                58.3946                 0.3231

 - Thermochemistry -
 -------------------
 Temperature   298.150 Kelvin.  Pressure   1.00000 Atm.
 Atom     1 has atomic number  6 and mass  12.00000

 Molecular mass:   154.03132 amu.
 Principal axes and moments of inertia in atomic units:
                           1         2         3
     Eigenvalues --   995.949832155.585572711.21515
           X            0.99995   0.00660   0.00724
           Y           -0.00661   0.99998   0.00037
           Z           -0.00724  -0.00042   0.99997
 This molecule is an asymmetric top.
 Rotational symmetry number  1.
 Warning -- assumption of classical behavior for rotation
           may cause significant error
 Rotational temperatures (Kelvin)      0.08697     0.04018     0.03195
 Rotational constants (GHZ):           1.81208     0.83724     0.66566
 Zero-point vibrational energy     301194.6 (Joules/Mol)
                                   71.98723 (Kcal/Mol)
 Warning -- explicit consideration of  14 degrees of freedom as
           vibrations may cause significant error
 Vibrational temperatures:     36.17   122.68   169.79   215.22   283.76
          (Kelvin)            379.38   462.85   516.22   592.07   686.45
                              708.10   756.92   780.48   872.60   922.84
                              990.79  1061.90  1136.76  1163.49  1217.79
                             1276.60  1355.80  1436.17  1476.72  1605.88
                             1644.92  1730.93  1836.90  1878.66  1927.89
                             1966.38  2002.03  2198.35  2201.22  2448.24
                             3233.12  4420.49  4721.92  4923.75  4944.83
                             5029.88  5113.82

 Zero-point correction=                           0.114719 (Hartree/Particle)
 Thermal correction to Energy=                    0.124523
 Thermal correction to Enthalpy=                  0.125468
 Thermal correction to Gibbs Free Energy=         0.078269
 Sum of electronic and zero-point Energies=           -811.083355
 Sum of electronic and thermal Energies=              -811.073551
 Sum of electronic and thermal Enthalpies=            -811.072607
 Sum of electronic and thermal Free Energies=         -811.119806

                     E (Thermal)             CV                S
                      KCal/Mol        Cal/Mol-Kelvin    Cal/Mol-Kelvin
 Total                   78.140             35.575             99.339
 Electronic               0.000              0.000              0.000
 Translational            0.889              2.981             41.006
 Rotational               0.889              2.981             30.144
 Vibrational             76.362             29.614             28.189
 Vibration     1          0.593              1.985              6.180
 Vibration     2          0.601              1.959              3.766
 Vibration     3          0.608              1.934              3.133
 Vibration     4          0.618              1.903              2.677
 Vibration     5          0.637              1.844              2.159
 Vibration     6          0.670              1.739              1.637
 Vibration     7          0.707              1.632              1.301
 Vibration     8          0.734              1.557              1.127
 Vibration     9          0.775              1.445              0.921
 Vibration    10          0.834              1.301              0.718
 Vibration    11          0.848              1.267              0.678
 Vibration    12          0.881              1.192              0.596
 Vibration    13          0.898              1.156              0.560
 Vibration    14          0.965              1.018              0.439

 Optimization completed.
    -- Stationary point found.
 Normal termination of Gaussian 16 at Tue Dec  8 13:45:47 2020.

 ----------------------------------------------------------------------
 # B3LYP/6-311++G(d,p) empiricaldispersion=gd3bj scf=xqc pop=npa geom=c
 heck
 ----------------------------------------------------------------------

 --------------------------------------
 CID_105315496_JID_858_Energie_neutraal
 --------------------------------------
 Structure from the checkpoint file:  "JID_858.chk"
 Charge =  0 Multiplicity = 1

 SCF Done:  E(RB3LYP) =  -811.351528791     A.U. after   17 cycles
 Normal termination of Gaussian 16 at Tue Dec  8 13:49:57 2020.

 ----------------------------------------------------------------------
 # B3LYP/6-311++G(d,p) empiricaldispersion=gd3bj scf=xqc pop=npa geom=c
 heck
 ----------------------------------------------------------------------

 ------------------------------------
 CID_105315496_JID_858_Energie_kation
 ------------------------------------
 Structure from the checkpoint file:  "JID_858.chk"
 Charge =  1 Multiplicity = 2

 SCF Done:  E(UB3LYP) =  -811.018303343     A.U. after   33 cycles
 SCF Done:  E(UB3LYP) =  -811.018303343     a.u. after    1 cycles
 Normal termination of Gaussian 16 at Tue Dec  8 13:57:23 2020.
 Gaussian 16:  ES64L-G16RevA.03 25-Dec-2016

 ----------------------------------------------------------------------
 # B3LYP/6-311++G(d,p) empiricaldispersion=gd3bj scf=xqc pop=npa geom=c
 heck
 ----------------------------------------------------------------------

 -----------------------------------
 CID_105315496_JID_858_Energie_anion
 -----------------------------------
 Structure from the checkpoint file:  "JID_858.chk"
 Charge = -1 Multiplicity = 2

                         Standard orientation:
 ---------------------------------------------------------------------
 Center     Atomic      Atomic             Coordinates (Angstroms)
 Number     Number       Type             X           Y           Z
 ---------------------------------------------------------------------
      1          6           0        2.422577   -2.364426    0.418716
      2          6           0        1.956266   -1.334157   -0.000571
      3          6           0        1.356811   -0.086678   -0.491952
      4          6           0       -0.142335   -0.083631   -0.209528
      5          6           0       -1.155378   -0.560295   -1.000294
      6         16           0       -2.648072   -0.319898   -0.210163
      7          7           0       -1.852869    0.428890    1.156507
      8          7           0       -0.590973    0.454531    0.973487
      9          7           0        2.058137    1.057456    0.097236
     10          7           0        1.472914    2.268982   -0.391566
     11          1           0        2.843330   -3.272250    0.787292
     12          1           0        1.494718   -0.011823   -1.576540
     13          1           0       -1.065915   -1.022282   -1.973693
     14          1           0        1.968444    0.985180    1.112742
     15          1           0        0.696859    2.561456    0.206304
     16          1           0        2.193608    2.984198   -0.341362
 ---------------------------------------------------------------------

 SCF Done:  E(UB3LYP) =  -811.357498745     A.U. after   30 cycles

 The electronic state is 2-A.
 Alpha  occ. eigenvalues --  -88.70018 -14.20488 -14.19852 -14.15992 -14.15806
 Alpha  occ. eigenvalues --  -10.10068 -10.06128 -10.04830 -10.04091 -10.01870
 Alpha  occ. eigenvalues --   -7.78640  -5.74974  -5.74568  -5.74250  -0.85788
 Alpha  occ. eigenvalues --   -0.84156  -0.69921  -0.63446  -0.62657  -0.60957
 Alpha  occ. eigenvalues --   -0.53678  -0.44714  -0.43132  -0.39762  -0.39029
 Alpha  occ. eigenvalues --   -0.37572  -0.33973  -0.31891  -0.30297  -0.27064
 Alpha  occ. eigenvalues --   -0.25631  -0.21374  -0.17063  -0.16748  -0.16017
 Alpha  occ. eigenvalues --   -0.14134  -0.13198  -0.12334  -0.09613  -0.07910
 Alpha  occ. eigenvalues --    0.06123
 Alpha virt. eigenvalues --    0.08467   0.08877   0.10798   0.12395   0.12628
 Alpha virt. eigenvalues --    0.12967   0.13438   0.14304   0.14785   0.15474
 Alpha virt. eigenvalues --    0.16414   0.17543   0.18081   0.18837   0.19435

  Beta  occ. eigenvalues --  -88.69920 -14.20493 -14.19826 -14.15741 -14.14922
  Beta  occ. eigenvalues --  -10.10067 -10.06128 -10.04816 -10.04194 -10.01402
  Beta  occ. eigenvalues --   -7.78552  -5.74937  -5.74531  -5.73912  -0.85176
  Beta  occ. eigenvalues --   -0.83810  -0.69840  -0.62789  -0.62614  -0.60387
  Beta  occ. eigenvalues --   -0.53397  -0.43920  -0.43038  -0.39699  -0.38605
  Beta  occ. eigenvalues --   -0.37477  -0.33779  -0.31802  -0.30132  -0.26668
  Beta  occ. eigenvalues --   -0.23500  -0.20871  -0.16879  -0.16475  -0.15558
  Beta  occ. eigenvalues --   -0.14069  -0.12293  -0.10732  -0.07505  -0.07156
  Beta virt. eigenvalues --    0.08538   0.08985   0.10712   0.12266   0.12646
  Beta virt. eigenvalues --    0.12882   0.13245   0.14309   0.14555   0.14838
  Beta virt. eigenvalues --    0.15643   0.16463   0.17823   0.18206   0.19054

 Mulliken charges and spin densities:
               1          2
     1  C   -1.448763   0.043852
     2  C    1.403357  -0.024972
     3  C   -0.708291  -0.023954
     4  C   -0.375419  -0.132106
     5  C    0.132710   0.352287
     6  S   -0.236917   0.191631
     7  N   -0.000188   0.362801
     8  N   -0.349770   0.118299
     9  N    0.020404   0.029170
    10  N   -0.426687  -0.110193
    11  H    0.102217   0.002713
    12  H    0.170911   0.011138
    13  H    0.195717  -0.021754
    14  H    0.215965   0.010529
    15  H    0.213072   0.029020
    16  H    0.091683   0.161538
 Sum of Mulliken charges =  -1.00000   1.00000

 Dipole moment (field-independent basis, Debye):
    X=              3.5097    Y=             -1.1005    Z=             -1.5098  Tot=              3.9760
 Quadrupole moment (field-independent basis, Debye-Ang):
   XX=            -97.3477   YY=            -75.2007   ZZ=            -77.4078
   XY=             -1.6361   XZ=              5.9162   YZ=              0.9256

 Summary of Natural Population Analysis:

                                       Natural Population
                Natural  -----------------------------------------------
    Atom  No    Charge         Core      Valence    Rydberg      Total
 -----------------------------------------------------------------------
      C    1   -0.13860      0.99927     2.13580    0.00353     3.13860
      C    2    0.01970      0.99935     1.97213    0.00882     2.98030
      C    3   -0.05551      0.99949     2.04269    0.01333     3.05551
      C    4    0.00284      0.99947     1.97901    0.01868     2.99716
      C    5   -0.12692      0.99947     2.11812    0.00933     3.12692
      S    6    0.24156      4.99950     2.73108    0.02786     7.75844
      N    7   -0.05883      0.99981     2.54237    0.01664     3.55883
      N    8   -0.12741      0.99968     2.60423    0.02350     3.62741
      N    9   -0.25186      0.99974     2.73615    0.01597     3.75186
      N   10   -0.33372      0.99977     2.82056    0.01339     3.83372
      H   11    0.10542      0.00000     0.39358    0.00100     0.39458
      H   12    0.11228      0.00000     0.38601    0.00171     0.38772
      H   13    0.09871      0.00000     0.40042    0.00087     0.40129
      H   14    0.16905      0.00000     0.32752    0.00343     0.33095
      H   15    0.17535      0.00000     0.32236    0.00229     0.32465
      H   16    0.16794      0.00000     0.33009    0.00197     0.33206
 =======================================================================
   * Total *   -0.00000     13.99555    25.84212    0.16233    40.00000

 Normal termination of Gaussian 16 at Tue Dec  8 14:03:04 2020.
