 Gaussian 16, Revision A.03,

 -----------------------------------------------------------
 # opt freq B3LYP/6-31G(d) empiricaldispersion=gd3bj scf=xqc
 -----------------------------------------------------------

 ------------------------------
 CID_55093516_JID_8127_neutraal
 ------------------------------
 Symbolic Z-matrix:
 Charge =  0 Multiplicity = 1

 SCF Done:  E(RB3LYP) =  -754.813570109     A.U. after   13 cycles
 SCF Done:  E(RB3LYP) =  -754.816681828     A.U. after   12 cycles
 SCF Done:  E(RB3LYP) =  -754.817194973     A.U. after   11 cycles
 SCF Done:  E(RB3LYP) =  -754.817654271     A.U. after   12 cycles
 SCF Done:  E(RB3LYP) =  -754.818046915     A.U. after   11 cycles
 SCF Done:  E(RB3LYP) =  -754.818100587     A.U. after   10 cycles
 SCF Done:  E(RB3LYP) =  -754.818116023     A.U. after    9 cycles
 SCF Done:  E(RB3LYP) =  -754.818120465     A.U. after    9 cycles
 SCF Done:  E(RB3LYP) =  -754.818122361     A.U. after    8 cycles
 SCF Done:  E(RB3LYP) =  -754.818122860     A.U. after    7 cycles
 SCF Done:  E(RB3LYP) =  -754.818123314     A.U. after    7 cycles
 Optimization completed.
    -- Stationary point found.
 Normal termination of Gaussian 16 at Fri Dec 11 18:49:51 2020.

 --------------------------------------------------------------------
 #N Geom=AllCheck Guess=TCheck SCRF=Check GenChk RB3LYP/6-31G(d) Freq
 --------------------------------------------------------------------

 Structure from the checkpoint file:  "JID_8127.chk"
 ------------------------------
 CID_55093516_JID_8127_neutraal
 ------------------------------
 Charge =  0 Multiplicity = 1

 SCF Done:  E(RB3LYP) =  -754.818123314     A.U. after    1 cycles

  Exact polarizability: 230.487   9.037 161.361  16.322 -11.419 133.394
 Approx polarizability: 280.427  18.883 263.488  28.920 -30.233 214.117

                      1                      2                      3
                      A                      A                      A
 Frequencies --     24.1057                37.5132                53.1521
 Red. masses --      4.2883                 3.5594                 3.6632
 Frc consts  --      0.0015                 0.0030                 0.0061
 IR Inten    --      0.0594                 0.1296                 0.0198

                      4                      5                      6
                      A                      A                      A
 Frequencies --     72.3785                86.6232               110.1412
 Red. masses --      3.6576                 3.6923                 4.0075
 Frc consts  --      0.0113                 0.0163                 0.0286
 IR Inten    --      2.4441                 1.0194                 1.0700

                      7                      8                      9
                      A                      A                      A
 Frequencies --    156.0400               197.3085               215.7397
 Red. masses --      3.0653                 2.7329                 1.9055
 Frc consts  --      0.0440                 0.0627                 0.0523
 IR Inten    --      0.1555                 0.4548                 0.5444

                     10                     11                     12
                      A                      A                      A
 Frequencies --    222.8797               242.7492               250.0234
 Red. masses --      2.4658                 1.2057                 3.1902
 Frc consts  --      0.0722                 0.0419                 0.1175
 IR Inten    --      0.4294                 0.1921                 2.7755

                     13                     14                     15
                      A                      A                      A
 Frequencies --    283.5504               294.6293               297.1549
 Red. masses --      1.6006                 1.4664                 2.3653
 Frc consts  --      0.0758                 0.0750                 0.1231
 IR Inten    --      1.6516                12.8204                 6.7958

                     16                     17                     18
                      A                      A                      A
 Frequencies --    305.3650               347.7204               388.3474
 Red. masses --      1.9682                 2.0628                 2.3922
 Frc consts  --      0.1081                 0.1469                 0.2126
 IR Inten    --      3.5749                11.4922                 0.1301

                     19                     20                     21
                      A                      A                      A
 Frequencies --    400.2021               414.4108               435.6293
 Red. masses --      2.3056                 2.4813                 2.1554
 Frc consts  --      0.2176                 0.2511                 0.2410
 IR Inten    --      2.4817                 1.1122                 3.9965

                     22                     23                     24
                      A                      A                      A
 Frequencies --    454.2430               466.8077               470.9507
 Red. masses --      2.5075                 3.3594                 3.0699
 Frc consts  --      0.3048                 0.4313                 0.4012
 IR Inten    --      3.6829                 1.6901                 0.8193

                     25                     26                     27
                      A                      A                      A
 Frequencies --    503.3031               517.0079               557.3718
 Red. masses --      3.4047                 3.4186                 4.1752
 Frc consts  --      0.5081                 0.5384                 0.7642
 IR Inten    --      0.7810                 2.7401                 1.7649

                     28                     29                     30
                      A                      A                      A
 Frequencies --    585.9631               631.6696               676.4235
 Red. masses --      4.4486                 2.3631                 3.6367
 Frc consts  --      0.8999                 0.5555                 0.9804
 IR Inten    --      7.7602                 2.4651                 3.7421

                     31                     32                     33
                      A                      A                      A
 Frequencies --    720.3320               746.7813               785.4195
 Red. masses --      2.6757                 3.3197                 2.4341
 Frc consts  --      0.8180                 1.0908                 0.8847
 IR Inten    --     11.3857                10.8995                 0.5435

                     34                     35                     36
                      A                      A                      A
 Frequencies --    794.6437               800.3698               840.4587
 Red. masses --      1.6185                 1.4977                 2.3533
 Frc consts  --      0.6021                 0.5653                 0.9794
 IR Inten    --     30.7123                 0.0554                11.1366

                     37                     38                     39
                      A                      A                      A
 Frequencies --    859.8030               883.1967               886.7255
 Red. masses --      2.1401                 1.4630                 1.6731
 Frc consts  --      0.9322                 0.6724                 0.7751
 IR Inten    --     48.3922                 2.4297                14.6994

                     40                     41                     42
                      A                      A                      A
 Frequencies --    890.2447               919.7235               933.0404
 Red. masses --      2.1536                 2.0703                 1.8920
 Frc consts  --      1.0056                 1.0318                 0.9704
 IR Inten    --      5.3812                33.2454                 9.1495

                     43                     44                     45
                      A                      A                      A
 Frequencies --    940.2441               957.4412               964.1932
 Red. masses --      1.8349                 1.4226                 1.2647
 Frc consts  --      0.9557                 0.7683                 0.6927
 IR Inten    --     84.2209                 1.0545                 0.1910

                     46                     47                     48
                      A                      A                      A
 Frequencies --    982.7029               993.4503               996.8113
 Red. masses --      2.2520                 1.5354                 1.5890
 Frc consts  --      1.2813                 0.8928                 0.9302
 IR Inten    --      1.4737                24.0451                 0.4290

                     49                     50                     51
                      A                      A                      A
 Frequencies --   1017.7223              1030.3484              1054.8665
 Red. masses --      5.7827                 2.4015                 2.0200
 Frc consts  --      3.5289                 1.5021                 1.3243
 IR Inten    --      0.5015                37.8190                 1.1686

                     52                     53                     54
                      A                      A                      A
 Frequencies --   1087.3483              1099.1380              1105.8173
 Red. masses --      2.4035                 1.9119                 2.2021
 Frc consts  --      1.6743                 1.3609                 1.5865
 IR Inten    --     20.3783                15.1626                32.9499

                     55                     56                     57
                      A                      A                      A
 Frequencies --   1109.4501              1132.5825              1139.3633
 Red. masses --      1.6116                 1.6494                 1.4022
 Frc consts  --      1.1687                 1.2466                 1.0725
 IR Inten    --      7.8526                 2.8602                 1.4703

                     58                     59                     60
                      A                      A                      A
 Frequencies --   1145.4258              1170.5119              1186.8503
 Red. masses --      1.5109                 1.5230                 1.2714
 Frc consts  --      1.1679                 1.2294                 1.0552
 IR Inten    --      0.7955                 0.6877                 0.7603

                     61                     62                     63
                      A                      A                      A
 Frequencies --   1191.0419              1209.5445              1227.2224
 Red. masses --      1.8570                 1.1530                 1.4808
 Frc consts  --      1.5521                 0.9939                 1.3140
 IR Inten    --     75.7711                 0.7729                 2.4714

                     64                     65                     66
                      A                      A                      A
 Frequencies --   1228.7229              1239.7456              1247.2339
 Red. masses --      1.6869                 1.4731                 1.4797
 Frc consts  --      1.5005                 1.3340                 1.3562
 IR Inten    --     12.6579                23.0158                 0.2583

                     67                     68                     69
                      A                      A                      A
 Frequencies --   1275.3228              1301.1662              1306.6858
 Red. masses --      1.3859                 1.3639                 1.2328
 Frc consts  --      1.3281                 1.3605                 1.2402
 IR Inten    --      9.4459                 8.1244                 0.9588

                     70                     71                     72
                      A                      A                      A
 Frequencies --   1314.9984              1344.2879              1351.5275
 Red. masses --      3.4808                 1.3784                 1.3649
 Frc consts  --      3.5464                 1.4677                 1.4690
 IR Inten    --    162.3686                26.9125                 4.4318

                     73                     74                     75
                      A                      A                      A
 Frequencies --   1354.5407              1360.9496              1375.2724
 Red. masses --      1.2420                 1.4781                 4.1049
 Frc consts  --      1.3427                 1.6130                 4.5744
 IR Inten    --      3.5152                 2.0068                25.8843

                     76                     77                     78
                      A                      A                      A
 Frequencies --   1384.0859              1395.3924              1400.3698
 Red. masses --      1.5714                 1.3831                 1.4472
 Frc consts  --      1.7737                 1.5867                 1.6722
 IR Inten    --      9.5897                 3.4278                 0.8813

                     79                     80                     81
                      A                      A                      A
 Frequencies --   1404.6427              1414.5714              1425.8633
 Red. masses --      1.4848                 1.3089                 1.5393
 Frc consts  --      1.7260                 1.5432                 1.8439
 IR Inten    --     19.3153                 4.0074                 0.4428

                     82                     83                     84
                      A                      A                      A
 Frequencies --   1438.9756              1448.6844              1493.1361
 Red. masses --      1.2431                 1.4395                 1.6531
 Frc consts  --      1.5166                 1.7799                 2.1715
 IR Inten    --      2.5039                 0.4452                51.2923

                     85                     86                     87
                      A                      A                      A
 Frequencies --   1506.3822              1507.3264              1515.0471
 Red. masses --      1.7662                 1.0908                 1.0925
 Frc consts  --      2.3614                 1.4602                 1.4775
 IR Inten    --      2.9743                 1.5716                13.2802

                     88                     89                     90
                      A                      A                      A
 Frequencies --   1518.2507              1520.8686              1526.8588
 Red. masses --      1.0920                 1.0478                 1.0536
 Frc consts  --      1.4830                 1.4280                 1.4472
 IR Inten    --      0.4704                 5.1785                 8.0056

                     91                     92                     93
                      A                      A                      A
 Frequencies --   1530.9375              1532.3320              1537.2959
 Red. masses --      1.0592                 1.0844                 1.0851
 Frc consts  --      1.4627                 1.5001                 1.5109
 IR Inten    --      2.1250                 8.3037                32.9052

                     94                     95                     96
                      A                      A                      A
 Frequencies --   1539.1179              1543.7413              1643.4576
 Red. masses --      1.1072                 2.2551                 5.4878
 Frc consts  --      1.5453                 3.1664                 8.7330
 IR Inten    --      2.9255                41.5773                66.1317

                     97                     98                     99
                      A                      A                      A
 Frequencies --   1671.3190              1697.8987              2991.4921
 Red. masses --      6.0606                 1.0889                 1.0821
 Frc consts  --      9.9743                 1.8496                 5.7055
 IR Inten    --     83.7504                20.8140                12.4061

                    100                    101                    102
                      A                      A                      A
 Frequencies --   3019.5235              3022.1519              3025.2567
 Red. masses --      1.0749                 1.0660                 1.0348
 Frc consts  --      5.7745                 5.7364                 5.5801
 IR Inten    --      8.8284                32.6317                61.0209

                    103                    104                    105
                      A                      A                      A
 Frequencies --   3027.5320              3029.9261              3036.9099
 Red. masses --      1.0698                 1.0561                 1.0425
 Frc consts  --      5.7776                 5.7125                 5.6650
 IR Inten    --      1.8451                18.4304                65.7546

                    106                    107                    108
                      A                      A                      A
 Frequencies --   3038.7849              3043.4770              3059.8236
 Red. masses --      1.0743                 1.0686                 1.0888
 Frc consts  --      5.8446                 5.8319                 6.0063
 IR Inten    --     42.3682                14.4353                78.0433

                    109                    110                    111
                      A                      A                      A
 Frequencies --   3062.8616              3071.3312              3083.4752
 Red. masses --      1.0985                 1.0951                 1.1065
 Frc consts  --      6.0715                 6.0865                 6.1983
 IR Inten    --     46.2784                74.2698                35.1060

                    112                    113                    114
                      A                      A                      A
 Frequencies --   3083.6879              3098.6421              3099.4590
 Red. masses --      1.0973                 1.0940                 1.1010
 Frc consts  --      6.1476                 6.1889                 6.2317
 IR Inten    --     70.1058                35.8056                61.4547

                    115                    116                    117
                      A                      A                      A
 Frequencies --   3105.5809              3127.0884              3158.6364
 Red. masses --      1.1023                 1.0911                 1.0997
 Frc consts  --      6.2638                 6.2865                 6.4643
 IR Inten    --     39.8096                17.2048                27.6017

                    118                    119                    120
                      A                      A                      A
 Frequencies --   3187.0283              3202.6418              3207.9713
 Red. masses --      1.0869                 1.0900                 1.0930
 Frc consts  --      6.5043                 6.5869                 6.6272
 IR Inten    --      9.7491                 9.6209                15.9412

                    121                    122                    123
                      A                      A                      A
 Frequencies --   3230.9040              3451.9755              3537.8609
 Red. masses --      1.0918                 1.0491                 1.0920
 Frc consts  --      6.7149                 7.3658                 8.0526
 IR Inten    --     12.4501                 1.6470                 1.9706

 - Thermochemistry -
 -------------------
 Temperature   298.150 Kelvin.  Pressure   1.00000 Atm.
 Atom     1 has atomic number  6 and mass  12.00000

 Molecular mass:   247.19361 amu.
 Principal axes and moments of inertia in atomic units:
                           1         2         3
     Eigenvalues --  1619.69288********************
           X            0.99999   0.00082   0.00509
           Y           -0.00078   0.99997  -0.00801
           Z           -0.00510   0.00801   0.99995
 This molecule is an asymmetric top.
 Rotational symmetry number  1.
 Warning -- assumption of classical behavior for rotation
           may cause significant error
 Rotational temperatures (Kelvin)      0.05348     0.00841     0.00796
 Rotational constants (GHZ):           1.11425     0.17528     0.16591
 Zero-point vibrational energy    1021630.3 (Joules/Mol)
                                  244.17551 (Kcal/Mol)
 Warning -- explicit consideration of  28 degrees of freedom as
           vibrations may cause significant error
 Vibrational temperatures:     34.68    53.97    76.47   104.14   124.63
          (Kelvin)            158.47   224.51   283.88   310.40   320.67
                              349.26   359.73   407.97   423.91   427.54
                              439.35   500.29   558.75   575.80   596.24
                              626.77   653.55   671.63   677.59   724.14
                              743.86   801.93   843.07   908.83   973.22
                             1036.40  1074.45  1130.04  1143.31  1151.55
                             1209.23  1237.06  1270.72  1275.80  1280.86
                             1323.28  1342.44  1352.80  1377.54  1387.26
                             1413.89  1429.35  1434.19  1464.28  1482.44
                             1517.72  1564.45  1581.41  1591.02  1596.25
                             1629.53  1639.29  1648.01  1684.11  1707.61
                             1713.64  1740.26  1765.70  1767.86  1783.72
                             1794.49  1834.91  1872.09  1880.03  1891.99
                             1934.13  1944.55  1948.88  1958.10  1978.71
                             1991.39  2007.66  2014.82  2020.97  2035.25
                             2051.50  2070.36  2084.33  2148.29  2167.35
                             2168.71  2179.81  2184.42  2188.19  2196.81
                             2202.68  2204.68  2211.83  2214.45  2221.10
                             2364.57  2404.66  2442.90  4304.09  4344.42
                             4348.20  4352.67  4355.94  4359.39  4369.44
                             4372.13  4378.88  4402.40  4406.77  4418.96
                             4436.43  4436.74  4458.25  4459.43  4468.24
                             4499.18  4544.57  4585.42  4607.89  4615.56
                             4648.55  4966.62  5090.19

 Zero-point correction=                           0.389118 (Hartree/Particle)
 Thermal correction to Energy=                    0.406800
 Thermal correction to Enthalpy=                  0.407744
 Thermal correction to Gibbs Free Energy=         0.343192
 Sum of electronic and zero-point Energies=           -754.429005
 Sum of electronic and thermal Energies=              -754.411323
 Sum of electronic and thermal Enthalpies=            -754.410379
 Sum of electronic and thermal Free Energies=         -754.474932

                     E (Thermal)             CV                S
                      KCal/Mol        Cal/Mol-Kelvin    Cal/Mol-Kelvin
 Total                  255.271             70.287            135.862
 Electronic               0.000              0.000              0.000
 Translational            0.889              2.981             42.416
 Rotational               0.889              2.981             33.561
 Vibrational            253.493             64.326             59.885
 Vibration     1          0.593              1.985              6.264
 Vibration     2          0.594              1.982              5.386
 Vibration     3          0.596              1.976              4.697
 Vibration     4          0.598              1.967              4.088
 Vibration     5          0.601              1.959              3.735
 Vibration     6          0.606              1.941              3.266
 Vibration     7          0.620              1.896              2.597
 Vibration     8          0.637              1.844              2.158
 Vibration     9          0.645              1.817              1.995
 Vibration    10          0.649              1.806              1.936
 Vibration    11          0.659              1.775              1.783
 Vibration    12          0.663              1.763              1.730
 Vibration    13          0.682              1.704              1.512
 Vibration    14          0.689              1.684              1.447
 Vibration    15          0.691              1.679              1.433
 Vibration    16          0.696              1.664              1.387
 Vibration    17          0.725              1.580              1.176
 Vibration    18          0.757              1.495              1.006
 Vibration    19          0.766              1.470              0.962
 Vibration    20          0.778              1.439              0.911
 Vibration    21          0.796              1.393              0.840
 Vibration    22          0.813              1.352              0.783
 Vibration    23          0.824              1.324              0.747
 Vibration    24          0.828              1.314              0.735
 Vibration    25          0.859              1.243              0.650
 Vibration    26          0.872              1.212              0.617
 Vibration    27          0.913              1.124              0.529
 Vibration    28          0.943              1.062              0.474

 Optimization completed.
    -- Stationary point found.
 Normal termination of Gaussian 16 at Fri Dec 11 19:12:46 2020.

 ----------------------------------------------------------------------
 # B3LYP/6-311++G(d,p) empiricaldispersion=gd3bj scf=xqc pop=npa geom=c
 heck
 ----------------------------------------------------------------------

 --------------------------------------
 CID_55093516_JID_8127_Energie_neutraal
 --------------------------------------
 Structure from the checkpoint file:  "JID_8127.chk"
 Charge =  0 Multiplicity = 1

 SCF Done:  E(RB3LYP) =  -755.027163013     A.U. after   16 cycles
 Normal termination of Gaussian 16 at Fri Dec 11 19:24:36 2020.

 ----------------------------------------------------------------------
 # B3LYP/6-311++G(d,p) empiricaldispersion=gd3bj scf=xqc pop=npa geom=c
 heck
 ----------------------------------------------------------------------

 ------------------------------------
 CID_55093516_JID_8127_Energie_kation
 ------------------------------------
 Structure from the checkpoint file:  "JID_8127.chk"
 Charge =  1 Multiplicity = 2

 SCF Done:  E(UB3LYP) =  -754.740957474     A.U. after   24 cycles
 Normal termination of Gaussian 16 at Fri Dec 11 19:50:49 2020.
 Gaussian 16:  ES64L-G16RevA.03 25-Dec-2016

 ----------------------------------------------------------------------
 # B3LYP/6-311++G(d,p) empiricaldispersion=gd3bj scf=xqc pop=npa geom=c
 heck
 ----------------------------------------------------------------------

 -----------------------------------
 CID_55093516_JID_8127_Energie_anion
 -----------------------------------
 Structure from the checkpoint file:  "JID_8127.chk"
 Charge = -1 Multiplicity = 2

                         Standard orientation:
 ---------------------------------------------------------------------
 Center     Atomic      Atomic             Coordinates (Angstroms)
 Number     Number       Type             X           Y           Z
 ---------------------------------------------------------------------
      1          6           0        5.733664   -0.119829    0.317016
      2          6           0        4.405517    0.185815   -0.378718
      3          6           0        3.667881   -1.098622   -0.788917
      4          6           0        2.314689   -0.805493   -1.448450
      5          6           0        1.394730    0.049582   -0.552895
      6          6           0        2.144608    1.342648   -0.171759
      7          6           0        3.499687    1.068056    0.495379
      8          6           0        0.871644   -0.736766    0.672284
      9          6           0       -0.126866    0.082117    1.549199
     10          6           0       -1.400069    0.463668    0.834042
     11          6           0       -2.471419   -0.429351    0.784258
     12          6           0       -3.641641   -0.120916    0.077329
     13          6           0       -3.751453    1.101582   -0.591665
     14          6           0       -2.681802    1.999737   -0.535387
     15          6           0       -1.520113    1.692823    0.164517
     16          8           0       -4.615060   -1.078483    0.107440
     17          6           0       -5.821413   -0.817963   -0.589442
     18          7           0        0.326150   -2.023626    0.224992
     19          1           0        5.565675   -0.684679    1.243137
     20          1           0        6.389778   -0.720731   -0.323827
     21          1           0        6.269120    0.800295    0.580559
     22          1           0        4.621425    0.750592   -1.300214
     23          1           0        4.296853   -1.682049   -1.474221
     24          1           0        3.517267   -1.729861    0.098212
     25          1           0        1.814093   -1.741596   -1.705307
     26          1           0        2.488217   -0.254176   -2.383953
     27          1           0        0.513996    0.331576   -1.146805
     28          1           0        1.535288    1.985026    0.472820
     29          1           0        2.317414    1.915854   -1.093317
     30          1           0        3.348515    0.574038    1.466230
     31          1           0        4.005260    2.018113    0.713535
     32          1           0        1.719241   -0.976750    1.324855
     33          1           0       -0.371129   -0.535227    2.423254
     34          1           0        0.369512    0.978897    1.934995
     35          1           0       -2.429128   -1.379406    1.308065
     36          1           0       -4.647428    1.363874   -1.141183
     37          1           0       -2.766891    2.954218   -1.047775
     38          1           0       -0.702635    2.406232    0.198375
     39          1           0       -6.333719    0.067767   -0.191044
     40          1           0       -5.643749   -0.676368   -1.663748
     41          1           0       -6.450591   -1.697037   -0.440088
     42          1           0        0.012435   -2.561870    1.031690
     43          1           0       -0.507253   -1.856010   -0.339458
 ---------------------------------------------------------------------

 SCF Done:  E(UB3LYP) =  -755.014498768     A.U. after   33 cycles
 SCF Done:  E(UB3LYP) =  -755.014498769     a.u. after    1 cycles

 The electronic state is 2-A.
 Alpha  occ. eigenvalues --  -19.06253 -14.20124 -10.14324 -10.12835 -10.10925
 Alpha  occ. eigenvalues --  -10.09129 -10.08541 -10.08407 -10.08003 -10.07883
 Alpha  occ. eigenvalues --  -10.07870 -10.07667 -10.07527 -10.07517 -10.07482
 Alpha  occ. eigenvalues --  -10.07380 -10.07202 -10.06770  -0.97850  -0.80478
 Alpha  occ. eigenvalues --   -0.76464  -0.74610  -0.69052  -0.67683  -0.66716
 Alpha  occ. eigenvalues --   -0.65134  -0.61980  -0.60443  -0.58946  -0.53816
 Alpha  occ. eigenvalues --   -0.52136  -0.51611  -0.49496  -0.48186  -0.45014
 Alpha  occ. eigenvalues --   -0.43070  -0.41093  -0.39782  -0.39704  -0.37805
 Alpha  occ. eigenvalues --   -0.37549  -0.36747  -0.35801  -0.35449  -0.34796
 Alpha  occ. eigenvalues --   -0.34291  -0.33452  -0.32494  -0.31567  -0.30610
 Alpha  occ. eigenvalues --   -0.29920  -0.28965  -0.28731  -0.28346  -0.27750
 Alpha  occ. eigenvalues --   -0.27057  -0.26323  -0.25606  -0.24831  -0.24121
 Alpha  occ. eigenvalues --   -0.23844  -0.22991  -0.21638  -0.20914  -0.20784
 Alpha  occ. eigenvalues --   -0.16247  -0.15378  -0.13281   0.03934
 Alpha virt. eigenvalues --    0.05177   0.06036   0.06517   0.07159   0.07414
 Alpha virt. eigenvalues --    0.07468   0.08490   0.08689   0.08936   0.09031
 Alpha virt. eigenvalues --    0.09538   0.09662   0.10054   0.10417   0.11321

  Beta  occ. eigenvalues --  -19.06243 -14.20112 -10.14326 -10.12784 -10.10918
  Beta  occ. eigenvalues --  -10.09113 -10.08531 -10.08403 -10.07991 -10.07869
  Beta  occ. eigenvalues --  -10.07855 -10.07654 -10.07518 -10.07510 -10.07467
  Beta  occ. eigenvalues --  -10.07361 -10.07194 -10.06766  -0.97827  -0.80457
  Beta  occ. eigenvalues --   -0.76435  -0.74593  -0.69021  -0.67656  -0.66681
  Beta  occ. eigenvalues --   -0.65114  -0.61944  -0.60380  -0.58912  -0.53779
  Beta  occ. eigenvalues --   -0.52107  -0.51581  -0.49458  -0.48142  -0.44984
  Beta  occ. eigenvalues --   -0.43036  -0.41065  -0.39750  -0.39661  -0.37770
  Beta  occ. eigenvalues --   -0.37524  -0.36726  -0.35775  -0.35421  -0.34762
  Beta  occ. eigenvalues --   -0.34267  -0.33417  -0.32456  -0.31544  -0.30587
  Beta  occ. eigenvalues --   -0.29893  -0.28942  -0.28707  -0.28306  -0.27724
  Beta  occ. eigenvalues --   -0.27027  -0.26303  -0.25573  -0.24813  -0.24096
  Beta  occ. eigenvalues --   -0.23808  -0.22957  -0.21621  -0.20894  -0.20767
  Beta  occ. eigenvalues --   -0.16183  -0.15347  -0.13237
  Beta virt. eigenvalues --    0.05605   0.06301   0.06433   0.06978   0.07325
  Beta virt. eigenvalues --    0.07543   0.07938   0.08687   0.09112   0.09201
  Beta virt. eigenvalues --    0.09277   0.09720   0.09802   0.10434   0.10742

 Mulliken charges and spin densities:
               1          2
     1  C    0.123896  -0.914719
     2  C   -0.212747   0.586589
     3  C   -0.381393  -0.054701
     4  C   -0.338010  -0.016578
     5  C    0.170138   0.196990
     6  C   -0.696924   0.274622
     7  C    0.237766  -0.861606
     8  C    0.412020  -0.890585
     9  C    1.145366  -1.728147
    10  C   -0.069857   1.353479
    11  C   -1.239293   0.675126
    12  C   -0.545513  -0.169663
    13  C    1.040024  -0.921076
    14  C    0.564398  -0.872804
    15  C   -0.697487   0.401709
    16  O   -0.211023   0.066476
    17  C    0.934995  -1.263599
    18  N   -0.447715   0.083689
    19  H   -0.019521   0.151981
    20  H   -0.057106   0.186506
    21  H   -0.086549   0.218559
    22  H    0.052501   0.106438
    23  H    0.117931   0.047202
    24  H   -0.008595   0.185483
    25  H    0.133295   0.037201
    26  H    0.048641   0.095645
    27  H    0.276058  -0.057455
    28  H   -0.017089   0.134422
    29  H    0.082990   0.071521
    30  H    0.042258   0.119655
    31  H   -0.119706   0.282521
    32  H    0.295750  -0.074983
    33  H   -0.186033   0.383299
    34  H   -0.029005   0.199504
    35  H    0.024744   0.155457
    36  H   -0.248335   0.436129
    37  H   -0.411011   0.595699
    38  H    0.027559   0.100184
    39  H   -0.290803   0.446536
    40  H   -0.327209   0.485561
    41  H   -0.448052   0.616620
    42  H    0.106915   0.124493
    43  H    0.251732   0.006624
 Sum of Mulliken charges =  -1.00000   1.00000

 Dipole moment (field-independent basis, Debye):
    X=              5.8877    Y=             -0.2681    Z=              0.2795  Tot=              5.9004
 Quadrupole moment (field-independent basis, Debye-Ang):
   XX=           -252.6934   YY=           -154.0637   ZZ=           -147.2243
   XY=             -1.9037   XZ=            -13.0221   YZ=             -0.5557

 Summary of Natural Population Analysis:

                                       Natural Population
                Natural  -----------------------------------------------
    Atom  No    Charge         Core      Valence    Rydberg      Total
 -----------------------------------------------------------------------
      C    1   -0.28049      0.99965     2.27610    0.00473     3.28049
      C    2   -0.11318      0.99960     2.10345    0.01012     3.11318
      C    3   -0.18877      0.99961     2.18152    0.00764     3.18877
      C    4   -0.18764      0.99961     2.17989    0.00814     3.18764
      C    5   -0.11478      0.99957     2.10526    0.00995     3.11478
      C    6   -0.18829      0.99961     2.17958    0.00909     3.18829
      C    7   -0.18998      0.99961     2.18110    0.00927     3.18998
      C    8   -0.00773      0.99957     1.99559    0.01257     3.00773
      C    9   -0.20381      0.99958     2.19405    0.01018     3.20381
      C   10   -0.00848      0.99951     1.99828    0.01069     3.00848
      C   11   -0.12502      0.99947     2.11633    0.00922     3.12502
      C   12    0.16384      0.99938     1.82299    0.01379     2.83616
      C   13   -0.14611      0.99952     2.13771    0.00889     3.14611
      C   14   -0.08778      0.99957     2.07781    0.01040     3.08778
      C   15   -0.11895      0.99950     2.11032    0.00913     3.11895
      O   16   -0.27340      0.99986     3.26342    0.01012     4.27340
      C   17   -0.10057      0.99960     2.09189    0.00907     3.10057
      N   18   -0.42298      0.99977     2.91339    0.00982     3.92298
      H   19    0.09649      0.00000     0.40252    0.00099     0.40351
      H   20    0.09705      0.00000     0.40201    0.00094     0.40295
      H   21    0.09821      0.00000     0.40080    0.00099     0.40179
      H   22    0.08870      0.00000     0.40952    0.00178     0.41130
      H   23    0.09664      0.00000     0.40245    0.00091     0.40336
      H   24    0.09610      0.00000     0.40263    0.00127     0.40390
      H   25    0.11075      0.00000     0.38811    0.00114     0.38925
      H   26    0.09130      0.00000     0.40758    0.00112     0.40870
      H   27    0.10355      0.00000     0.39484    0.00161     0.39645
      H   28    0.09920      0.00000     0.39958    0.00122     0.40080
      H   29    0.09541      0.00000     0.40343    0.00115     0.40459
      H   30    0.09343      0.00000     0.40515    0.00142     0.40657
      H   31    0.09905      0.00000     0.39998    0.00097     0.40095
      H   32    0.09198      0.00000     0.40623    0.00179     0.40802
      H   33    0.10175      0.00000     0.39702    0.00123     0.39825
      H   34    0.10447      0.00000     0.39430    0.00124     0.39553
      H   35    0.10444      0.00000     0.39375    0.00181     0.39556
      H   36    0.10831      0.00000     0.38995    0.00174     0.39169
      H   37    0.10068      0.00000     0.39837    0.00095     0.39932
      H   38    0.10043      0.00000     0.39798    0.00159     0.39957
      H   39    0.08571      0.00000     0.41229    0.00200     0.41429
      H   40    0.08620      0.00000     0.41186    0.00194     0.41380
      H   41    0.09447      0.00000     0.40413    0.00140     0.40553
      H   42    0.17376      0.00000     0.32462    0.00162     0.32624
      H   43    0.17601      0.00000     0.32210    0.00188     0.32399
 =======================================================================
   * Total *   -0.00000     17.99260    49.79989    0.20751    68.00000

 Normal termination of Gaussian 16 at Fri Dec 11 20:28:08 2020.
