 Gaussian 16, Revision A.03,

 -----------------------------------------------------------
 # opt freq B3LYP/6-31G(d) empiricaldispersion=gd3bj scf=xqc
 -----------------------------------------------------------

 ------------------------------
 CID_71634777_JID_1094_neutraal
 ------------------------------
 Symbolic Z-matrix:
 Charge =  0 Multiplicity = 1

 SCF Done:  E(RB3LYP) =  -927.459527522     A.U. after   15 cycles
 SCF Done:  E(RB3LYP) =  -927.463089590     A.U. after   13 cycles
 SCF Done:  E(RB3LYP) =  -927.463482480     A.U. after   11 cycles
 SCF Done:  E(RB3LYP) =  -927.463686875     A.U. after   11 cycles
 SCF Done:  E(RB3LYP) =  -927.463691500     A.U. after    9 cycles
 SCF Done:  E(RB3LYP) =  -927.463692382     A.U. after    8 cycles
 SCF Done:  E(RB3LYP) =  -927.463692497     A.U. after    7 cycles
 SCF Done:  E(RB3LYP) =  -927.463692585     A.U. after    7 cycles
 SCF Done:  E(RB3LYP) =  -927.463692661     A.U. after    7 cycles
 SCF Done:  E(RB3LYP) =  -927.463692868     A.U. after    8 cycles
 SCF Done:  E(RB3LYP) =  -927.464534168     A.U. after    9 cycles
 SCF Done:  E(RB3LYP) =  -927.464537529     A.U. after   10 cycles
 SCF Done:  E(RB3LYP) =  -927.464540012     A.U. after   10 cycles
 SCF Done:  E(RB3LYP) =  -927.464540684     A.U. after   10 cycles
 SCF Done:  E(RB3LYP) =  -927.464540774     A.U. after    8 cycles
 Optimization completed.
    -- Stationary point found.
 Normal termination of Gaussian 16 at Tue Dec  8 19:18:41 2020.

 --------------------------------------------------------------------
 #N Geom=AllCheck Guess=TCheck SCRF=Check GenChk RB3LYP/6-31G(d) Freq
 --------------------------------------------------------------------

 Structure from the checkpoint file:  "JID_1094.chk"
 ------------------------------
 CID_71634777_JID_1094_neutraal
 ------------------------------
 Charge =  0 Multiplicity = 1

 SCF Done:  E(RB3LYP) =  -927.464540774     A.U. after    1 cycles

  Exact polarizability: 113.792   0.232  93.275   0.085   0.971  52.572
 Approx polarizability: 161.745   0.282 162.657   0.305   4.446  91.321

                      1                      2                      3
                      A                      A                      A
 Frequencies --     36.8848                59.3016               107.7814
 Red. masses --      6.6801                 1.0465                 7.4849
 Frc consts  --      0.0054                 0.0022                 0.0512
 IR Inten    --      1.8350                 0.9110                 0.9376

                      4                      5                      6
                      A                      A                      A
 Frequencies --    151.6842               193.0333               262.3589
 Red. masses --      4.9418                 3.5608                 3.3044
 Frc consts  --      0.0670                 0.0782                 0.1340
 IR Inten    --     14.2954                 4.4703                26.2566

                      7                      8                      9
                      A                      A                      A
 Frequencies --    269.7099               311.5472               384.0499
 Red. masses --      6.2188                 8.4461                 2.2953
 Frc consts  --      0.2665                 0.4830                 0.1995
 IR Inten    --      3.3241                 2.9907                41.5963

                     10                     11                     12
                      A                      A                      A
 Frequencies --    400.0451               444.8530               457.4805
 Red. masses --      4.8297                 2.4324                 4.2981
 Frc consts  --      0.4554                 0.2836                 0.5300
 IR Inten    --     28.8545                28.1919                 6.2474

                     13                     14                     15
                      A                      A                      A
 Frequencies --    504.1471               552.6466               590.5829
 Red. masses --      6.3823                 5.9312                 9.4294
 Frc consts  --      0.9558                 1.0673                 1.9377
 IR Inten    --     26.0857                25.1169               150.9681

                     16                     17                     18
                      A                      A                      A
 Frequencies --    613.0901               730.3453               791.0216
 Red. masses --      4.0643                 7.4924                11.2308
 Frc consts  --      0.9001                 2.3547                 4.1403
 IR Inten    --      3.1498                 2.1265               144.0952

                     19                     20                     21
                      A                      A                      A
 Frequencies --    796.1338               856.0565               906.0175
 Red. masses --      8.0823                 1.2210                 4.6238
 Frc consts  --      3.0183                 0.5272                 2.2363
 IR Inten    --     27.6990                 9.7129                 2.4182

                     22                     23                     24
                      A                      A                      A
 Frequencies --   1005.3346              1008.5147              1041.2857
 Red. masses --      1.4044                 4.6655                 1.9093
 Frc consts  --      0.8363                 2.7958                 1.2198
 IR Inten    --      0.1039                 6.8043                 2.6964

                     25                     26                     27
                      A                      A                      A
 Frequencies --   1074.8461              1136.3399              1155.1506
 Red. masses --      1.6238                 1.7564                 4.9904
 Frc consts  --      1.1053                 1.3363                 3.9234
 IR Inten    --      7.8469                20.1835               163.2359

                     28                     29                     30
                      A                      A                      A
 Frequencies --   1233.3363              1258.8135              1274.4948
 Red. masses --      1.4419                 2.3566                 5.2556
 Frc consts  --      1.2922                 2.2001                 5.0298
 IR Inten    --    188.0334                52.1060                13.4801

                     31                     32                     33
                      A                      A                      A
 Frequencies --   1304.1170              1379.8399              1417.6432
 Red. masses --      3.1373                 9.1653                 2.5930
 Frc consts  --      3.1437                10.2815                 3.0704
 IR Inten    --      8.1538               221.7688                39.7725

                     34                     35                     36
                      A                      A                      A
 Frequencies --   1437.0951              1487.9305              1500.5201
 Red. masses --      1.3054                 3.2580                 1.0444
 Frc consts  --      1.5885                 4.2497                 1.3855
 IR Inten    --      9.0194                38.0897                 7.3738

                     37                     38                     39
                      A                      A                      A
 Frequencies --   1509.0939              1602.1938              1640.1776
 Red. masses --      1.1277                 4.7436                 6.6588
 Frc consts  --      1.5131                 7.1745                10.5543
 IR Inten    --     29.3370                58.3674               171.3298

                     40                     41                     42
                      A                      A                      A
 Frequencies --   3065.9354              3128.3413              3154.9133
 Red. masses --      1.0361                 1.1005                 1.1040
 Frc consts  --      5.7380                 6.3454                 6.4742
 IR Inten    --      2.9723                 3.0030                12.9306

                     43                     44                     45
                      A                      A                      A
 Frequencies --   3200.8123              3230.7632              3571.2885
 Red. masses --      1.0910                 1.0951                 1.0647
 Frc consts  --      6.5855                 6.7344                 8.0003
 IR Inten    --     11.6537                 5.9167               108.0783

 - Thermochemistry -
 -------------------
 Temperature   298.150 Kelvin.  Pressure   1.00000 Atm.
 Atom     1 has atomic number  6 and mass  12.00000

 Molecular mass:   174.00991 amu.
 Principal axes and moments of inertia in atomic units:
                           1         2         3
     Eigenvalues --   909.488672607.548273130.60564
           X            0.99969   0.02480  -0.00081
           Y           -0.02480   0.99969  -0.00241
           Z            0.00075   0.00243   1.00000
 This molecule is an asymmetric top.
 Rotational symmetry number  1.
 Warning -- assumption of classical behavior for rotation
           may cause significant error
 Rotational temperatures (Kelvin)      0.09523     0.03322     0.02767
 Rotational constants (GHZ):           1.98435     0.69212     0.57648
 Zero-point vibrational energy     312449.9 (Joules/Mol)
                                   74.67733 (Kcal/Mol)
 Warning -- explicit consideration of  16 degrees of freedom as
           vibrations may cause significant error
 Vibrational temperatures:     53.07    85.32   155.07   218.24   277.73
          (Kelvin)            377.48   388.05   448.25   552.56   575.58
                              640.04   658.21   725.36   795.14   849.72
                              882.10  1050.80  1138.10  1145.46  1231.67
                             1303.56  1446.45  1451.03  1498.18  1546.46
                             1634.94  1662.00  1774.50  1811.15  1833.71
                             1876.33  1985.28  2039.67  2067.66  2140.80
                             2158.91  2171.25  2305.20  2359.85  4411.20
                             4500.99  4539.22  4605.25  4648.35  5138.29

 Zero-point correction=                           0.119006 (Hartree/Particle)
 Thermal correction to Energy=                    0.129314
 Thermal correction to Enthalpy=                  0.130259
 Thermal correction to Gibbs Free Energy=         0.081927
 Sum of electronic and zero-point Energies=           -927.345535
 Sum of electronic and thermal Energies=              -927.335226
 Sum of electronic and thermal Enthalpies=            -927.334282
 Sum of electronic and thermal Free Energies=         -927.382614

                     E (Thermal)             CV                S
                      KCal/Mol        Cal/Mol-Kelvin    Cal/Mol-Kelvin
 Total                   81.146             37.157            101.722
 Electronic               0.000              0.000              0.000
 Translational            0.889              2.981             41.369
 Rotational               0.889              2.981             30.386
 Vibrational             79.369             31.195             29.968
 Vibration     1          0.594              1.982              5.420
 Vibration     2          0.597              1.974              4.480
 Vibration     3          0.606              1.943              3.308
 Vibration     4          0.619              1.901              2.651
 Vibration     5          0.635              1.850              2.199
 Vibration     6          0.670              1.742              1.646
 Vibration     7          0.674              1.729              1.598
 Vibration     8          0.700              1.652              1.354
 Vibration     9          0.753              1.504              1.023
 Vibration    10          0.766              1.470              0.962
 Vibration    11          0.804              1.372              0.811
 Vibration    12          0.816              1.344              0.773
 Vibration    13          0.859              1.241              0.648
 Vibration    14          0.908              1.134              0.539
 Vibration    15          0.948              1.052              0.466
 Vibration    16          0.972              1.004              0.428

 Optimization completed.
    -- Stationary point found.
 Normal termination of Gaussian 16 at Tue Dec  8 19:21:40 2020.

 ----------------------------------------------------------------------
 # B3LYP/6-311++G(d,p) empiricaldispersion=gd3bj scf=xqc pop=npa geom=c
 heck
 ----------------------------------------------------------------------

 --------------------------------------
 CID_71634777_JID_1094_Energie_neutraal
 --------------------------------------
 Structure from the checkpoint file:  "JID_1094.chk"
 Charge =  0 Multiplicity = 1

 SCF Done:  E(RB3LYP) =  -927.644862908     A.U. after   15 cycles
 Normal termination of Gaussian 16 at Tue Dec  8 19:22:43 2020.

 ----------------------------------------------------------------------
 # B3LYP/6-311++G(d,p) empiricaldispersion=gd3bj scf=xqc pop=npa geom=c
 heck
 ----------------------------------------------------------------------

 ------------------------------------
 CID_71634777_JID_1094_Energie_kation
 ------------------------------------
 Structure from the checkpoint file:  "JID_1094.chk"
 Charge =  1 Multiplicity = 2

 SCF Done:  E(UB3LYP) =  -927.265452433     A.U. after   33 cycles
 SCF Done:  E(UB3LYP) =  -927.265452433     a.u. after    1 cycles
 Normal termination of Gaussian 16 at Tue Dec  8 19:26:42 2020.
 Gaussian 16:  ES64L-G16RevA.03 25-Dec-2016

 ----------------------------------------------------------------------
 # B3LYP/6-311++G(d,p) empiricaldispersion=gd3bj scf=xqc pop=npa geom=c
 heck
 ----------------------------------------------------------------------

 -----------------------------------
 CID_71634777_JID_1094_Energie_anion
 -----------------------------------
 Structure from the checkpoint file:  "JID_1094.chk"
 Charge = -1 Multiplicity = 2

                         Standard orientation:
 ---------------------------------------------------------------------
 Center     Atomic      Atomic             Coordinates (Angstroms)
 Number     Number       Type             X           Y           Z
 ---------------------------------------------------------------------
      1          6           0       -3.233006   -1.521680   -0.015705
      2          6           0       -2.210606   -0.424947   -0.010474
      3          7           0       -0.916888   -0.801812   -0.024113
      4          6           0       -0.029546    0.173254   -0.022254
      5          7           0       -0.229126    1.489869    0.000283
      6          6           0       -1.515731    1.863507    0.013916
      7          6           0       -2.550247    0.933342    0.007064
      8         16           0        1.723626   -0.318749    0.051534
      9          8           0        2.079523   -0.372783    1.464859
     10          8           0        1.987691   -1.428407   -0.845178
     11          8           0        2.377142    1.004877   -0.642118
     12          1           0       -3.105434   -2.143725   -0.908097
     13          1           0       -3.082794   -2.173207    0.851686
     14          1           0       -4.251924   -1.127441    0.003721
     15          1           0       -1.711566    2.932617    0.029990
     16          1           0       -3.586695    1.251551    0.017042
     17          1           0        1.862474    1.773429   -0.307857
 ---------------------------------------------------------------------

 SCF Done:  E(UB3LYP) =  -927.667059737     A.U. after   27 cycles

 The electronic state is 2-A.
 Alpha  occ. eigenvalues --  -88.94180 -19.04064 -18.99482 -18.99388 -14.15606
 Alpha  occ. eigenvalues --  -14.14729 -10.11413 -10.04630 -10.03963 -10.03579
 Alpha  occ. eigenvalues --  -10.03286  -8.00338  -5.96747  -5.96532  -5.96335
 Alpha  occ. eigenvalues --   -1.01786  -0.91165  -0.88883  -0.83635  -0.74053
 Alpha  occ. eigenvalues --   -0.65466  -0.58678  -0.55658  -0.49632  -0.48199
 Alpha  occ. eigenvalues --   -0.42580  -0.37850  -0.36369  -0.34472  -0.33788
 Alpha  occ. eigenvalues --   -0.31176  -0.30067  -0.28625  -0.26799  -0.26693
 Alpha  occ. eigenvalues --   -0.24757  -0.24028  -0.22983  -0.20246  -0.20113
 Alpha  occ. eigenvalues --   -0.17627  -0.16589  -0.15560  -0.13593  -0.10904
 Alpha  occ. eigenvalues --    0.04685
 Alpha virt. eigenvalues --    0.08749   0.09898   0.10420   0.11176   0.12524
 Alpha virt. eigenvalues --    0.13186   0.13742   0.15956   0.16468   0.16655
 Alpha virt. eigenvalues --    0.17751   0.18251   0.18430   0.19081   0.20129

  Beta  occ. eigenvalues --  -88.94181 -19.04064 -18.99484 -18.99389 -14.15204
  Beta  occ. eigenvalues --  -14.14333 -10.11499 -10.04040 -10.03631 -10.03480
  Beta  occ. eigenvalues --  -10.03377  -8.00339  -5.96747  -5.96532  -5.96338
  Beta  occ. eigenvalues --   -1.01788  -0.91167  -0.88888  -0.82951  -0.73055
  Beta  occ. eigenvalues --   -0.64910  -0.58352  -0.55602  -0.49458  -0.47376
  Beta  occ. eigenvalues --   -0.42369  -0.37675  -0.36036  -0.34401  -0.33627
  Beta  occ. eigenvalues --   -0.30919  -0.29146  -0.28266  -0.26617  -0.25839
  Beta  occ. eigenvalues --   -0.24502  -0.23792  -0.22954  -0.20113  -0.19859
  Beta  occ. eigenvalues --   -0.17612  -0.15139  -0.13605  -0.12240  -0.10419
  Beta virt. eigenvalues --    0.08689   0.09878   0.10820   0.11148   0.12218
  Beta virt. eigenvalues --    0.12513   0.13655   0.13904   0.15963   0.16459
  Beta virt. eigenvalues --    0.16738   0.17832   0.18251   0.18397   0.19089

 Mulliken charges and spin densities:
               1          2
     1  C   -0.448637  -0.070846
     2  C    0.184141   0.347551
     3  N   -0.020374   0.205488
     4  C   -0.874707  -0.063227
     5  N   -0.129605   0.157309
     6  C   -0.244309   0.485410
     7  C   -0.358652  -0.128968
     8  S    0.731012   0.009172
     9  O   -0.187790  -0.001734
    10  O   -0.222293  -0.000931
    11  O   -0.255250   0.002470
    12  H    0.108530   0.045112
    13  H    0.105570   0.044983
    14  H    0.112713  -0.000409
    15  H    0.125096  -0.038963
    16  H    0.087542   0.010870
    17  H    0.287014  -0.003286
 Sum of Mulliken charges =  -1.00000   1.00000

 Dipole moment (field-independent basis, Debye):
    X=             -1.8168    Y=              1.9768    Z=             -0.2811  Tot=              2.6996
 Quadrupole moment (field-independent basis, Debye-Ang):
   XX=            -94.3154   YY=            -85.8777   ZZ=            -83.7555
   XY=              3.8265   XZ=             -0.5462   YZ=             -0.9649

 Summary of Natural Population Analysis:

                                       Natural Population
                Natural  -----------------------------------------------
    Atom  No    Charge         Core      Valence    Rydberg      Total
 -----------------------------------------------------------------------
      C    1   -0.30193      0.99965     2.29763    0.00465     3.30193
      C    2    0.21502      0.99957     1.77266    0.01275     2.78498
      N    3   -0.20878      0.99961     2.69619    0.01298     3.70878
      C    4    0.09550      0.99949     1.87906    0.02595     2.90450
      N    5   -0.24390      0.99963     2.72906    0.01521     3.74390
      C    6    0.14086      0.99961     1.84386    0.01567     2.85914
      C    7   -0.17798      0.99952     2.17105    0.00742     3.17798
      S    8    1.10922      4.99932     1.78511    0.10636     6.89078
      O    9   -0.45663      0.99990     3.45056    0.00617     4.45663
      O   10   -0.44983      0.99990     3.44380    0.00614     4.44983
      O   11   -0.44972      0.99990     3.44328    0.00654     4.44972
      H   12    0.10675      0.00000     0.39216    0.00108     0.39325
      H   13    0.10669      0.00000     0.39223    0.00108     0.39331
      H   14    0.09024      0.00000     0.40892    0.00084     0.40976
      H   15    0.07395      0.00000     0.42486    0.00118     0.42605
      H   16    0.09370      0.00000     0.40519    0.00111     0.40630
      H   17    0.25684      0.00000     0.23976    0.00340     0.24316
 =======================================================================
   * Total *    0.00000     14.99610    29.77537    0.22853    45.00000

 Normal termination of Gaussian 16 at Tue Dec  8 19:30:10 2020.
