 Gaussian 16, Revision A.03,

 -----------------------------------------------------------
 # opt freq B3LYP/6-31G(d) empiricaldispersion=gd3bj scf=xqc
 -----------------------------------------------------------

 -------------------------------
 CID_133631227_JID_2599_neutraal
 -------------------------------
 Symbolic Z-matrix:
 Charge =  0 Multiplicity = 1

 SCF Done:  E(RB3LYP) =  -661.025325461     A.U. after   14 cycles
 SCF Done:  E(RB3LYP) =  -661.029597537     A.U. after   15 cycles
 SCF Done:  E(RB3LYP) =  -661.030877169     A.U. after   14 cycles
 SCF Done:  E(RB3LYP) =  -661.031583646     A.U. after   12 cycles
 SCF Done:  E(RB3LYP) =  -661.031698883     A.U. after   12 cycles
 SCF Done:  E(RB3LYP) =  -661.031756503     A.U. after   12 cycles
 SCF Done:  E(RB3LYP) =  -661.031799944     A.U. after   10 cycles
 SCF Done:  E(RB3LYP) =  -661.031827068     A.U. after   11 cycles
 SCF Done:  E(RB3LYP) =  -661.031844210     A.U. after   12 cycles
 SCF Done:  E(RB3LYP) =  -661.031849120     A.U. after    9 cycles
 SCF Done:  E(RB3LYP) =  -661.031852643     A.U. after   10 cycles
 SCF Done:  E(RB3LYP) =  -661.031854701     A.U. after   10 cycles
 SCF Done:  E(RB3LYP) =  -661.031855172     A.U. after    8 cycles
 SCF Done:  E(RB3LYP) =  -661.031855221     A.U. after    8 cycles
 SCF Done:  E(RB3LYP) =  -661.031855249     A.U. after    7 cycles
 Optimization completed.
    -- Stationary point found.
 Normal termination of Gaussian 16 at Wed Dec  9 17:56:48 2020.

 --------------------------------------------------------------------
 #N Geom=AllCheck Guess=TCheck SCRF=Check GenChk RB3LYP/6-31G(d) Freq
 --------------------------------------------------------------------

 Structure from the checkpoint file:  "JID_2599.chk"
 -------------------------------
 CID_133631227_JID_2599_neutraal
 -------------------------------
 Charge =  0 Multiplicity = 1

 SCF Done:  E(RB3LYP) =  -661.031855249     A.U. after    1 cycles

  Exact polarizability: 119.928   0.033  66.566  -0.030   0.363  66.569
 Approx polarizability: 185.762  -8.945  99.694   6.802  -0.126 102.325

                      1                      2                      3
                      A                      A                      A
 Frequencies --     26.4362                85.5267               112.8981
 Red. masses --      8.7389                 8.0582                 5.6411
 Frc consts  --      0.0036                 0.0347                 0.0424
 IR Inten    --      0.5989                 1.0958                 5.9221

                      4                      5                      6
                      A                      A                      A
 Frequencies --    125.3225               175.1878               222.2540
 Red. masses --      3.9930                 4.4989                 6.1001
 Frc consts  --      0.0369                 0.0814                 0.1775
 IR Inten    --      4.0417                 4.7878                 6.0428

                      7                      8                      9
                      A                      A                      A
 Frequencies --    248.2773               270.8720               295.0105
 Red. masses --      4.3059                 4.8538                 5.8316
 Frc consts  --      0.1564                 0.2098                 0.2990
 IR Inten    --      8.2580                 6.9933                 2.3396

                     10                     11                     12
                      A                      A                      A
 Frequencies --    375.3921               401.5067               410.7209
 Red. masses --      2.5544                 2.2326                 1.4428
 Frc consts  --      0.2121                 0.2121                 0.1434
 IR Inten    --      1.2701                 3.0512                97.1492

                     13                     14                     15
                      A                      A                      A
 Frequencies --    444.0035               480.3356               546.4255
 Red. masses --      1.3270                 3.3755                 3.2328
 Frc consts  --      0.1541                 0.4589                 0.5687
 IR Inten    --     51.3474                23.7448                24.5583

                     16                     17                     18
                      A                      A                      A
 Frequencies --    570.6521               584.7745               630.9079
 Red. masses --     13.1014                 4.4328                 6.1001
 Frc consts  --      2.5137                 0.8931                 1.4306
 IR Inten    --     12.7047                14.9141                16.1219

                     19                     20                     21
                      A                      A                      A
 Frequencies --    669.3312               707.6268               802.9468
 Red. masses --      1.4326                 5.6995                 3.6940
 Frc consts  --      0.3781                 1.6815                 1.4032
 IR Inten    --    163.2626                53.8692                12.5558

                     22                     23                     24
                      A                      A                      A
 Frequencies --    825.4613               896.3228               927.3502
 Red. masses --      4.1762                 3.2696                 2.3004
 Frc consts  --      1.6766                 1.5476                 1.1656
 IR Inten    --     24.4940                17.8688                 9.3879

                     25                     26                     27
                      A                      A                      A
 Frequencies --    955.3216               968.8502               973.5374
 Red. masses --      3.1612                 4.4310                 1.9678
 Frc consts  --      1.6998                 2.4505                 1.0988
 IR Inten    --     54.6499                 8.5207                25.2237

                     28                     29                     30
                      A                      A                      A
 Frequencies --   1060.9654              1092.9917              1127.2414
 Red. masses --      4.1718                 4.2013                 2.9606
 Frc consts  --      2.7668                 2.9571                 2.2165
 IR Inten    --     46.8171               155.5055                51.1203

                     31                     32                     33
                      A                      A                      A
 Frequencies --   1157.0427              1164.5946              1182.6025
 Red. masses --      2.0897                 2.3775                 1.9023
 Frc consts  --      1.6483                 1.8999                 1.5675
 IR Inten    --     71.5540               147.3434                24.5670

                     34                     35                     36
                      A                      A                      A
 Frequencies --   1230.9477              1286.5777              1293.5349
 Red. masses --      1.2208                 1.3897                 1.5320
 Frc consts  --      1.0899                 1.3554                 1.5103
 IR Inten    --     22.7923                25.4827                26.0798

                     37                     38                     39
                      A                      A                      A
 Frequencies --   1332.8248              1338.8483              1347.5928
 Red. masses --      1.7466                 1.8856                 2.8080
 Frc consts  --      1.8280                 1.9914                 3.0045
 IR Inten    --     87.3746                18.1804               100.7344

                     40                     41                     42
                      A                      A                      A
 Frequencies --   1352.8023              1374.1708              1395.2000
 Red. masses --      1.4193                 1.4003                 1.3905
 Frc consts  --      1.5304                 1.5579                 1.5948
 IR Inten    --     42.2922                42.1235                13.8601

                     43                     44                     45
                      A                      A                      A
 Frequencies --   1443.6493              1462.0658              1487.4020
 Red. masses --      1.7863                 1.2356                 1.2146
 Frc consts  --      2.1935                 1.5562                 1.5832
 IR Inten    --     20.5495                45.8776               140.7110

                     46                     47                     48
                      A                      A                      A
 Frequencies --   1514.7682              1544.2692              2276.6536
 Red. masses --      1.0875                 1.0943                13.5053
 Frc consts  --      1.4702                 1.5376                41.2429
 IR Inten    --     18.7451                 3.7485               564.3230

                     49                     50                     51
                      A                      A                      A
 Frequencies --   3035.4531              3047.0183              3074.3827
 Red. masses --      1.0671                 1.0575                 1.0853
 Frc consts  --      5.7930                 5.7846                 6.0438
 IR Inten    --     44.2943                15.0277                25.7969

                     52                     53                     54
                      A                      A                      A
 Frequencies --   3099.0067              3110.6936              3134.7948
 Red. masses --      1.1079                 1.0996                 1.0897
 Frc consts  --      6.2692                 6.2693                 6.3090
 IR Inten    --     18.1116                29.6348                48.8805

                     55                     56                     57
                      A                      A                      A
 Frequencies --   3635.7742              3679.0191              3698.2252
 Red. masses --      1.0648                 1.0644                 1.0655
 Frc consts  --      8.2929                 8.4886                 8.5863
 IR Inten    --     91.0218                62.9302                46.3555

 - Thermochemistry -
 -------------------
 Temperature   298.150 Kelvin.  Pressure   1.00000 Atm.
 Atom     1 has atomic number  6 and mass  12.00000

 Molecular mass:   175.05931 amu.
 Principal axes and moments of inertia in atomic units:
                           1         2         3
     Eigenvalues --   834.186083485.469953773.00096
           X            1.00000   0.00195   0.00067
           Y           -0.00195   0.99999   0.00490
           Z           -0.00066  -0.00490   0.99999
 This molecule is an asymmetric top.
 Rotational symmetry number  1.
 Warning -- assumption of classical behavior for rotation
           may cause significant error
 Rotational temperatures (Kelvin)      0.10383     0.02485     0.02296
 Rotational constants (GHZ):           2.16348     0.51779     0.47833
 Zero-point vibrational energy     428947.2 (Joules/Mol)
                                  102.52083 (Kcal/Mol)
 Warning -- explicit consideration of  17 degrees of freedom as
           vibrations may cause significant error
 Vibrational temperatures:     38.04   123.05   162.44   180.31   252.06
          (Kelvin)            319.77   357.22   389.72   424.45   540.11
                              577.68   590.94   638.82   691.10   786.18
                              821.04   841.36   907.74   963.02  1018.12
                             1155.26  1187.65  1289.61  1334.25  1374.49
                             1393.96  1400.70  1526.49  1572.57  1621.85
                             1664.73  1675.59  1701.50  1771.06  1851.10
                             1861.11  1917.64  1926.30  1938.89  1946.38
                             1977.13  2007.38  2077.09  2103.59  2140.04
                             2179.41  2221.86  3275.60  4367.34  4383.98
                             4423.35  4458.78  4475.59  4510.27  5231.07
                             5293.29  5320.92

 Zero-point correction=                           0.163377 (Hartree/Particle)
 Thermal correction to Energy=                    0.174752
 Thermal correction to Enthalpy=                  0.175696
 Thermal correction to Gibbs Free Energy=         0.125346
 Sum of electronic and zero-point Energies=           -660.868478
 Sum of electronic and thermal Energies=              -660.857104
 Sum of electronic and thermal Enthalpies=            -660.856160
 Sum of electronic and thermal Free Energies=         -660.906509

                     E (Thermal)             CV                S
                      KCal/Mol        Cal/Mol-Kelvin    Cal/Mol-Kelvin
 Total                  109.658             42.344            105.970
 Electronic               0.000              0.000              0.000
 Translational            0.889              2.981             41.387
 Rotational               0.889              2.981             30.773
 Vibrational            107.881             36.382             33.810
 Vibration     1          0.593              1.985              6.080
 Vibration     2          0.601              1.959              3.760
 Vibration     3          0.607              1.939              3.218
 Vibration     4          0.610              1.928              3.017
 Vibration     5          0.627              1.873              2.379
 Vibration     6          0.648              1.807              1.941
 Vibration     7          0.662              1.766              1.743
 Vibration     8          0.675              1.727              1.591
 Vibration     9          0.689              1.683              1.445
 Vibration    10          0.746              1.523              1.058
 Vibration    11          0.767              1.467              0.957
 Vibration    12          0.775              1.447              0.924
 Vibration    13          0.804              1.374              0.814
 Vibration    14          0.837              1.294              0.709
 Vibration    15          0.902              1.148              0.552
 Vibration    16          0.927              1.095              0.503
 Vibration    17          0.942              1.064              0.477

 Optimization completed.
    -- Stationary point found.
 Normal termination of Gaussian 16 at Wed Dec  9 18:01:47 2020.

 ----------------------------------------------------------------------
 # B3LYP/6-311++G(d,p) empiricaldispersion=gd3bj scf=xqc pop=npa geom=c
 heck
 ----------------------------------------------------------------------

 ---------------------------------------
 CID_133631227_JID_2599_Energie_neutraal
 ---------------------------------------
 Structure from the checkpoint file:  "JID_2599.chk"
 Charge =  0 Multiplicity = 1

 SCF Done:  E(RB3LYP) =  -661.249251379     A.U. after   15 cycles
 Normal termination of Gaussian 16 at Wed Dec  9 18:04:14 2020.

 ----------------------------------------------------------------------
 # B3LYP/6-311++G(d,p) empiricaldispersion=gd3bj scf=xqc pop=npa geom=c
 heck
 ----------------------------------------------------------------------

 -------------------------------------
 CID_133631227_JID_2599_Energie_kation
 -------------------------------------
 Structure from the checkpoint file:  "JID_2599.chk"
 Charge =  1 Multiplicity = 2

 SCF Done:  E(UB3LYP) =  -660.896881112     A.U. after   33 cycles
 SCF Done:  E(UB3LYP) =  -660.896881112     a.u. after    2 cycles
 Normal termination of Gaussian 16 at Wed Dec  9 18:16:17 2020.
 Gaussian 16:  ES64L-G16RevA.03 25-Dec-2016

 ----------------------------------------------------------------------
 # B3LYP/6-311++G(d,p) empiricaldispersion=gd3bj scf=xqc pop=npa geom=c
 heck
 ----------------------------------------------------------------------

 ------------------------------------
 CID_133631227_JID_2599_Energie_anion
 ------------------------------------
 Structure from the checkpoint file:  "JID_2599.chk"
 Charge = -1 Multiplicity = 2

                         Standard orientation:
 ---------------------------------------------------------------------
 Center     Atomic      Atomic             Coordinates (Angstroms)
 Number     Number       Type             X           Y           Z
 ---------------------------------------------------------------------
      1          6           0        0.455229   -1.527801   -0.339284
      2          6           0        0.059954   -0.072300   -0.066591
      3          6           0        1.226538    0.662277   -0.761610
      4          6           0        2.411097   -0.232177   -0.337307
      5          8           0        1.892833   -1.549900   -0.340802
      6          8           0        2.897795    0.161425    0.924838
      7          8           0        1.373676    2.011546   -0.428170
      8          6           0       -1.309393    0.349280   -0.565740
      9          7           0       -2.307179   -0.357957    0.275948
     10          7           0       -3.487431   -0.039539    0.093572
     11          7           0       -4.605183    0.169574    0.007031
     12          8           0        0.168061    0.224343    1.331335
     13          1           0        0.082248   -1.866846   -1.315563
     14          1           0        0.084617   -2.210143    0.431039
     15          1           0        1.081456    0.595426   -1.846385
     16          1           0        3.265454   -0.186443   -1.014984
     17          1           0        2.157501    0.019537    1.547424
     18          1           0        1.875916    2.014860    0.407182
     19          1           0       -1.404131    1.435710   -0.452188
     20          1           0       -1.439567    0.086832   -1.622935
     21          1           0       -0.624411   -0.148474    1.756139
 ---------------------------------------------------------------------

 SCF Done:  E(UB3LYP) =  -661.248097708     A.U. after   28 cycles

 The electronic state is 2-A.
 Alpha  occ. eigenvalues --  -19.03038 -19.02904 -19.02644 -19.02595 -14.31806
 Alpha  occ. eigenvalues --  -14.22409 -14.22154 -10.17010 -10.12997 -10.12404
 Alpha  occ. eigenvalues --  -10.11321 -10.09585  -0.99255  -0.98220  -0.93502
 Alpha  occ. eigenvalues --   -0.92525  -0.90704  -0.83641  -0.68965  -0.63259
 Alpha  occ. eigenvalues --   -0.60688  -0.52050  -0.49712  -0.44633  -0.43080
 Alpha  occ. eigenvalues --   -0.42322  -0.39159  -0.38493  -0.37389  -0.36626
 Alpha  occ. eigenvalues --   -0.34869  -0.33496  -0.32287  -0.31580  -0.30989
 Alpha  occ. eigenvalues --   -0.29948  -0.28164  -0.25707  -0.25062  -0.23952
 Alpha  occ. eigenvalues --   -0.20825  -0.19082  -0.17738  -0.17117  -0.16563
 Alpha  occ. eigenvalues --   -0.12207   0.04868
 Alpha virt. eigenvalues --    0.07622   0.08723   0.09349   0.09840   0.11162
 Alpha virt. eigenvalues --    0.11799   0.12247   0.12580   0.13525   0.14012
 Alpha virt. eigenvalues --    0.16444   0.16664   0.17568   0.17663   0.18478

  Beta  occ. eigenvalues --  -19.03033 -19.02892 -19.02637 -19.02545 -14.31446
  Beta  occ. eigenvalues --  -14.22249 -14.21905 -10.17003 -10.12993 -10.12381
  Beta  occ. eigenvalues --  -10.11289 -10.09470  -0.98560  -0.98175  -0.93462
  Beta  occ. eigenvalues --   -0.92450  -0.90674  -0.83280  -0.68868  -0.63193
  Beta  occ. eigenvalues --   -0.60495  -0.52004  -0.49630  -0.44508  -0.42976
  Beta  occ. eigenvalues --   -0.42231  -0.38887  -0.38428  -0.37171  -0.35712
  Beta  occ. eigenvalues --   -0.34802  -0.32813  -0.32144  -0.31437  -0.30501
  Beta  occ. eigenvalues --   -0.29413  -0.28042  -0.25637  -0.24984  -0.23931
  Beta  occ. eigenvalues --   -0.20793  -0.18861  -0.17241  -0.17083  -0.16352
  Beta  occ. eigenvalues --   -0.12094
  Beta virt. eigenvalues --    0.07877   0.08990   0.09537   0.10146   0.11368
  Beta virt. eigenvalues --    0.11733   0.12217   0.12597   0.12871   0.13638
  Beta virt. eigenvalues --    0.14416   0.16579   0.16789   0.17627   0.17839

 Mulliken charges and spin densities:
               1          2
     1  C    1.077336  -1.379350
     2  C   -1.216511   1.379646
     3  C    0.320550  -0.822001
     4  C   -0.325816   0.103677
     5  O   -0.178351   0.047669
     6  O   -0.205829  -0.026037
     7  O   -0.147034  -0.003395
     8  C    1.194191  -1.825882
     9  N   -0.921256   0.332993
    10  N    0.692224   0.206078
    11  N   -0.190213   0.060878
    12  O   -0.293090   0.051213
    13  H   -0.387258   0.593488
    14  H    0.001314   0.195141
    15  H   -0.427791   0.655410
    16  H   -0.012377   0.236189
    17  H    0.246016   0.044481
    18  H    0.260616  -0.011327
    19  H    0.112245   0.084340
    20  H   -0.445348   0.634511
    21  H   -0.153619   0.442277
 Sum of Mulliken charges =  -1.00000   1.00000

 Dipole moment (field-independent basis, Debye):
    X=              4.2745    Y=              0.7083    Z=              1.6754  Tot=              4.6455
 Quadrupole moment (field-independent basis, Debye-Ang):
   XX=           -131.2811   YY=            -92.8874   ZZ=            -97.2932
   XY=              0.6678   XZ=              0.4513   YZ=              0.4949

 Summary of Natural Population Analysis:

                                       Natural Population
                Natural  -----------------------------------------------
    Atom  No    Charge         Core      Valence    Rydberg      Total
 -----------------------------------------------------------------------
      C    1   -0.01878      0.99951     2.00546    0.01381     3.01878
      C    2    0.10439      0.99950     1.87706    0.01906     2.89561
      C    3    0.04025      0.99945     1.94238    0.01792     2.95975
      C    4    0.20681      0.99960     1.77359    0.02000     2.79319
      O    5   -0.30268      0.99989     3.29459    0.00821     4.30268
      O    6   -0.38323      0.99989     3.37637    0.00697     4.38323
      O    7   -0.36568      0.99989     3.35843    0.00736     4.36568
      C    8   -0.09439      0.99951     2.08259    0.01229     3.09439
      N    9   -0.24272      0.99970     2.72789    0.01514     3.74272
      N   10    0.14912      0.99970     2.33536    0.01581     3.35088
      N   11    0.00640      0.99982     2.48045    0.01334     3.49360
      O   12   -0.39587      0.99988     3.38817    0.00781     4.39587
      H   13    0.09113      0.00000     0.40678    0.00209     0.40887
      H   14    0.09621      0.00000     0.40197    0.00182     0.40379
      H   15    0.09959      0.00000     0.39811    0.00230     0.40041
      H   16    0.08253      0.00000     0.41618    0.00129     0.41747
      H   17    0.24391      0.00000     0.25268    0.00341     0.25609
      H   18    0.23616      0.00000     0.26057    0.00326     0.26384
      H   19    0.09930      0.00000     0.39911    0.00158     0.40070
      H   20    0.09955      0.00000     0.39738    0.00307     0.40045
      H   21    0.24800      0.00000     0.24636    0.00563     0.25200
 =======================================================================
   * Total *   -0.00000     11.99635    33.82149    0.18216    46.00000

 Normal termination of Gaussian 16 at Wed Dec  9 18:22:05 2020.
