 Gaussian 16, Revision A.03,

 -----------------------------------------------------------
 # opt freq B3LYP/6-31G(d) empiricaldispersion=gd3bj scf=xqc
 -----------------------------------------------------------

 -------------------------------
 CID_150723015_JID_4488_neutraal
 -------------------------------
 Symbolic Z-matrix:
 Charge =  0 Multiplicity = 1

 SCF Done:  E(RB3LYP) =  -702.550911430     A.U. after   15 cycles
 SCF Done:  E(RB3LYP) =  -702.552731819     A.U. after   16 cycles
 SCF Done:  E(RB3LYP) =  -702.554653259     A.U. after   13 cycles
 SCF Done:  E(RB3LYP) =  -702.555064107     A.U. after   13 cycles
 SCF Done:  E(RB3LYP) =  -702.554898024     A.U. after   14 cycles
 SCF Done:  E(RB3LYP) =  -702.555190455     A.U. after   13 cycles
 SCF Done:  E(RB3LYP) =  -702.555267633     A.U. after   12 cycles
 SCF Done:  E(RB3LYP) =  -702.555310539     A.U. after   12 cycles
 SCF Done:  E(RB3LYP) =  -702.555336934     A.U. after   13 cycles
 SCF Done:  E(RB3LYP) =  -702.555363523     A.U. after   10 cycles
 SCF Done:  E(RB3LYP) =  -702.555385089     A.U. after    9 cycles
 SCF Done:  E(RB3LYP) =  -702.555385138     A.U. after    8 cycles
 SCF Done:  E(RB3LYP) =  -702.555385147     A.U. after    8 cycles
 SCF Done:  E(RB3LYP) =  -702.555385143     A.U. after    8 cycles
 Optimization completed.
    -- Stationary point found.
 Normal termination of Gaussian 16 at Thu Dec 10 09:56:27 2020.

 --------------------------------------------------------------------
 #N Geom=AllCheck Guess=TCheck SCRF=Check GenChk RB3LYP/6-31G(d) Freq
 --------------------------------------------------------------------

 Structure from the checkpoint file:  "JID_4488.chk"
 -------------------------------
 CID_150723015_JID_4488_neutraal
 -------------------------------
 Charge =  0 Multiplicity = 1

 SCF Done:  E(RB3LYP) =  -702.555385143     A.U. after    1 cycles

  Exact polarizability: 121.193  16.904 136.674  -6.814  -1.811  89.763
 Approx polarizability: 183.356  52.864 199.927 -21.117 -16.007 137.701

                      1                      2                      3
                      A                      A                      A
 Frequencies --     20.8938                26.7700                36.6957
 Red. masses --      6.9677                 7.4519                 6.3140
 Frc consts  --      0.0018                 0.0031                 0.0050
 IR Inten    --      0.9455                 2.0169                 0.1564

                      4                      5                      6
                      A                      A                      A
 Frequencies --     42.6727                77.1163                99.6057
 Red. masses --      5.2356                 4.1892                 3.2337
 Frc consts  --      0.0056                 0.0147                 0.0189
 IR Inten    --      0.1579                 1.0089                 5.5271

                      7                      8                      9
                      A                      A                      A
 Frequencies --    115.5613               149.7278               155.3157
 Red. masses --      2.5676                 1.8781                 4.2067
 Frc consts  --      0.0202                 0.0248                 0.0598
 IR Inten    --      1.4335                 1.9679                 2.4131

                     10                     11                     12
                      A                      A                      A
 Frequencies --    200.7422               217.0069               234.4130
 Red. masses --      4.0722                 2.0139                 2.4018
 Frc consts  --      0.0967                 0.0559                 0.0778
 IR Inten    --      3.4198                 0.5892                 2.3491

                     13                     14                     15
                      A                      A                      A
 Frequencies --    250.9492               289.6742               328.3071
 Red. masses --      4.4489                 2.7695                 2.8869
 Frc consts  --      0.1651                 0.1369                 0.1833
 IR Inten    --     12.0213                 0.2911                 0.8347

                     16                     17                     18
                      A                      A                      A
 Frequencies --    332.8335               376.6676               488.3778
 Red. masses --      2.5737                 3.3687                 3.8315
 Frc consts  --      0.1680                 0.2816                 0.5384
 IR Inten    --      2.8455                 0.4234                10.7992

                     19                     20                     21
                      A                      A                      A
 Frequencies --    496.1389               525.3467               571.7704
 Red. masses --      2.2690                 2.8065                13.2525
 Frc consts  --      0.3291                 0.4564                 2.5526
 IR Inten    --     14.5277                 8.7981                 8.3884

                     22                     23                     24
                      A                      A                      A
 Frequencies --    637.6826               690.6388               701.3014
 Red. masses --      7.9815                 2.8088                 3.8297
 Frc consts  --      1.9122                 0.7894                 1.1097
 IR Inten    --     14.4029                 7.5836                 6.4017

                     25                     26                     27
                      A                      A                      A
 Frequencies --    804.6853               856.2007               862.8305
 Red. masses --      2.8133                 2.7766                 2.1705
 Frc consts  --      1.0733                 1.1993                 0.9521
 IR Inten    --     11.0210                 7.3542                 9.4934

                     28                     29                     30
                      A                      A                      A
 Frequencies --    878.2482               914.9812               951.8477
 Red. masses --      3.4158                 2.1803                 1.7540
 Frc consts  --      1.5523                 1.0755                 0.9363
 IR Inten    --     15.7414                15.8689                25.3555

                     31                     32                     33
                      A                      A                      A
 Frequencies --   1003.7150              1024.2655              1033.5922
 Red. masses --      2.7882                 1.1000                 2.3379
 Frc consts  --      1.6550                 0.6800                 1.4715
 IR Inten    --     61.1454                21.5127                 3.1765

                     34                     35                     36
                      A                      A                      A
 Frequencies --   1043.9902              1093.0822              1096.6583
 Red. masses --      2.9349                 1.5307                 3.9432
 Frc consts  --      1.8847                 1.0776                 2.7941
 IR Inten    --     13.7574                 1.6456                47.9285

                     37                     38                     39
                      A                      A                      A
 Frequencies --   1111.3458              1134.6680              1144.3787
 Red. masses --      2.2516                 2.3453                 2.3454
 Frc consts  --      1.6385                 1.7790                 1.8097
 IR Inten    --     12.2258                18.3684                 9.6320

                     40                     41                     42
                      A                      A                      A
 Frequencies --   1173.4172              1259.7048              1272.8975
 Red. masses --      4.7896                 1.1019                 1.1294
 Frc consts  --      3.8856                 1.0302                 1.0782
 IR Inten    --    119.8231                 0.5264                 7.4570

                     43                     44                     45
                      A                      A                      A
 Frequencies --   1299.5109              1313.5578              1329.6317
 Red. masses --      3.2554                 1.4507                 1.7495
 Frc consts  --      3.2391                 1.4747                 1.8223
 IR Inten    --    450.6536                26.9962                95.2933

                     46                     47                     48
                      A                      A                      A
 Frequencies --   1344.3529              1351.3087              1362.5561
 Red. masses --      2.2320                 1.2935                 1.2645
 Frc consts  --      2.3767                 1.3916                 1.3832
 IR Inten    --     71.9468                 1.3149                 6.4929

                     49                     50                     51
                      A                      A                      A
 Frequencies --   1396.1015              1409.3150              1433.7492
 Red. masses --      1.2674                 1.3586                 1.3947
 Frc consts  --      1.4554                 1.5898                 1.6892
 IR Inten    --     43.2033                15.3299                18.6675

                     52                     53                     54
                      A                      A                      A
 Frequencies --   1438.9277              1452.5955              1504.9125
 Red. masses --      1.2566                 1.3481                 1.0846
 Frc consts  --      1.5329                 1.6759                 1.4473
 IR Inten    --      4.1639                 3.6900                18.6864

                     55                     56                     57
                      A                      A                      A
 Frequencies --   1506.4712              1510.0812              1513.4596
 Red. masses --      1.0466                 1.0829                 1.0646
 Frc consts  --      1.3994                 1.4550                 1.4367
 IR Inten    --      5.8949                 3.9422                11.6263

                     58                     59                     60
                      A                      A                      A
 Frequencies --   1517.9070              1525.0914              1722.9230
 Red. masses --      1.0900                 1.0953                 5.7120
 Frc consts  --      1.4797                 1.5010                 9.9901
 IR Inten    --      2.2040                 6.4664                24.4504

                     61                     62                     63
                      A                      A                      A
 Frequencies --   1807.7099              2263.9899              3025.2906
 Red. masses --     10.8616                13.4723                 1.0603
 Frc consts  --     20.9123                40.6855                 5.7177
 IR Inten    --    339.1913               556.7689                27.9842

                     64                     65                     66
                      A                      A                      A
 Frequencies --   3037.0383              3061.1064              3068.6976
 Red. masses --      1.0376                 1.0588                 1.0609
 Frc consts  --      5.6389                 5.8454                 5.8864
 IR Inten    --     18.3665                26.0129                35.0568

                     67                     68                     69
                      A                      A                      A
 Frequencies --   3071.7725              3083.3953              3084.4209
 Red. masses --      1.0669                 1.0951                 1.0991
 Frc consts  --      5.9313                 6.1345                 6.1609
 IR Inten    --     10.4347                30.4707                19.2759

                     70                     71                     72
                      A                      A                      A
 Frequencies --   3112.6846              3122.0402              3122.7643
 Red. masses --      1.1052                 1.1075                 1.1068
 Frc consts  --      6.3092                 6.3602                 6.3589
 IR Inten    --     25.2066                24.2200                24.4443

                     73                     74                     75
                      A                      A                      A
 Frequencies --   3128.2811              3180.0479              3202.7038
 Red. masses --      1.1008                 1.0920                 1.0896
 Frc consts  --      6.3472                 6.5066                 6.5849
 IR Inten    --     19.7527                 0.8447                 8.0732

 - Thermochemistry -
 -------------------
 Temperature   298.150 Kelvin.  Pressure   1.00000 Atm.
 Atom     1 has atomic number  6 and mass  12.00000

 Molecular mass:   199.09569 amu.
 Principal axes and moments of inertia in atomic units:
                           1         2         3
     Eigenvalues --  2557.893663787.456525550.61039
           X            0.99611  -0.08783   0.00679
           Y            0.08765   0.99588   0.02306
           Z           -0.00879  -0.02237   0.99971
 This molecule is an asymmetric top.
 Rotational symmetry number  1.
 Warning -- assumption of classical behavior for rotation
           may cause significant error
 Rotational temperatures (Kelvin)      0.03386     0.02287     0.01560
 Rotational constants (GHZ):           0.70556     0.47650     0.32514
 Zero-point vibrational energy     574393.6 (Joules/Mol)
                                  137.28337 (Kcal/Mol)
 Warning -- explicit consideration of  21 degrees of freedom as
           vibrations may cause significant error
 Vibrational temperatures:     30.06    38.52    52.80    61.40   110.95
          (Kelvin)            143.31   166.27   215.42   223.46   288.82
                              312.22   337.27   361.06   416.78   472.36
                              478.87   541.94   702.67   713.83   755.86
                              822.65   917.48   993.68  1009.02  1157.76
                             1231.88  1241.42  1263.60  1316.45  1369.50
                             1444.12  1473.69  1487.11  1502.07  1572.70
                             1577.85  1598.98  1632.53  1646.51  1688.29
                             1812.43  1831.42  1869.71  1889.92  1913.04
                             1934.22  1944.23  1960.41  2008.68  2027.69
                             2062.85  2070.30  2089.96  2165.23  2167.48
                             2172.67  2177.53  2183.93  2194.27  2478.90
                             2600.89  3257.38  4352.72  4369.62  4404.25
                             4415.17  4419.60  4436.32  4437.79  4478.46
                             4491.92  4492.96  4500.90  4575.38  4607.98

 Zero-point correction=                           0.218775 (Hartree/Particle)
 Thermal correction to Energy=                    0.234208
 Thermal correction to Enthalpy=                  0.235152
 Thermal correction to Gibbs Free Energy=         0.172757
 Sum of electronic and zero-point Energies=           -702.336610
 Sum of electronic and thermal Energies=              -702.321177
 Sum of electronic and thermal Enthalpies=            -702.320233
 Sum of electronic and thermal Free Energies=         -702.382628

                     E (Thermal)             CV                S
                      KCal/Mol        Cal/Mol-Kelvin    Cal/Mol-Kelvin
 Total                  146.968             52.900            131.321
 Electronic               0.000              0.000              0.000
 Translational            0.889              2.981             41.771
 Rotational               0.889              2.981             32.353
 Vibrational            145.190             46.939             57.198
 Vibration     1          0.593              1.986              6.547
 Vibration     2          0.593              1.984              6.055
 Vibration     3          0.594              1.982              5.430
 Vibration     4          0.595              1.980              5.131
 Vibration     5          0.599              1.964              3.963
 Vibration     6          0.604              1.949              3.462
 Vibration     7          0.608              1.936              3.173
 Vibration     8          0.618              1.903              2.676
 Vibration     9          0.620              1.897              2.606
 Vibration    10          0.638              1.839              2.126
 Vibration    11          0.646              1.815              1.984
 Vibration    12          0.654              1.788              1.845
 Vibration    13          0.663              1.761              1.724
 Vibration    14          0.686              1.693              1.476
 Vibration    15          0.712              1.619              1.268
 Vibration    16          0.715              1.610              1.246
 Vibration    17          0.747              1.520              1.053
 Vibration    18          0.844              1.276              0.688
 Vibration    19          0.852              1.259              0.668
 Vibration    20          0.880              1.194              0.598
 Vibration    21          0.928              1.092              0.501

 Optimization completed.
    -- Stationary point found.
 Normal termination of Gaussian 16 at Thu Dec 10 10:02:57 2020.

 ----------------------------------------------------------------------
 # B3LYP/6-311++G(d,p) empiricaldispersion=gd3bj scf=xqc pop=npa geom=c
 heck
 ----------------------------------------------------------------------

 ---------------------------------------
 CID_150723015_JID_4488_Energie_neutraal
 ---------------------------------------
 Structure from the checkpoint file:  "JID_4488.chk"
 Charge =  0 Multiplicity = 1

 SCF Done:  E(RB3LYP) =  -702.761026843     A.U. after   17 cycles
 Normal termination of Gaussian 16 at Thu Dec 10 10:05:51 2020.

 ----------------------------------------------------------------------
 # B3LYP/6-311++G(d,p) empiricaldispersion=gd3bj scf=xqc pop=npa geom=c
 heck
 ----------------------------------------------------------------------

 -------------------------------------
 CID_150723015_JID_4488_Energie_kation
 -------------------------------------
 Structure from the checkpoint file:  "JID_4488.chk"
 Charge =  1 Multiplicity = 2

 SCF Done:  E(UB3LYP) =  -702.431312416     A.U. after   33 cycles
 SCF Done:  E(UB3LYP) =  -702.431312416     a.u. after    1 cycles
 Normal termination of Gaussian 16 at Thu Dec 10 10:18:28 2020.
 Gaussian 16:  ES64L-G16RevA.03 25-Dec-2016

 ----------------------------------------------------------------------
 # B3LYP/6-311++G(d,p) empiricaldispersion=gd3bj scf=xqc pop=npa geom=c
 heck
 ----------------------------------------------------------------------

 ------------------------------------
 CID_150723015_JID_4488_Energie_anion
 ------------------------------------
 Structure from the checkpoint file:  "JID_4488.chk"
 Charge = -1 Multiplicity = 2

                         Standard orientation:
 ---------------------------------------------------------------------
 Center     Atomic      Atomic             Coordinates (Angstroms)
 Number     Number       Type             X           Y           Z
 ---------------------------------------------------------------------
      1          6           0       -2.061540    3.288746    0.501299
      2          6           0       -1.771046    1.852754    0.198611
      3          6           0       -2.704185    0.896654    0.095552
      4          6           0       -2.413582   -0.516934   -0.214326
      5          8           0       -3.259008   -1.376963   -0.365219
      6          8           0       -1.081933   -0.760079   -0.314031
      7          6           0       -0.695737   -2.108825   -0.627565
      8          6           0        0.821612   -2.161918   -0.672725
      9          8           0        1.447150   -2.229533    0.604430
     10          6           0        1.399515   -1.073677    1.426546
     11          6           0        2.398462    0.010887    1.038578
     12          7           0        1.888327    0.798211   -0.112401
     13          7           0        2.723431    1.508302   -0.680767
     14          7           0        3.401268    2.197953   -1.289181
     15          1           0       -3.132004    3.471288    0.636369
     16          1           0       -1.697828    3.936019   -0.307733
     17          1           0       -1.537018    3.607088    1.412079
     18          1           0       -0.726580    1.583069    0.048790
     19          1           0       -3.761450    1.112442    0.223504
     20          1           0       -1.093243   -2.794803    0.126792
     21          1           0       -1.120277   -2.386089   -1.599108
     22          1           0        1.116473   -3.090825   -1.171701
     23          1           0        1.197645   -1.317222   -1.262034
     24          1           0        0.392285   -0.647644    1.475966
     25          1           0        1.673067   -1.429597    2.425456
     26          1           0        2.544184    0.683453    1.895839
     27          1           0        3.362897   -0.451959    0.794961
 ---------------------------------------------------------------------

 SCF Done:  E(UB3LYP) =  -702.759431624     A.U. after   33 cycles
 SCF Done:  E(UB3LYP) =  -702.759431624     a.u. after    1 cycles

 The electronic state is 2-A.
 Alpha  occ. eigenvalues --  -19.03295 -19.02035 -18.96653 -14.33811 -14.24034
 Alpha  occ. eigenvalues --  -14.22899 -10.15333 -10.11537 -10.11391 -10.10734
 Alpha  occ. eigenvalues --  -10.09887 -10.05810 -10.04359 -10.03771  -1.00633
 Alpha  occ. eigenvalues --   -0.97355  -0.93016  -0.88266  -0.84873  -0.68519
 Alpha  occ. eigenvalues --   -0.67217  -0.64256  -0.59245  -0.55416  -0.49563
 Alpha  occ. eigenvalues --   -0.46845  -0.44514  -0.42934  -0.40833  -0.38730
 Alpha  occ. eigenvalues --   -0.38352  -0.37909  -0.35590  -0.35031  -0.34086
 Alpha  occ. eigenvalues --   -0.32900  -0.32102  -0.30795  -0.30396  -0.30144
 Alpha  occ. eigenvalues --   -0.28459  -0.28192  -0.27259  -0.26789  -0.23900
 Alpha  occ. eigenvalues --   -0.23456  -0.20892  -0.18528  -0.18137  -0.15780
 Alpha  occ. eigenvalues --   -0.14581  -0.14264  -0.12762   0.04827
 Alpha virt. eigenvalues --    0.06775   0.07838   0.08133   0.08337   0.10016
 Alpha virt. eigenvalues --    0.10388   0.10874   0.11405   0.12024   0.12321
 Alpha virt. eigenvalues --    0.12682   0.12918   0.13932   0.15040   0.15522

  Beta  occ. eigenvalues --  -19.03266 -19.02032 -18.96450 -14.33576 -14.23697
  Beta  occ. eigenvalues --  -14.22952 -10.15177 -10.11539 -10.11387 -10.10714
  Beta  occ. eigenvalues --  -10.09787 -10.05828 -10.04040 -10.03746  -1.00165
  Beta  occ. eigenvalues --   -0.97196  -0.92995  -0.87982  -0.84635  -0.68295
  Beta  occ. eigenvalues --   -0.66967  -0.64116  -0.59065  -0.55298  -0.49401
  Beta  occ. eigenvalues --   -0.46527  -0.44263  -0.42814  -0.40766  -0.38288
  Beta  occ. eigenvalues --   -0.38119  -0.37366  -0.35445  -0.34733  -0.33844
  Beta  occ. eigenvalues --   -0.32615  -0.31492  -0.30531  -0.30164  -0.30036
  Beta  occ. eigenvalues --   -0.28227  -0.28007  -0.27112  -0.26388  -0.23760
  Beta  occ. eigenvalues --   -0.23319  -0.20821  -0.18037  -0.17591  -0.15685
  Beta  occ. eigenvalues --   -0.14371  -0.13124  -0.12676
  Beta virt. eigenvalues --    0.07559   0.08127   0.08657   0.09528   0.09661
  Beta virt. eigenvalues --    0.10366   0.10609   0.10966   0.11460   0.12064
  Beta virt. eigenvalues --    0.12399   0.12735   0.12967   0.13901   0.14963

 Mulliken charges and spin densities:
               1          2
     1  C   -0.347902  -0.328670
     2  C   -0.117485   0.281711
     3  C   -0.082321   0.066536
     4  C   -0.134565   0.117776
     5  O   -0.334814   0.059706
     6  O   -0.076951  -0.003524
     7  C    0.039648  -0.034720
     8  C   -0.424590  -0.158243
     9  O   -0.083618   0.002570
    10  C   -0.344184   0.059698
    11  C    0.548702  -0.995144
    12  N   -1.166954   0.630188
    13  N    1.016677  -0.098284
    14  N   -0.075832  -0.172892
    15  H    0.110932   0.017782
    16  H    0.001407   0.141101
    17  H    0.097420   0.042767
    18  H    0.163059   0.057350
    19  H    0.136401   0.010453
    20  H    0.185190   0.012207
    21  H    0.124726   0.024037
    22  H    0.075497   0.075162
    23  H    0.106984   0.074463
    24  H    0.309946  -0.143133
    25  H   -0.333934   0.505510
    26  H   -0.394166   0.571046
    27  H    0.000728   0.184546
 Sum of Mulliken charges =  -1.00000   1.00000

 Dipole moment (field-independent basis, Debye):
    X=             -0.7629    Y=             -1.6788    Z=             -0.6828  Tot=              1.9664
 Quadrupole moment (field-independent basis, Debye-Ang):
   XX=           -140.5292   YY=           -114.1831   ZZ=           -104.1937
   XY=            -12.0777   XZ=             -4.5402   YZ=              6.6849

 Summary of Natural Population Analysis:

                                       Natural Population
                Natural  -----------------------------------------------
    Atom  No    Charge         Core      Valence    Rydberg      Total
 -----------------------------------------------------------------------
      C    1   -0.30454      0.99966     2.30001    0.00487     3.30454
      C    2    0.00360      0.99955     1.98823    0.00862     2.99640
      C    3   -0.17010      0.99947     2.16039    0.01024     3.17010
      C    4    0.40681      0.99966     1.56942    0.02411     2.59319
      O    5   -0.30562      0.99987     3.30037    0.00538     4.30562
      O    6   -0.28917      0.99986     3.28101    0.00830     4.28917
      C    7   -0.02841      0.99957     2.01829    0.01055     3.02841
      C    8   -0.02146      0.99956     2.00927    0.01264     3.02146
      O    9   -0.30494      0.99989     3.29530    0.00976     4.30494
      C   10   -0.01822      0.99955     2.00376    0.01491     3.01822
      C   11   -0.10006      0.99959     2.08919    0.01128     3.10006
      N   12   -0.21058      0.99970     2.69611    0.01477     3.71058
      N   13    0.13529      0.99971     2.34952    0.01548     3.36471
      N   14   -0.02479      0.99982     2.51080    0.01417     3.52479
      H   15    0.09353      0.00000     0.40538    0.00109     0.40647
      H   16    0.10347      0.00000     0.39483    0.00170     0.39653
      H   17    0.10253      0.00000     0.39618    0.00129     0.39747
      H   18    0.10440      0.00000     0.39385    0.00175     0.39560
      H   19    0.09329      0.00000     0.40534    0.00138     0.40671
      H   20    0.09197      0.00000     0.40633    0.00170     0.40803
      H   21    0.09016      0.00000     0.40817    0.00167     0.40984
      H   22    0.08661      0.00000     0.41223    0.00117     0.41339
      H   23    0.09380      0.00000     0.40450    0.00170     0.40620
      H   24    0.09723      0.00000     0.40100    0.00177     0.40277
      H   25    0.08889      0.00000     0.40985    0.00126     0.41111
      H   26    0.09521      0.00000     0.40228    0.00252     0.40479
      H   27    0.09111      0.00000     0.40726    0.00162     0.40889
 =======================================================================
   * Total *    0.00000     13.99546    38.81887    0.18567    53.00000

 Normal termination of Gaussian 16 at Thu Dec 10 10:27:18 2020.
