 Gaussian 16, Revision A.03,

 -----------------------------------------------------------
 # opt freq B3LYP/6-31G(d) empiricaldispersion=gd3bj scf=xqc
 -----------------------------------------------------------

 -------------------------------
 CID_104630006_JID_5459_neutraal
 -------------------------------
 Symbolic Z-matrix:
 Charge =  0 Multiplicity = 1

 SCF Done:  E(RB3LYP) =  -1100.77310776     A.U. after   17 cycles
 SCF Done:  E(RB3LYP) =  -1100.77679744     A.U. after   13 cycles
 SCF Done:  E(RB3LYP) =  -1100.77929598     A.U. after   14 cycles
 SCF Done:  E(RB3LYP) =  -1100.77503408     A.U. after   14 cycles
 SCF Done:  E(RB3LYP) =  -1100.77992465     A.U. after   13 cycles
 SCF Done:  E(RB3LYP) =  -1100.78227844     A.U. after   11 cycles
 SCF Done:  E(RB3LYP) =  -1100.78325018     A.U. after   12 cycles
 SCF Done:  E(RB3LYP) =  -1100.78337704     A.U. after   13 cycles
 SCF Done:  E(RB3LYP) =  -1100.78366559     A.U. after   12 cycles
 SCF Done:  E(RB3LYP) =  -1100.78376199     A.U. after   12 cycles
 SCF Done:  E(RB3LYP) =  -1100.78475193     A.U. after   10 cycles
 SCF Done:  E(RB3LYP) =  -1100.78475272     A.U. after    9 cycles
 SCF Done:  E(RB3LYP) =  -1100.78475335     A.U. after    8 cycles
 SCF Done:  E(RB3LYP) =  -1100.78475384     A.U. after    8 cycles
 SCF Done:  E(RB3LYP) =  -1100.78475406     A.U. after    8 cycles
 SCF Done:  E(RB3LYP) =  -1100.78475410     A.U. after    8 cycles
 Optimization completed.
    -- Stationary point found.
 Normal termination of Gaussian 16 at Thu Dec 10 16:28:32 2020.

 --------------------------------------------------------------------
 #N Geom=AllCheck Guess=TCheck SCRF=Check GenChk RB3LYP/6-31G(d) Freq
 --------------------------------------------------------------------

 Structure from the checkpoint file:  "JID_5459.chk"
 -------------------------------
 CID_104630006_JID_5459_neutraal
 -------------------------------
 Charge =  0 Multiplicity = 1

 SCF Done:  E(RB3LYP) =  -1100.78475410     A.U. after    1 cycles

  Exact polarizability: 166.770   2.815 117.388  -9.412   6.446  96.091
 Approx polarizability: 247.475  -0.069 207.962 -25.672  26.599 153.098

                      1                      2                      3
                      A                      A                      A
 Frequencies --     33.0330                53.3664                70.5850
 Red. masses --      7.4105                 6.5532                 3.6233
 Frc consts  --      0.0048                 0.0110                 0.0106
 IR Inten    --      3.3460                 0.9066                 1.9446

                      4                      5                      6
                      A                      A                      A
 Frequencies --     84.3732               107.3598               145.5402
 Red. masses --      3.1587                 6.2467                 3.0568
 Frc consts  --      0.0132                 0.0424                 0.0381
 IR Inten    --      0.0852                 3.3106                 4.0454

                      7                      8                      9
                      A                      A                      A
 Frequencies --    158.6622               172.6240               188.6296
 Red. masses --      3.5959                 2.6793                 6.0665
 Frc consts  --      0.0533                 0.0470                 0.1272
 IR Inten    --      8.1544                 4.7336                 2.4149

                     10                     11                     12
                      A                      A                      A
 Frequencies --    202.3252               248.9845               266.1033
 Red. masses --      1.9139                 4.5424                 2.1740
 Frc consts  --      0.0462                 0.1659                 0.0907
 IR Inten    --      0.3961                 4.2597                44.6601

                     13                     14                     15
                      A                      A                      A
 Frequencies --    281.3448               315.1283               359.9871
 Red. masses --      3.3086                 1.6161                 2.6824
 Frc consts  --      0.1543                 0.0946                 0.2048
 IR Inten    --     17.7019                89.5340                 7.6118

                     16                     17                     18
                      A                      A                      A
 Frequencies --    367.8983               373.9103               407.8485
 Red. masses --      3.4569                 3.0203                 3.6477
 Frc consts  --      0.2757                 0.2488                 0.3575
 IR Inten    --      7.8937                 0.9666                 0.3955

                     19                     20                     21
                      A                      A                      A
 Frequencies --    465.1733               495.8756               527.6357
 Red. masses --      5.4292                 7.6837                 5.5572
 Frc consts  --      0.6922                 1.1132                 0.9115
 IR Inten    --      8.0304                50.9498                13.5268

                     22                     23                     24
                      A                      A                      A
 Frequencies --    579.4356               585.9056               614.2579
 Red. masses --      2.0225                 1.7295                 2.0565
 Frc consts  --      0.4001                 0.3498                 0.4572
 IR Inten    --     19.5684                81.2527               135.2951

                     25                     26                     27
                      A                      A                      A
 Frequencies --    619.5200               654.4491               680.9790
 Red. masses --      3.2811                 3.2160                 3.7736
 Frc consts  --      0.7420                 0.8116                 1.0310
 IR Inten    --     39.5874                14.0270                23.4768

                     28                     29                     30
                      A                      A                      A
 Frequencies --    762.5441               768.9976               782.6517
 Red. masses --      3.8986                 2.2700                 3.0527
 Frc consts  --      1.3357                 0.7909                 1.1017
 IR Inten    --     47.9683                 7.4555                 3.9355

                     31                     32                     33
                      A                      A                      A
 Frequencies --    829.0474               842.8634               906.9810
 Red. masses --      1.9544                 1.5013                 3.5051
 Frc consts  --      0.7914                 0.6284                 1.6988
 IR Inten    --     52.0901                14.4313                28.4717

                     34                     35                     36
                      A                      A                      A
 Frequencies --    907.8086               967.9083               988.2820
 Red. masses --      1.9697                 2.9405                 2.0896
 Frc consts  --      0.9564                 1.6231                 1.2024
 IR Inten    --      4.6809                80.8422                12.0889

                     37                     38                     39
                      A                      A                      A
 Frequencies --   1008.4292              1018.7414              1070.4367
 Red. masses --      1.9658                 2.6400                 2.2619
 Frc consts  --      1.1778                 1.6143                 1.5270
 IR Inten    --      7.2498                 4.7979                26.6060

                     40                     41                     42
                      A                      A                      A
 Frequencies --   1099.9891              1113.4552              1125.0310
 Red. masses --      3.4759                 1.9288                 3.1069
 Frc consts  --      2.4780                 1.4089                 2.3169
 IR Inten    --     64.3071                21.7064                47.9105

                     43                     44                     45
                      A                      A                      A
 Frequencies --   1136.2707              1182.7528              1209.3785
 Red. masses --      2.2892                 2.1502                 1.7107
 Frc consts  --      1.7414                 1.7722                 1.4741
 IR Inten    --     25.5020                 4.4620                23.5166

                     46                     47                     48
                      A                      A                      A
 Frequencies --   1248.2204              1310.1942              1316.4503
 Red. masses --      1.3841                 4.2893                 1.8187
 Frc consts  --      1.2705                 4.3382                 1.8570
 IR Inten    --     22.5470                 6.6090                36.7578

                     49                     50                     51
                      A                      A                      A
 Frequencies --   1328.2808              1356.9308              1393.4916
 Red. masses --      1.3040                 5.7146                 1.4074
 Frc consts  --      1.3555                 6.1995                 1.6101
 IR Inten    --     21.5531                38.1600                 2.7356

                     52                     53                     54
                      A                      A                      A
 Frequencies --   1405.4628              1408.7778              1421.1929
 Red. masses --      1.2924                 1.3176                 6.4622
 Frc consts  --      1.5042                 1.5407                 7.6902
 IR Inten    --     18.9824                17.2227               256.1293

                     55                     56                     57
                      A                      A                      A
 Frequencies --   1433.6376              1448.0036              1466.7174
 Red. masses --      1.2606                 1.2378                 1.2188
 Frc consts  --      1.5266                 1.5291                 1.5448
 IR Inten    --      9.0654                 1.0855                45.0369

                     58                     59                     60
                      A                      A                      A
 Frequencies --   1509.2128              1524.1185              1525.2262
 Red. masses --      1.6073                 2.6272                 1.1111
 Frc consts  --      2.1570                 3.5957                 1.5229
 IR Inten    --     25.9444                33.5517                 5.9513

                     61                     62                     63
                      A                      A                      A
 Frequencies --   1528.3203              1532.6984              1542.5548
 Red. masses --      1.2081                 1.0942                 1.0746
 Frc consts  --      1.6626                 1.5144                 1.5065
 IR Inten    --      8.6714                13.6372                 9.6461

                     64                     65                     66
                      A                      A                      A
 Frequencies --   1546.0227              1743.5661              3024.4434
 Red. masses --      1.1087                 6.6689                 1.0662
 Frc consts  --      1.5613                11.9448                 5.7461
 IR Inten    --     18.5203               350.8561                49.7927

                     67                     68                     69
                      A                      A                      A
 Frequencies --   3030.3501              3053.9267              3060.3544
 Red. masses --      1.0606                 1.0731                 1.0382
 Frc consts  --      5.7381                 5.8965                 5.7291
 IR Inten    --     33.0100                47.1861                24.0776

                     70                     71                     72
                      A                      A                      A
 Frequencies --   3082.8468              3094.5727              3116.2771
 Red. masses --      1.1039                 1.0988                 1.0997
 Frc consts  --      6.1816                 6.1999                 6.2921
 IR Inten    --     15.7803                61.2612                16.6248

                     73                     74                     75
                      A                      A                      A
 Frequencies --   3135.3488              3145.4174              3302.0530
 Red. masses --      1.0983                 1.0914                 1.0947
 Frc consts  --      6.3612                 6.3619                 7.0328
 IR Inten    --     26.8979                22.4031                13.3621

                     76                     77                     78
                      A                      A                      A
 Frequencies --   3550.8883              3654.8908              3763.5234
 Red. masses --      1.0741                 1.0664                 1.0663
 Frc consts  --      7.9795                 8.3929                 8.8989
 IR Inten    --     24.3612               226.3724                18.5546

 - Thermochemistry -
 -------------------
 Temperature   298.150 Kelvin.  Pressure   1.00000 Atm.
 Atom     1 has atomic number  6 and mass  12.00000

 Molecular mass:   231.06776 amu.
 Principal axes and moments of inertia in atomic units:
                           1         2         3
     Eigenvalues --  1847.609995424.485975592.41964
           X            0.99995  -0.00920   0.00399
           Y            0.00959   0.99374  -0.11132
           Z           -0.00294   0.11135   0.99378
 This molecule is an asymmetric top.
 Rotational symmetry number  1.
 Warning -- assumption of classical behavior for rotation
           may cause significant error
 Rotational temperatures (Kelvin)      0.04688     0.01597     0.01549
 Rotational constants (GHZ):           0.97680     0.33270     0.32271
 Zero-point vibrational energy     584893.0 (Joules/Mol)
                                  139.79279 (Kcal/Mol)
 Warning -- explicit consideration of  25 degrees of freedom as
           vibrations may cause significant error
 Vibrational temperatures:     47.53    76.78   101.56   121.39   154.47
          (Kelvin)            209.40   228.28   248.37   271.40   291.10
                              358.23   382.86   404.79   453.40   517.94
                              529.32   537.97   586.80   669.28   713.45
                              759.15   833.68   842.99   883.78   891.35
                              941.61   979.78  1097.13  1106.42  1126.06
                             1192.81  1212.69  1304.94  1306.13  1392.60
                             1421.92  1450.90  1465.74  1540.12  1582.64
                             1602.01  1618.67  1634.84  1701.72  1740.03
                             1795.91  1885.08  1894.08  1911.10  1952.32
                             2004.92  2022.15  2026.92  2044.78  2062.68
                             2083.35  2110.28  2171.42  2192.87  2194.46
                             2198.91  2205.21  2219.39  2224.38  2508.60
                             4351.50  4360.00  4393.92  4403.17  4435.53
                             4452.40  4483.63  4511.07  4525.55  4750.92
                             5108.94  5258.57  5414.87

 Zero-point correction=                           0.222774 (Hartree/Particle)
 Thermal correction to Energy=                    0.238250
 Thermal correction to Enthalpy=                  0.239194
 Thermal correction to Gibbs Free Energy=         0.179524
 Sum of electronic and zero-point Energies=          -1100.561980
 Sum of electronic and thermal Energies=             -1100.546504
 Sum of electronic and thermal Enthalpies=           -1100.545560
 Sum of electronic and thermal Free Energies=        -1100.605230

                     E (Thermal)             CV                S
                      KCal/Mol        Cal/Mol-Kelvin    Cal/Mol-Kelvin
 Total                  149.504             57.251            125.586
 Electronic               0.000              0.000              0.000
 Translational            0.889              2.981             42.215
 Rotational               0.889              2.981             32.394
 Vibrational            147.727             51.290             50.977
 Vibration     1          0.594              1.983              5.638
 Vibration     2          0.596              1.976              4.689
 Vibration     3          0.598              1.968              4.137
 Vibration     4          0.601              1.960              3.786
 Vibration     5          0.606              1.943              3.316
 Vibration     6          0.617              1.907              2.730
 Vibration     7          0.621              1.893              2.566
 Vibration     8          0.626              1.876              2.407
 Vibration     9          0.633              1.855              2.241
 Vibration    10          0.639              1.837              2.112
 Vibration    11          0.662              1.764              1.738
 Vibration    12          0.672              1.735              1.621
 Vibration    13          0.681              1.708              1.525
 Vibration    14          0.702              1.645              1.335
 Vibration    15          0.734              1.555              1.122
 Vibration    16          0.740              1.538              1.089
 Vibration    17          0.745              1.526              1.064
 Vibration    18          0.772              1.453              0.934
 Vibration    19          0.823              1.327              0.751
 Vibration    20          0.851              1.259              0.669
 Vibration    21          0.883              1.189              0.593
 Vibration    22          0.936              1.076              0.486
 Vibration    23          0.943              1.062              0.475
 Vibration    24          0.974              1.002              0.426
 Vibration    25          0.979              0.991              0.417

                           ! Non-Optimized Parameters !
 Normal termination of Gaussian 16 at Thu Dec 10 16:38:42 2020.

 ----------------------------------------------------------------------
 # B3LYP/6-311++G(d,p) empiricaldispersion=gd3bj scf=xqc pop=npa geom=c
 heck
 ----------------------------------------------------------------------

 ---------------------------------------
 CID_104630006_JID_5459_Energie_neutraal
 ---------------------------------------
 Structure from the checkpoint file:  "JID_5459.chk"
 Charge =  0 Multiplicity = 1

 SCF Done:  E(RB3LYP) =  -1101.03136771     A.U. after   18 cycles
 Normal termination of Gaussian 16 at Thu Dec 10 16:44:54 2020.

 ----------------------------------------------------------------------
 # B3LYP/6-311++G(d,p) empiricaldispersion=gd3bj scf=xqc pop=npa geom=c
 heck
 ----------------------------------------------------------------------

 -------------------------------------
 CID_104630006_JID_5459_Energie_kation
 -------------------------------------
 Structure from the checkpoint file:  "JID_5459.chk"
 Charge =  1 Multiplicity = 2

 SCF Done:  E(UB3LYP) =  -1100.70482062     A.U. after   31 cycles
 Normal termination of Gaussian 16 at Thu Dec 10 16:58:19 2020.
 Gaussian 16:  ES64L-G16RevA.03 25-Dec-2016

 ----------------------------------------------------------------------
 # B3LYP/6-311++G(d,p) empiricaldispersion=gd3bj scf=xqc pop=npa geom=c
 heck
 ----------------------------------------------------------------------

 ------------------------------------
 CID_104630006_JID_5459_Energie_anion
 ------------------------------------
 Structure from the checkpoint file:  "JID_5459.chk"
 Charge = -1 Multiplicity = 2

                         Standard orientation:
 ---------------------------------------------------------------------
 Center     Atomic      Atomic             Coordinates (Angstroms)
 Number     Number       Type             X           Y           Z
 ---------------------------------------------------------------------
      1          6           0        0.856996   -1.171324    2.059187
      2          6           0        1.275705   -1.285726    0.591703
      3          6           0        1.788411    0.013933   -0.068110
      4          6           0        3.176528    0.374056    0.526218
      5          8           0        4.176825   -0.580820    0.224299
      6          6           0        1.953502   -0.160463   -1.605103
      7          8           0        0.763758    0.013094   -2.338278
      8          7           0        0.962610    1.192751    0.226918
      9          6           0       -0.364587    1.507341    0.175229
     10          8           0       -0.729731    2.666441    0.366924
     11          6           0       -1.450527    0.479725    0.016889
     12          6           0       -2.686207    0.693215    0.586856
     13         16           0       -3.725684   -0.586107    0.187857
     14          7           0       -2.482289   -1.365579   -0.757642
     15          7           0       -1.408476   -0.677540   -0.722897
     16          1           0        1.660954   -0.782910    2.694084
     17          1           0        0.575406   -2.155629    2.447737
     18          1           0       -0.003090   -0.506945    2.181496
     19          1           0        2.086978   -2.018108    0.490818
     20          1           0        0.448564   -1.697532    0.011893
     21          1           0        3.518771    1.312175    0.073274
     22          1           0        3.085009    0.543436    1.608114
     23          1           0        4.069684   -1.330954    0.827367
     24          1           0        2.641770    0.608162   -1.972670
     25          1           0        2.425438   -1.135514   -1.794241
     26          1           0        0.092379   -0.611137   -2.008142
     27          1           0        1.484660    2.059975    0.307626
     28          1           0       -2.964237    1.551013    1.181509
 ---------------------------------------------------------------------

 SCF Done:  E(UB3LYP) =  -1101.05416996     A.U. after   29 cycles

 The electronic state is 2-A.
 Alpha  occ. eigenvalues --  -88.72807 -19.04343 -18.99277 -18.96035 -14.22066
 Alpha  occ. eigenvalues --  -14.19937 -14.19365 -10.15448 -10.13291 -10.11974
 Alpha  occ. eigenvalues --  -10.10584 -10.06452 -10.06384 -10.05965 -10.03842
 Alpha  occ. eigenvalues --   -7.81432  -5.77765  -5.77342  -5.77062  -0.94681
 Alpha  occ. eigenvalues --   -0.91747  -0.90077  -0.88670  -0.81085  -0.69004
 Alpha  occ. eigenvalues --   -0.66313  -0.65032  -0.63239  -0.58003  -0.53732
 Alpha  occ. eigenvalues --   -0.51226  -0.47797  -0.46859  -0.43455  -0.41676
 Alpha  occ. eigenvalues --   -0.40622  -0.38463  -0.36693  -0.35263  -0.34238
 Alpha  occ. eigenvalues --   -0.32851  -0.32399  -0.31310  -0.30820  -0.29405
 Alpha  occ. eigenvalues --   -0.28410  -0.27233  -0.26812  -0.26090  -0.24603
 Alpha  occ. eigenvalues --   -0.24225  -0.22852  -0.21616  -0.20025  -0.19481
 Alpha  occ. eigenvalues --   -0.16160  -0.15933  -0.14291  -0.13769  -0.12134
 Alpha  occ. eigenvalues --   -0.10994   0.03814
 Alpha virt. eigenvalues --    0.05746   0.08444   0.08991   0.09654   0.10530
 Alpha virt. eigenvalues --    0.11111   0.11638   0.11839   0.12619   0.13096
 Alpha virt. eigenvalues --    0.13654   0.14232   0.14507   0.15103   0.15143

  Beta  occ. eigenvalues --  -88.72701 -19.04317 -18.99273 -18.96047 -14.22061
  Beta  occ. eigenvalues --  -14.19793 -14.18673 -10.15408 -10.13287 -10.11975
  Beta  occ. eigenvalues --  -10.10580 -10.06496 -10.06441 -10.05962 -10.03256
  Beta  occ. eigenvalues --   -7.81337  -5.77721  -5.77301  -5.76701  -0.94623
  Beta  occ. eigenvalues --   -0.91725  -0.90064  -0.87993  -0.81075  -0.68985
  Beta  occ. eigenvalues --   -0.65565  -0.64647  -0.63041  -0.57980  -0.53717
  Beta  occ. eigenvalues --   -0.51048  -0.47589  -0.46013  -0.43368  -0.41520
  Beta  occ. eigenvalues --   -0.40529  -0.38347  -0.36606  -0.35154  -0.34183
  Beta  occ. eigenvalues --   -0.32792  -0.32314  -0.31039  -0.30720  -0.28745
  Beta  occ. eigenvalues --   -0.28144  -0.26912  -0.26299  -0.25944  -0.24490
  Beta  occ. eigenvalues --   -0.24186  -0.22438  -0.21453  -0.19969  -0.18999
  Beta  occ. eigenvalues --   -0.16046  -0.14274  -0.13838  -0.13389  -0.10688
  Beta  occ. eigenvalues --   -0.10128
  Beta virt. eigenvalues --    0.06134   0.08435   0.08878   0.09618   0.10676
  Beta virt. eigenvalues --    0.11148   0.11510   0.11723   0.12338   0.12584
  Beta virt. eigenvalues --    0.13265   0.13654   0.14249   0.14551   0.15020

 Mulliken charges and spin densities:
               1          2
     1  C   -0.456908  -0.148213
     2  C   -0.172432   0.146820
     3  C   -0.173395  -0.203776
     4  C   -0.085294  -0.061664
     5  O   -0.193026  -0.004046
     6  C   -0.367962  -0.036088
     7  O   -0.248640   0.001633
     8  N   -0.143289   0.004768
     9  C   -0.427004   0.051673
    10  O   -0.336335  -0.003903
    11  C   -0.309414  -0.143440
    12  C    0.240718   0.426944
    13  S   -0.180555   0.201049
    14  N    0.138310   0.288243
    15  N   -0.285105   0.050948
    16  H    0.070857   0.037507
    17  H    0.104259   0.024763
    18  H    0.193115  -0.000586
    19  H   -0.046103   0.159952
    20  H    0.149388   0.012099
    21  H    0.146073   0.026846
    22  H    0.136390   0.030162
    23  H    0.086750   0.162147
    24  H    0.138382   0.013719
    25  H    0.163691  -0.002824
    26  H    0.308657  -0.002312
    27  H    0.301766  -0.005097
    28  H    0.247104  -0.027327
 Sum of Mulliken charges =  -1.00000   1.00000

 Dipole moment (field-independent basis, Debye):
    X=              5.2352    Y=             -0.5417    Z=              2.9339  Tot=              6.0257
 Quadrupole moment (field-independent basis, Debye-Ang):
   XX=           -143.4327   YY=           -120.3815   ZZ=           -114.7295
   XY=              0.4915   XZ=             -0.8270   YZ=             -1.4419

 Summary of Natural Population Analysis:

                                       Natural Population
                Natural  -----------------------------------------------
    Atom  No    Charge         Core      Valence    Rydberg      Total
 -----------------------------------------------------------------------
      C    1   -0.28980      0.99966     2.28393    0.00621     3.28980
      C    2   -0.20748      0.99958     2.19665    0.01124     3.20748
      C    3    0.04268      0.99955     1.94366    0.01411     2.95732
      C    4   -0.01014      0.99954     1.99467    0.01593     3.01014
      O    5   -0.36818      0.99990     3.36160    0.00669     4.36818
      C    6   -0.00664      0.99954     1.99456    0.01255     3.00664
      O    7   -0.37882      0.99989     3.37159    0.00733     4.37882
      N    8   -0.32602      0.99964     2.81313    0.01325     3.82602
      C    9    0.34517      0.99962     1.63430    0.02091     2.65483
      O   10   -0.33643      0.99988     3.33088    0.00567     4.33643
      C   11   -0.04568      0.99941     2.02844    0.01782     3.04568
      C   12   -0.07308      0.99952     2.06416    0.00941     3.07308
      S   13    0.27069      4.99947     2.70424    0.02559     7.72931
      N   14   -0.08421      0.99981     2.56964    0.01476     3.58421
      N   15   -0.14219      0.99967     2.61950    0.02302     3.64219
      H   16    0.08876      0.00000     0.41030    0.00093     0.41124
      H   17    0.09843      0.00000     0.40080    0.00077     0.40157
      H   18    0.10915      0.00000     0.38973    0.00112     0.39085
      H   19    0.09098      0.00000     0.40763    0.00139     0.40902
      H   20    0.12174      0.00000     0.37617    0.00209     0.37826
      H   21    0.08375      0.00000     0.41496    0.00129     0.41625
      H   22    0.08294      0.00000     0.41584    0.00122     0.41706
      H   23    0.22986      0.00000     0.26669    0.00345     0.27014
      H   24    0.08105      0.00000     0.41778    0.00117     0.41895
      H   25    0.07877      0.00000     0.41956    0.00166     0.42123
      H   26    0.24688      0.00000     0.25036    0.00275     0.25312
      H   27    0.18850      0.00000     0.30973    0.00177     0.31150
      H   28    0.10930      0.00000     0.38978    0.00092     0.39070
 =======================================================================
   * Total *   -0.00000     18.99469    41.78029    0.22502    61.00000

 Normal termination of Gaussian 16 at Thu Dec 10 17:11:16 2020.
