 Gaussian 16, Revision A.03,

 -----------------------------------------------------------
 # opt freq B3LYP/6-31G(d) empiricaldispersion=gd3bj scf=xqc
 -----------------------------------------------------------

 -------------------------------
 CID_129792408_JID_4742_neutraal
 -------------------------------
 Symbolic Z-matrix:
 Charge =  0 Multiplicity = 1

 SCF Done:  E(RB3LYP) =  -592.692638553     A.U. after   16 cycles
 SCF Done:  E(RB3LYP) =  -592.697856646     A.U. after   14 cycles
 SCF Done:  E(RB3LYP) =  -592.698591410     A.U. after   13 cycles
 SCF Done:  E(RB3LYP) =  -592.698890820     A.U. after   13 cycles
 SCF Done:  E(RB3LYP) =  -592.698959607     A.U. after   12 cycles
 SCF Done:  E(RB3LYP) =  -592.699080367     A.U. after   10 cycles
 SCF Done:  E(RB3LYP) =  -592.699146399     A.U. after   11 cycles
 SCF Done:  E(RB3LYP) =  -592.699148807     A.U. after    9 cycles
 SCF Done:  E(RB3LYP) =  -592.699151157     A.U. after    9 cycles
 SCF Done:  E(RB3LYP) =  -592.699154482     A.U. after   10 cycles
 SCF Done:  E(RB3LYP) =  -592.699160791     A.U. after   10 cycles
 SCF Done:  E(RB3LYP) =  -592.699163377     A.U. after   10 cycles
 SCF Done:  E(RB3LYP) =  -592.699163919     A.U. after    9 cycles
 SCF Done:  E(RB3LYP) =  -592.699163968     A.U. after    8 cycles
 Optimization completed.
    -- Stationary point found.
 Normal termination of Gaussian 16 at Thu Dec 10 10:31:43 2020.

 --------------------------------------------------------------------
 #N Geom=AllCheck Guess=TCheck SCRF=Check GenChk RB3LYP/6-31G(d) Freq
 --------------------------------------------------------------------

 Structure from the checkpoint file:  "JID_4742.chk"
 -------------------------------
 CID_129792408_JID_4742_neutraal
 -------------------------------
 Charge =  0 Multiplicity = 1

 SCF Done:  E(RB3LYP) =  -592.699163968     A.U. after    1 cycles

  Exact polarizability: 210.656   3.266 154.337  -0.001   0.001  48.508
 Approx polarizability: 321.043  11.982 318.054  -0.003  -0.005  76.596

                      1                      2                      3
                      A                      A                      A
 Frequencies --     45.3862                92.4977               145.6499
 Red. masses --      2.1896                 4.5117                 4.5420
 Frc consts  --      0.0027                 0.0227                 0.0568
 IR Inten    --      0.5217                 2.1331                 0.4974

                      4                      5                      6
                      A                      A                      A
 Frequencies --    156.4439               197.9227               239.8170
 Red. masses --      7.2761                 4.5468                 5.0279
 Frc consts  --      0.1049                 0.1049                 0.1704
 IR Inten    --      0.1230                 0.7877                 4.7991

                      7                      8                      9
                      A                      A                      A
 Frequencies --    272.9613               388.1625               409.2098
 Red. masses --      9.2144                 1.5729                 6.4376
 Frc consts  --      0.4045                 0.1396                 0.6351
 IR Inten    --      3.8831                58.4253                 0.5544

                     10                     11                     12
                      A                      A                      A
 Frequencies --    424.1316               465.4253               503.1085
 Red. masses --      2.1705                 4.0748                 5.6910
 Frc consts  --      0.2300                 0.5201                 0.8487
 IR Inten    --     35.4082                 1.0838                 5.7800

                     13                     14                     15
                      A                      A                      A
 Frequencies --    515.9016               556.0857               626.5505
 Red. masses --      2.7391                 8.0219                 7.4814
 Frc consts  --      0.4295                 1.4615                 1.7304
 IR Inten    --     11.0758                 5.2096                 4.4804

                     16                     17                     18
                      A                      A                      A
 Frequencies --    643.4490               656.6732               692.0379
 Red. masses --      7.4500                 3.3444                 2.1576
 Frc consts  --      1.8173                 0.8497                 0.6088
 IR Inten    --      5.1516                 1.2277                51.2084

                     19                     20                     21
                      A                      A                      A
 Frequencies --    725.9555               744.4215               763.2401
 Red. masses --      6.4618                 1.6856                 2.8245
 Frc consts  --      2.0064                 0.5504                 0.9694
 IR Inten    --      0.3589                 2.0050                24.2943

                     22                     23                     24
                      A                      A                      A
 Frequencies --    782.2877               792.0634               884.4100
 Red. masses --      6.0605                 2.5445                 4.1964
 Frc consts  --      2.1852                 0.9405                 1.9339
 IR Inten    --      1.7847                 7.7741                13.9715

                     25                     26                     27
                      A                      A                      A
 Frequencies --    884.7046               924.9301               941.6811
 Red. masses --      1.3359                 4.2558                 1.3684
 Frc consts  --      0.6161                 2.1451                 0.7149
 IR Inten    --      0.0098                14.6292                 1.3186

                     28                     29                     30
                      A                      A                      A
 Frequencies --    986.3954               987.4992              1020.7366
 Red. masses --      1.2822                 1.2749                 4.0071
 Frc consts  --      0.7350                 0.7325                 2.4599
 IR Inten    --      0.0976                 0.1621                12.1537

                     31                     32                     33
                      A                      A                      A
 Frequencies --   1039.1432              1049.4106              1055.4053
 Red. masses --      2.9587                 1.5650                 2.3567
 Frc consts  --      1.8824                 1.0154                 1.5466
 IR Inten    --     10.8227                 8.9834                 1.2702

                     34                     35                     36
                      A                      A                      A
 Frequencies --   1106.6044              1174.8977              1190.8433
 Red. masses --      2.2985                 2.3550                 1.1636
 Frc consts  --      1.6584                 1.9153                 0.9722
 IR Inten    --     14.5405                11.9196                 7.0500

                     37                     38                     39
                      A                      A                      A
 Frequencies --   1194.2685              1224.5898              1257.9429
 Red. masses --      1.1479                 3.3800                 1.0578
 Frc consts  --      0.9646                 2.9864                 0.9862
 IR Inten    --      0.5856                11.6147                 0.3944

                     40                     41                     42
                      A                      A                      A
 Frequencies --   1276.5848              1326.5582              1345.1483
 Red. masses --      2.6311                 1.6827                 1.6128
 Frc consts  --      2.5263                 1.7446                 1.7193
 IR Inten    --     33.6202                26.1184                12.6765

                     43                     44                     45
                      A                      A                      A
 Frequencies --   1368.3264              1427.3413              1469.9225
 Red. masses --      2.0250                 3.7428                 2.2244
 Frc consts  --      2.2339                 4.4927                 2.8317
 IR Inten    --     41.2763                31.8690                37.9846

                     46                     47                     48
                      A                      A                      A
 Frequencies --   1501.0633              1504.2252              1548.9516
 Red. masses --      2.6246                 2.3996                 1.1339
 Frc consts  --      3.4842                 3.1990                 1.6029
 IR Inten    --      9.5794                13.4642                49.0561

                     49                     50                     51
                      A                      A                      A
 Frequencies --   1591.5181              1637.5906              1661.3462
 Red. masses --      3.0758                 4.4442                 6.2950
 Frc consts  --      4.5902                 7.0219                10.2369
 IR Inten    --    105.1340               263.6425                 3.2810

                     52                     53                     54
                      A                      A                      A
 Frequencies --   1664.5210              1708.7774              1781.8153
 Red. masses --      6.5522                 6.1641                12.7010
 Frc consts  --     10.6959                10.6046                23.7582
 IR Inten    --      1.0372               128.5414               277.5032

                     55                     56                     57
                      A                      A                      A
 Frequencies --   2974.7310              2980.0356              3176.4579
 Red. masses --      1.0561                 1.1078                 1.0881
 Frc consts  --      5.5062                 5.7965                 6.4685
 IR Inten    --    144.2823                53.0455                 9.0299

                     58                     59                     60
                      A                      A                      A
 Frequencies --   3193.0301              3194.2960              3207.3247
 Red. masses --      1.0879                 1.0858                 1.0926
 Frc consts  --      6.5350                 6.5276                 6.6218
 IR Inten    --      8.8417                 1.0285                19.1301

                     61                     62                     63
                      A                      A                      A
 Frequencies --   3213.5308              3216.3049              3624.2439
 Red. masses --      1.0965                 1.0958                 1.0766
 Frc consts  --      6.6714                 6.6790                 8.3321
 IR Inten    --     26.5465                16.9003                36.3363

 - Thermochemistry -
 -------------------
 Temperature   298.150 Kelvin.  Pressure   1.00000 Atm.
 Atom     1 has atomic number  6 and mass  12.00000

 Molecular mass:   183.06841 amu.
 Principal axes and moments of inertia in atomic units:
                           1         2         3
     Eigenvalues --  1298.399373141.371714428.61247
           X            0.99998   0.00608   0.00000
           Y           -0.00608   0.99998   0.00000
           Z           -0.00000  -0.00000   1.00000
 This molecule is an asymmetric top.
 Rotational symmetry number  1.
 Warning -- assumption of classical behavior for rotation
           may cause significant error
 Rotational temperatures (Kelvin)      0.06671     0.02757     0.01956
 Rotational constants (GHZ):           1.38997     0.57451     0.40752
 Zero-point vibrational energy     474657.2 (Joules/Mol)
                                  113.44580 (Kcal/Mol)
 Warning -- explicit consideration of  14 degrees of freedom as
           vibrations may cause significant error
 Vibrational temperatures:     65.30   133.08   209.56   225.09   284.77
          (Kelvin)            345.04   392.73   558.48   588.76   610.23
                              669.64   723.86   742.27   800.08   901.47
                              925.78   944.81   995.69  1044.49  1071.06
                             1098.13  1125.54  1139.60  1272.47  1272.89
                             1330.77  1354.87  1419.20  1420.79  1468.61
                             1495.10  1509.87  1518.49  1592.16  1690.42
                             1713.36  1718.29  1761.91  1809.90  1836.72
                             1908.62  1935.37  1968.72  2053.63  2114.89
                             2159.70  2164.24  2228.60  2289.84  2356.13
                             2390.31  2394.87  2458.55  2563.63  4279.97
                             4287.61  4570.21  4594.06  4595.88  4614.62
                             4623.55  4627.55  5214.48

 Zero-point correction=                           0.180787 (Hartree/Particle)
 Thermal correction to Energy=                    0.191379
 Thermal correction to Enthalpy=                  0.192323
 Thermal correction to Gibbs Free Energy=         0.143949
 Sum of electronic and zero-point Energies=           -592.518377
 Sum of electronic and thermal Energies=              -592.507785
 Sum of electronic and thermal Enthalpies=            -592.506841
 Sum of electronic and thermal Free Energies=         -592.555215

                     E (Thermal)             CV                S
                      KCal/Mol        Cal/Mol-Kelvin    Cal/Mol-Kelvin
 Total                  120.092             42.110            101.813
 Electronic               0.000              0.000              0.000
 Translational            0.889              2.981             41.520
 Rotational               0.889              2.981             31.269
 Vibrational            118.315             36.148             29.023
 Vibration     1          0.595              1.979              5.009
 Vibration     2          0.602              1.955              3.607
 Vibration     3          0.617              1.907              2.728
 Vibration     4          0.620              1.895              2.592
 Vibration     5          0.637              1.843              2.152
 Vibration     6          0.657              1.780              1.804
 Vibration     7          0.676              1.723              1.577
 Vibration     8          0.756              1.495              1.007
 Vibration     9          0.774              1.450              0.929
 Vibration    10          0.786              1.418              0.878
 Vibration    11          0.823              1.327              0.750
 Vibration    12          0.858              1.243              0.650
 Vibration    13          0.871              1.215              0.620
 Vibration    14          0.912              1.126              0.532

 Optimization completed.
    -- Stationary point found.
 Normal termination of Gaussian 16 at Thu Dec 10 10:38:15 2020.

 ----------------------------------------------------------------------
 # B3LYP/6-311++G(d,p) empiricaldispersion=gd3bj scf=xqc pop=npa geom=c
 heck
 ----------------------------------------------------------------------

 ---------------------------------------
 CID_129792408_JID_4742_Energie_neutraal
 ---------------------------------------
 Structure from the checkpoint file:  "JID_4742.chk"
 Charge =  0 Multiplicity = 1

 SCF Done:  E(RB3LYP) =  -592.855580456     A.U. after   18 cycles
 Normal termination of Gaussian 16 at Thu Dec 10 10:41:46 2020.

 ----------------------------------------------------------------------
 # B3LYP/6-311++G(d,p) empiricaldispersion=gd3bj scf=xqc pop=npa geom=c
 heck
 ----------------------------------------------------------------------

 -------------------------------------
 CID_129792408_JID_4742_Energie_kation
 -------------------------------------
 Structure from the checkpoint file:  "JID_4742.chk"
 Charge =  1 Multiplicity = 2

 SCF Done:  E(UB3LYP) =  -592.599054106     A.U. after   22 cycles
 Normal termination of Gaussian 16 at Thu Dec 10 10:47:44 2020.
 Gaussian 16:  ES64L-G16RevA.03 25-Dec-2016

 ----------------------------------------------------------------------
 # B3LYP/6-311++G(d,p) empiricaldispersion=gd3bj scf=xqc pop=npa geom=c
 heck
 ----------------------------------------------------------------------

 ------------------------------------
 CID_129792408_JID_4742_Energie_anion
 ------------------------------------
 Structure from the checkpoint file:  "JID_4742.chk"
 Charge = -1 Multiplicity = 2

                         Standard orientation:
 ---------------------------------------------------------------------
 Center     Atomic      Atomic             Coordinates (Angstroms)
 Number     Number       Type             X           Y           Z
 ---------------------------------------------------------------------
      1          6           0       -3.026740   -1.403160   -0.000325
      2          6           0       -3.414660    0.061325    0.000182
      3          6           0       -2.518996    1.064655    0.000134
      4          6           0       -1.107670    0.766166   -0.000135
      5          6           0       -0.701350   -0.552856    0.000008
      6          7           0       -1.562864   -1.582467    0.000150
      7          6           0        0.774269   -0.644766    0.000055
      8          6           0        1.644619   -1.722102    0.000052
      9          6           0        3.026725   -1.455142    0.000051
     10          6           0        3.502437   -0.146070   -0.000016
     11          6           0        2.609899    0.943596   -0.000058
     12          6           0        1.257424    0.678052    0.000001
     13          6           0        0.070172    1.627294   -0.000065
     14          8           0        0.138796    2.849791   -0.000032
     15          1           0       -3.449840   -1.915247    0.879724
     16          1           0       -3.449283   -1.914524   -0.881088
     17          1           0       -4.482517    0.259274    0.000498
     18          1           0       -2.837640    2.102780    0.000423
     19          1           0       -1.204679   -2.526574    0.000345
     20          1           0        1.289826   -2.750059    0.000076
     21          1           0        3.729256   -2.283399    0.000076
     22          1           0        4.573481    0.034723   -0.000038
     23          1           0        2.964301    1.970013   -0.000110
 ---------------------------------------------------------------------

 SCF Done:  E(UB3LYP) =  -592.879999502     A.U. after   24 cycles

 The electronic state is 2-A.
 Alpha  occ. eigenvalues --  -18.91342 -14.20106 -10.09616 -10.06341 -10.05416
 Alpha  occ. eigenvalues --  -10.03797 -10.03491 -10.03246 -10.03242 -10.02766
 Alpha  occ. eigenvalues --  -10.02530 -10.02169 -10.00900  -9.99381  -0.84935
 Alpha  occ. eigenvalues --   -0.81729  -0.71898  -0.66792  -0.65516  -0.60595
 Alpha  occ. eigenvalues --   -0.58905  -0.54032  -0.49717  -0.46850  -0.45293
 Alpha  occ. eigenvalues --   -0.42297  -0.37705  -0.36712  -0.35338  -0.33485
 Alpha  occ. eigenvalues --   -0.32826  -0.30847  -0.29772  -0.28992  -0.28049
 Alpha  occ. eigenvalues --   -0.26416  -0.25624  -0.24070  -0.21823  -0.20936
 Alpha  occ. eigenvalues --   -0.20762  -0.20256  -0.19339  -0.15683  -0.11744
 Alpha  occ. eigenvalues --   -0.11430  -0.07522  -0.03963   0.03478
 Alpha virt. eigenvalues --    0.07681   0.08880   0.09779   0.10494   0.10785
 Alpha virt. eigenvalues --    0.11159   0.11550   0.13107   0.13496   0.14849
 Alpha virt. eigenvalues --    0.15465   0.15900   0.16506   0.16927   0.17874

  Beta  occ. eigenvalues --  -18.90906 -14.19881 -10.09626 -10.06208 -10.04985
  Beta  occ. eigenvalues --  -10.03767 -10.03446 -10.03229 -10.03221 -10.02854
  Beta  occ. eigenvalues --  -10.02317 -10.02016 -10.00678  -9.99439  -0.84182
  Beta  occ. eigenvalues --   -0.81222  -0.71505  -0.66546  -0.65217  -0.60343
  Beta  occ. eigenvalues --   -0.58655  -0.53896  -0.49053  -0.46725  -0.44934
  Beta  occ. eigenvalues --   -0.42135  -0.37390  -0.36573  -0.35052  -0.33146
  Beta  occ. eigenvalues --   -0.32717  -0.30699  -0.29600  -0.28877  -0.27871
  Beta  occ. eigenvalues --   -0.25452  -0.25061  -0.23777  -0.21606  -0.20678
  Beta  occ. eigenvalues --   -0.20004  -0.19101  -0.18457  -0.15113  -0.10850
  Beta  occ. eigenvalues --   -0.09951  -0.07104  -0.03160
  Beta virt. eigenvalues --    0.07669   0.08859   0.09518   0.09760   0.10766
  Beta virt. eigenvalues --    0.10823   0.11444   0.11539   0.13087   0.13480
  Beta virt. eigenvalues --    0.15455   0.15515   0.15901   0.16555   0.17870

 Mulliken charges and spin densities:
               1          2
     1  C   -0.070942  -0.007024
     2  C   -0.307022   0.024072
     3  C    0.355852   0.033471
     4  C    1.451068  -0.043138
     5  C   -1.562009   0.255638
     6  N   -0.116756   0.091099
     7  C   -0.535975   0.038891
     8  C   -0.434453   0.077610
     9  C   -0.337544   0.019695
    10  C   -0.259647   0.165271
    11  C    0.047121  -0.044780
    12  C    0.647591   0.190479
    13  C   -0.576108   0.067797
    14  O   -0.417140   0.153007
    15  H    0.107384   0.000459
    16  H    0.107447   0.000461
    17  H    0.132956  -0.001190
    18  H    0.135188  -0.002863
    19  H    0.253637  -0.005372
    20  H    0.041407  -0.001540
    21  H    0.109511  -0.002906
    22  H    0.101516  -0.013430
    23  H    0.126917   0.004292
 Sum of Mulliken charges =  -1.00000   1.00000

 Dipole moment (field-independent basis, Debye):
    X=             -2.0314    Y=             -6.0762    Z=              0.0002  Tot=              6.4068
 Quadrupole moment (field-independent basis, Debye-Ang):
   XX=           -104.3490   YY=           -102.8834   ZZ=            -91.5516
   XY=              3.6015   XZ=             -0.0008   YZ=             -0.0000

 Summary of Natural Population Analysis:

                                       Natural Population
                Natural  -----------------------------------------------
    Atom  No    Charge         Core      Valence    Rydberg      Total
 -----------------------------------------------------------------------
      C    1   -0.08814      0.99963     2.08021    0.00830     3.08814
      C    2   -0.14151      0.99957     2.13255    0.00939     3.14151
      C    3   -0.07338      0.99952     2.06399    0.00987     3.07338
      C    4   -0.15377      0.99942     2.14403    0.01032     3.15377
      C    5    0.22927      0.99937     1.75989    0.01147     2.77073
      N    6   -0.25973      0.99965     2.75195    0.00813     3.75973
      C    7   -0.00831      0.99947     2.00086    0.00797     3.00831
      C    8   -0.09968      0.99953     2.09091    0.00925     3.09968
      C    9   -0.11332      0.99959     2.10383    0.00990     3.11332
      C   10   -0.07031      0.99958     2.06117    0.00956     3.07031
      C   11   -0.12008      0.99952     2.11089    0.00966     3.12008
      C   12    0.01429      0.99944     1.97655    0.00972     2.98571
      C   13    0.27187      0.99956     1.70741    0.02116     2.72813
      O   14   -0.27285      0.99988     3.26597    0.00701     4.27285
      H   15    0.07805      0.00000     0.42006    0.00189     0.42195
      H   16    0.07803      0.00000     0.42008    0.00189     0.42197
      H   17    0.08764      0.00000     0.41125    0.00111     0.41236
      H   18    0.09960      0.00000     0.39843    0.00197     0.40040
      H   19    0.18153      0.00000     0.31638    0.00209     0.31847
      H   20    0.08662      0.00000     0.41173    0.00166     0.41338
      H   21    0.08795      0.00000     0.41097    0.00108     0.41205
      H   22    0.08643      0.00000     0.41249    0.00107     0.41357
      H   23    0.09981      0.00000     0.39809    0.00211     0.40019
 =======================================================================
   * Total *    0.00000     13.99374    33.84968    0.15659    48.00000

 Normal termination of Gaussian 16 at Thu Dec 10 10:54:06 2020.
