 Gaussian 16, Revision A.03,

 -----------------------------------------------------------
 # opt freq B3LYP/6-31G(d) empiricaldispersion=gd3bj scf=xqc
 -----------------------------------------------------------

 -------------------------------
 CID_112459993_JID_8612_neutraal
 -------------------------------
 Symbolic Z-matrix:
 Charge =  0 Multiplicity = 1

 SCF Done:  E(RB3LYP) =  -807.898449753     A.U. after   14 cycles
 SCF Done:  E(RB3LYP) =  -807.906849072     A.U. after   12 cycles
 SCF Done:  E(RB3LYP) =  -807.908067080     A.U. after   11 cycles
 SCF Done:  E(RB3LYP) =  -807.908148136     A.U. after   11 cycles
 SCF Done:  E(RB3LYP) =  -807.908750688     A.U. after   11 cycles
 SCF Done:  E(RB3LYP) =  -807.908849976     A.U. after   11 cycles
 SCF Done:  E(RB3LYP) =  -807.908748059     A.U. after   12 cycles
 SCF Done:  E(RB3LYP) =  -807.909013839     A.U. after   11 cycles
 SCF Done:  E(RB3LYP) =  -807.909030081     A.U. after   11 cycles
 SCF Done:  E(RB3LYP) =  -807.909128933     A.U. after   10 cycles
 SCF Done:  E(RB3LYP) =  -807.909557113     A.U. after    9 cycles
 SCF Done:  E(RB3LYP) =  -807.909558136     A.U. after    8 cycles
 SCF Done:  E(RB3LYP) =  -807.909558298     A.U. after    7 cycles
 SCF Done:  E(RB3LYP) =  -807.909558352     A.U. after    7 cycles
 SCF Done:  E(RB3LYP) =  -807.909558365     A.U. after    6 cycles
 Optimization completed.
    -- Stationary point found.
 Normal termination of Gaussian 16 at Fri Dec 11 21:32:57 2020.

 --------------------------------------------------------------------
 #N Geom=AllCheck Guess=TCheck SCRF=Check GenChk RB3LYP/6-31G(d) Freq
 --------------------------------------------------------------------

 Structure from the checkpoint file:  "JID_8612.chk"
 -------------------------------
 CID_112459993_JID_8612_neutraal
 -------------------------------
 Charge =  0 Multiplicity = 1

 SCF Done:  E(RB3LYP) =  -807.909558365     A.U. after    1 cycles

  Exact polarizability: 205.076  -1.417 164.453  -9.878  -6.523 135.575
 Approx polarizability: 277.017  -4.723 257.477 -14.919 -19.811 193.968

                      1                      2                      3
                      A                      A                      A
 Frequencies --     19.6134                25.0439                43.7820
 Red. masses --      4.2497                 2.7641                 4.1814
 Frc consts  --      0.0010                 0.0010                 0.0047
 IR Inten    --      0.0329                 0.4178                 0.0803

                      4                      5                      6
                      A                      A                      A
 Frequencies --     86.2069               109.9903               112.2117
 Red. masses --      3.7117                 2.3715                 2.9365
 Frc consts  --      0.0163                 0.0169                 0.0218
 IR Inten    --      1.7863                 7.6219                 2.3709

                      7                      8                      9
                      A                      A                      A
 Frequencies --    126.5145               136.3692               153.0789
 Red. masses --      2.0057                 2.1042                 1.1388
 Frc consts  --      0.0189                 0.0231                 0.0157
 IR Inten    --      9.7230                22.4168                 1.5760

                     10                     11                     12
                      A                      A                      A
 Frequencies --    162.2218               190.6468               193.5698
 Red. masses --      2.4522                 2.6367                 2.6618
 Frc consts  --      0.0380                 0.0565                 0.0588
 IR Inten    --      8.0019                 1.7854                 7.6157

                     13                     14                     15
                      A                      A                      A
 Frequencies --    231.0610               235.1986               265.8583
 Red. masses --      1.1298                 1.0978                 3.1363
 Frc consts  --      0.0355                 0.0358                 0.1306
 IR Inten    --      0.3245                 0.2639                 3.3632

                     16                     17                     18
                      A                      A                      A
 Frequencies --    267.3282               273.8569               288.6060
 Red. masses --      1.1313                 3.0021                 3.0661
 Frc consts  --      0.0476                 0.1327                 0.1505
 IR Inten    --      0.1623                 2.1153                 1.9505

                     19                     20                     21
                      A                      A                      A
 Frequencies --    301.9109               342.3863               348.6404
 Red. masses --      3.3395                 2.1446                 3.4380
 Frc consts  --      0.1793                 0.1481                 0.2462
 IR Inten    --      1.6763                 0.4003                 0.0604

                     22                     23                     24
                      A                      A                      A
 Frequencies --    355.0621               370.5937               378.6272
 Red. masses --      2.7674                 1.4297                 3.4939
 Frc consts  --      0.2056                 0.1157                 0.2951
 IR Inten    --      3.6768                 0.9653                 4.0516

                     25                     26                     27
                      A                      A                      A
 Frequencies --    397.3194               409.2985               426.4219
 Red. masses --      2.4407                 2.7830                 3.5753
 Frc consts  --      0.2270                 0.2747                 0.3830
 IR Inten    --      0.0892                 0.6083                 1.1813

                     28                     29                     30
                      A                      A                      A
 Frequencies --    472.5425               517.2649               537.2385
 Red. masses --      3.1580                 4.0430                 3.3461
 Frc consts  --      0.4155                 0.6373                 0.5690
 IR Inten    --      1.5565                10.7054                 3.0533

                     31                     32                     33
                      A                      A                      A
 Frequencies --    559.9574               564.4490               599.8047
 Red. masses --      3.1149                 3.5698                 1.7758
 Frc consts  --      0.5754                 0.6701                 0.3764
 IR Inten    --      5.1705                 2.9259                29.8235

                     34                     35                     36
                      A                      A                      A
 Frequencies --    624.9721               665.3215               692.7018
 Red. masses --      1.6835                 3.9375                 4.8658
 Frc consts  --      0.3874                 1.0269                 1.3756
 IR Inten    --     92.7317                13.3919                 2.6695

                     37                     38                     39
                      A                      A                      A
 Frequencies --    729.4440               775.1855               825.4205
 Red. masses --      4.2193                 4.0078                 3.3973
 Frc consts  --      1.3228                 1.4189                 1.3637
 IR Inten    --      2.0209                 0.8428                 3.3336

                     40                     41                     42
                      A                      A                      A
 Frequencies --    847.0906               873.2035               913.2040
 Red. masses --      1.6411                 3.1140                 1.9067
 Frc consts  --      0.6938                 1.3989                 0.9368
 IR Inten    --     16.4541                 3.2958                15.9324

                     43                     44                     45
                      A                      A                      A
 Frequencies --    932.1291               938.1798               946.7996
 Red. masses --      2.3484                 1.7969                 1.3270
 Frc consts  --      1.2022                 0.9318                 0.7008
 IR Inten    --     22.8373                 0.0967                 2.1376

                     46                     47                     48
                      A                      A                      A
 Frequencies --    954.8178               959.2397               971.6457
 Red. masses --      1.7070                 1.4813                 1.5323
 Frc consts  --      0.9169                 0.8031                 0.8523
 IR Inten    --      2.2784                 9.0920                20.8700

                     49                     50                     51
                      A                      A                      A
 Frequencies --    980.7576               992.1394              1052.3149
 Red. masses --      1.2929                 2.3010                 1.5003
 Frc consts  --      0.7327                 1.3345                 0.9789
 IR Inten    --      5.7613                 7.5720                35.9578

                     52                     53                     54
                      A                      A                      A
 Frequencies --   1058.3252              1063.5729              1067.0905
 Red. masses --      3.2071                 1.6144                 1.6069
 Frc consts  --      2.1164                 1.0759                 1.0780
 IR Inten    --     26.0928                14.5157                13.3820

                     55                     56                     57
                      A                      A                      A
 Frequencies --   1077.1664              1112.0403              1119.3434
 Red. masses --      2.2167                 2.2532                 2.3512
 Frc consts  --      1.5154                 1.6417                 1.7357
 IR Inten    --      9.5699                28.1560                53.0284

                     58                     59                     60
                      A                      A                      A
 Frequencies --   1141.2102              1175.7843              1182.9442
 Red. masses --      2.1668                 1.3144                 1.6697
 Frc consts  --      1.6627                 1.0706                 1.3767
 IR Inten    --     41.2224                29.5168                30.6689

                     61                     62                     63
                      A                      A                      A
 Frequencies --   1187.5366              1212.2713              1215.0659
 Red. masses --      1.2649                 1.9208                 1.7393
 Frc consts  --      1.0510                 1.6631                 1.5129
 IR Inten    --      7.5050                12.5284                10.6331

                     64                     65                     66
                      A                      A                      A
 Frequencies --   1240.2285              1242.0310              1253.0879
 Red. masses --      2.5710                 2.3914                 1.5753
 Frc consts  --      2.3300                 2.1735                 1.4574
 IR Inten    --      3.3442                 1.8016                37.9483

                     67                     68                     69
                      A                      A                      A
 Frequencies --   1271.8373              1282.8600              1301.4404
 Red. masses --      3.2781                 2.2281                 1.7078
 Frc consts  --      3.1242                 2.1604                 1.7042
 IR Inten    --    118.4775                18.3576                66.0168

                     70                     71                     72
                      A                      A                      A
 Frequencies --   1318.4122              1345.4325              1353.6479
 Red. masses --      1.9637                 1.5845                 4.3771
 Frc consts  --      2.0111                 1.6900                 4.7255
 IR Inten    --      8.6565                20.2251                 8.1110

                     73                     74                     75
                      A                      A                      A
 Frequencies --   1405.3667              1426.9819              1431.5759
 Red. masses --      1.2405                 1.2122                 1.3663
 Frc consts  --      1.4436                 1.4543                 1.6498
 IR Inten    --     33.6407                 3.9209                 3.6115

                     76                     77                     78
                      A                      A                      A
 Frequencies --   1432.7252              1437.6719              1448.0330
 Red. masses --      1.2610                 2.3847                 1.5985
 Frc consts  --      1.5250                 2.9041                 1.9748
 IR Inten    --      2.5252                52.0615                48.7873

                     79                     80                     81
                      A                      A                      A
 Frequencies --   1462.7474              1498.2912              1511.5314
 Red. masses --      1.2239                 1.2200                 1.0547
 Frc consts  --      1.5429                 1.6137                 1.4197
 IR Inten    --      2.7688                11.1516                 1.9586

                     82                     83                     84
                      A                      A                      A
 Frequencies --   1512.9770              1514.0463              1516.1621
 Red. masses --      1.0632                 1.0477                 1.0518
 Frc consts  --      1.4339                 1.4150                 1.4246
 IR Inten    --      0.2809                 2.9881                 4.2364

                     85                     86                     87
                      A                      A                      A
 Frequencies --   1517.8826              1524.5677              1529.2131
 Red. masses --      1.0458                 1.0744                 1.1361
 Frc consts  --      1.4197                 1.4713                 1.5653
 IR Inten    --      0.2962                 3.2285                 6.1831

                     88                     89                     90
                      A                      A                      A
 Frequencies --   1531.7972              1534.9113              1538.5443
 Red. masses --      1.0528                 1.0827                 1.1041
 Frc consts  --      1.4555                 1.5028                 1.5398
 IR Inten    --      6.2938                 3.1348                33.5264

                     91                     92                     93
                      A                      A                      A
 Frequencies --   1541.3139              1546.1857              1550.0445
 Red. masses --      1.1721                 1.5146                 1.2235
 Frc consts  --      1.6405                 2.1334                 1.7320
 IR Inten    --     29.8286                37.2316                25.0437

                     94                     95                     96
                      A                      A                      A
 Frequencies --   1624.9439              1665.3934              1700.2562
 Red. masses --      7.0243                 5.8297                 1.0599
 Frc consts  --     10.9277                 9.5263                 1.8053
 IR Inten    --      2.5345                 3.4839                26.3723

                     97                     98                     99
                      A                      A                      A
 Frequencies --   3020.3223              3023.8561              3045.7477
 Red. masses --      1.0346                 1.0610                 1.0358
 Frc consts  --      5.5606                 5.7158                 5.6614
 IR Inten    --     52.2810                32.2448                29.6176

                    100                    101                    102
                      A                      A                      A
 Frequencies --   3047.5258              3056.8489              3061.6415
 Red. masses --      1.0383                 1.0413                 1.0351
 Frc consts  --      5.6818                 5.7331                 5.7166
 IR Inten    --     11.3058                56.2672                19.8518

                    103                    104                    105
                      A                      A                      A
 Frequencies --   3074.7775              3077.3602              3109.4714
 Red. masses --      1.1008                 1.1048                 1.1016
 Frc consts  --      6.1320                 6.1644                 6.2754
 IR Inten    --     43.2808                46.0549                 9.3459

                    106                    107                    108
                      A                      A                      A
 Frequencies --   3112.6061              3119.6592              3128.9075
 Red. masses --      1.1000                 1.0982                 1.1017
 Frc consts  --      6.2787                 6.2973                 6.3548
 IR Inten    --     21.4895                80.0332                 5.0911

                    109                    110                    111
                      A                      A                      A
 Frequencies --   3132.0727              3135.6869              3142.1000
 Red. masses --      1.1004                 1.1033                 1.1028
 Frc consts  --      6.3603                 6.3913                 6.4148
 IR Inten    --     52.1514                35.2938                14.6638

                    112                    113                    114
                      A                      A                      A
 Frequencies --   3148.0131              3165.5566              3184.5111
 Red. masses --      1.1003                 1.0998                 1.0868
 Frc consts  --      6.4246                 6.4935                 6.4934
 IR Inten    --     36.8255                19.5174                12.9329

                    115                    116                    117
                      A                      A                      A
 Frequencies --   3204.1282              3234.1008              3403.9829
 Red. masses --      1.0941                 1.0874                 1.0510
 Frc consts  --      6.6182                 6.7014                 7.1751
 IR Inten    --     17.0470                 3.0986                 3.7850

                    118                    119                    120
                      A                      A                      A
 Frequencies --   3453.9286              3495.7907              3594.0804
 Red. masses --      1.0748                 1.0907                 1.0649
 Frc consts  --      7.5546                 7.8533                 8.1043
 IR Inten    --      0.5271                 1.1291               101.6584

 - Thermochemistry -
 -------------------
 Temperature   298.150 Kelvin.  Pressure   1.00000 Atm.
 Atom     1 has atomic number  6 and mass  12.00000

 Molecular mass:   252.18378 amu.
 Principal axes and moments of inertia in atomic units:
                           1         2         3
     Eigenvalues --  2989.567857149.021377862.29360
           X            0.99985   0.01255  -0.01209
           Y           -0.01247   0.99990   0.00672
           Z            0.01217  -0.00657   0.99990
 This molecule is an asymmetric top.
 Rotational symmetry number  1.
 Warning -- assumption of classical behavior for rotation
           may cause significant error
 Rotational temperatures (Kelvin)      0.02897     0.01212     0.01102
 Rotational constants (GHZ):           0.60368     0.25245     0.22954
 Zero-point vibrational energy     974803.5 (Joules/Mol)
                                  232.98362 (Kcal/Mol)
 Warning -- explicit consideration of  33 degrees of freedom as
           vibrations may cause significant error
 Vibrational temperatures:     28.22    36.03    62.99   124.03   158.25
          (Kelvin)            161.45   182.03   196.20   220.25   233.40
                              274.30   278.50   332.45   338.40   382.51
                              384.63   394.02   415.24   434.38   492.62
                              501.62   510.86   533.20   544.76   571.65
                              588.89   613.53   679.88   744.23   772.97
                              805.65   812.12   862.99   899.20   957.25
                              996.64  1049.51  1115.32  1187.60  1218.77
                             1256.35  1313.90  1341.13  1349.83  1362.23
                             1373.77  1380.13  1397.98  1411.09  1427.47
                             1514.05  1522.69  1530.24  1535.31  1549.80
                             1599.98  1610.49  1641.95  1691.69  1701.99
                             1708.60  1744.19  1748.21  1784.41  1787.01
                             1802.91  1829.89  1845.75  1872.48  1896.90
                             1935.78  1947.60  2022.01  2053.11  2059.72
                             2061.37  2068.49  2083.40  2104.57  2155.71
                             2174.76  2176.84  2178.37  2181.42  2183.89
                             2193.51  2200.20  2203.91  2208.40  2213.62
                             2217.61  2224.62  2230.17  2337.93  2396.13
                             2446.29  4345.57  4350.65  4382.15  4384.71
                             4398.12  4405.02  4423.92  4427.63  4473.84
                             4478.35  4488.49  4501.80  4506.35  4511.55
                             4520.78  4529.29  4554.53  4581.80  4610.03
                             4653.15  4897.57  4969.43  5029.66  5171.08

 Zero-point correction=                           0.371283 (Hartree/Particle)
 Thermal correction to Energy=                    0.391478
 Thermal correction to Enthalpy=                  0.392422
 Thermal correction to Gibbs Free Energy=         0.322493
 Sum of electronic and zero-point Energies=           -807.538275
 Sum of electronic and thermal Energies=              -807.518081
 Sum of electronic and thermal Enthalpies=            -807.517137
 Sum of electronic and thermal Free Energies=         -807.587065

                     E (Thermal)             CV                S
                      KCal/Mol        Cal/Mol-Kelvin    Cal/Mol-Kelvin
 Total                  245.656             76.595            147.177
 Electronic               0.000              0.000              0.000
 Translational            0.889              2.981             42.475
 Rotational               0.889              2.981             33.485
 Vibrational            243.878             70.633             71.217
 Vibration     1          0.593              1.986              6.673
 Vibration     2          0.593              1.985              6.188
 Vibration     3          0.595              1.980              5.080
 Vibration     4          0.601              1.959              3.744
 Vibration     5          0.606              1.941              3.269
 Vibration     6          0.607              1.939              3.230
 Vibration     7          0.611              1.927              2.998
 Vibration     8          0.614              1.917              2.854
 Vibration     9          0.619              1.899              2.634
 Vibration    10          0.622              1.889              2.524
 Vibration    11          0.634              1.853              2.222
 Vibration    12          0.635              1.849              2.193
 Vibration    13          0.653              1.794              1.871
 Vibration    14          0.655              1.787              1.839
 Vibration    15          0.672              1.736              1.623
 Vibration    16          0.672              1.733              1.613
 Vibration    17          0.676              1.722              1.572
 Vibration    18          0.685              1.695              1.482
 Vibration    19          0.694              1.670              1.406
 Vibration    20          0.722              1.591              1.201
 Vibration    21          0.726              1.578              1.172
 Vibration    22          0.731              1.565              1.144
 Vibration    23          0.743              1.533              1.077
 Vibration    24          0.749              1.516              1.045
 Vibration    25          0.764              1.476              0.973
 Vibration    26          0.774              1.450              0.929
 Vibration    27          0.788              1.413              0.870
 Vibration    28          0.829              1.311              0.730
 Vibration    29          0.872              1.212              0.616
 Vibration    30          0.892              1.168              0.571
 Vibration    31          0.916              1.118              0.524
 Vibration    32          0.920              1.108              0.515
 Vibration    33          0.958              1.032              0.450

 Optimization completed.
    -- Stationary point found.
 Normal termination of Gaussian 16 at Fri Dec 11 21:52:53 2020.

 ----------------------------------------------------------------------
 # B3LYP/6-311++G(d,p) empiricaldispersion=gd3bj scf=xqc pop=npa geom=c
 heck
 ----------------------------------------------------------------------

 ---------------------------------------
 CID_112459993_JID_8612_Energie_neutraal
 ---------------------------------------
 Structure from the checkpoint file:  "JID_8612.chk"
 Charge =  0 Multiplicity = 1

 SCF Done:  E(RB3LYP) =  -808.149957893     A.U. after   15 cycles
 Normal termination of Gaussian 16 at Fri Dec 11 22:01:16 2020.

 ----------------------------------------------------------------------
 # B3LYP/6-311++G(d,p) empiricaldispersion=gd3bj scf=xqc pop=npa geom=c
 heck
 ----------------------------------------------------------------------

 -------------------------------------
 CID_112459993_JID_8612_Energie_kation
 -------------------------------------
 Structure from the checkpoint file:  "JID_8612.chk"
 Charge =  1 Multiplicity = 2

 SCF Done:  E(UB3LYP) =  -807.861740397     A.U. after   29 cycles
 Normal termination of Gaussian 16 at Fri Dec 11 22:22:57 2020.
 Gaussian 16:  ES64L-G16RevA.03 25-Dec-2016

 ----------------------------------------------------------------------
 # B3LYP/6-311++G(d,p) empiricaldispersion=gd3bj scf=xqc pop=npa geom=c
 heck
 ----------------------------------------------------------------------

 ------------------------------------
 CID_112459993_JID_8612_Energie_anion
 ------------------------------------
 Structure from the checkpoint file:  "JID_8612.chk"
 Charge = -1 Multiplicity = 2

                         Standard orientation:
 ---------------------------------------------------------------------
 Center     Atomic      Atomic             Coordinates (Angstroms)
 Number     Number       Type             X           Y           Z
 ---------------------------------------------------------------------
      1          6           0       -3.859795   -0.683051    0.528866
      2          6           0       -2.437146   -1.244453    0.350074
      3          6           0       -1.998426   -1.814990    1.718802
      4          6           0       -2.517271   -2.393746   -0.681070
      5          6           0       -1.376563   -0.234123   -0.134361
      6          6           0       -1.595645    1.102015   -0.510373
      7          6           0       -0.538031    1.904416   -0.960682
      8          6           0        0.754855    1.410679   -1.041458
      9          6           0        1.013501    0.082691   -0.675203
     10          6           0       -0.052062   -0.700145   -0.242592
     11          6           0        2.428208   -0.508109   -0.762359
     12          6           0        2.868137   -0.625795   -2.222150
     13          6           0        3.414236    0.358464    0.046301
     14          7           0        3.037321    0.259527    1.459607
     15          7           0        3.980994    1.054915    2.263833
     16          8           0        2.473306   -1.824101   -0.213834
     17          8           0       -2.859162    1.664221   -0.503958
     18          6           0       -3.062887    2.656552    0.493074
     19          1           0       -4.510461   -1.496901    0.871370
     20          1           0       -4.267347   -0.282852   -0.400126
     21          1           0       -3.896353    0.107157    1.284421
     22          1           0       -2.736078   -2.544272    2.073563
     23          1           0       -1.029211   -2.319227    1.669571
     24          1           0       -1.924729   -1.015814    2.465249
     25          1           0       -2.839992   -2.013989   -1.656622
     26          1           0       -1.551536   -2.889999   -0.816027
     27          1           0       -3.242129   -3.147509   -0.350968
     28          1           0       -0.760169    2.922463   -1.266784
     29          1           0        1.552394    2.054151   -1.402652
     30          1           0        0.174906   -1.727302    0.013998
     31          1           0        2.858035    0.349600   -2.718334
     32          1           0        3.877480   -1.046115   -2.277064
     33          1           0        2.183486   -1.291372   -2.755726
     34          1           0        4.416569   -0.073323   -0.066094
     35          1           0        3.450325    1.395848   -0.316686
     36          1           0        2.153873    0.765013    1.550071
     37          1           0        3.755292    0.799482    3.228632
     38          1           0        4.883102    0.597115    2.108036
     39          1           0        2.562445   -1.676750    0.749578
     40          1           0       -4.085920    3.018199    0.367319
     41          1           0       -2.946501    2.234886    1.501127
     42          1           0       -2.365499    3.497024    0.381195
 ---------------------------------------------------------------------

 SCF Done:  E(UB3LYP) =  -808.138860503     A.U. after   33 cycles
 SCF Done:  E(UB3LYP) =  -808.138860504     a.u. after    1 cycles

 The electronic state is 2-A.
 Alpha  occ. eigenvalues --  -19.04655 -19.02299 -14.23882 -14.22894 -10.14631
 Alpha  occ. eigenvalues --  -10.13784 -10.12673 -10.10537 -10.10469 -10.09371
 Alpha  occ. eigenvalues --  -10.08698 -10.08559 -10.08300 -10.07758 -10.07643
 Alpha  occ. eigenvalues --  -10.07344 -10.06996 -10.06460  -0.96526  -0.93560
 Alpha  occ. eigenvalues --   -0.86668  -0.77338  -0.73385  -0.71254  -0.67714
 Alpha  occ. eigenvalues --   -0.65229  -0.64743  -0.60041  -0.60018  -0.59355
 Alpha  occ. eigenvalues --   -0.57116  -0.53293  -0.51774  -0.49057  -0.45559
 Alpha  occ. eigenvalues --   -0.43501  -0.42995  -0.40611  -0.39596  -0.39043
 Alpha  occ. eigenvalues --   -0.37481  -0.37284  -0.36375  -0.35843  -0.34765
 Alpha  occ. eigenvalues --   -0.34377  -0.33688  -0.33033  -0.32657  -0.31416
 Alpha  occ. eigenvalues --   -0.31058  -0.30301  -0.29357  -0.29087  -0.28411
 Alpha  occ. eigenvalues --   -0.27817  -0.27588  -0.26619  -0.25923  -0.24913
 Alpha  occ. eigenvalues --   -0.24342  -0.24101  -0.23562  -0.23266  -0.19145
 Alpha  occ. eigenvalues --   -0.18384  -0.15971  -0.14516  -0.12172   0.03969
 Alpha virt. eigenvalues --    0.05705   0.06412   0.06756   0.07223   0.07760
 Alpha virt. eigenvalues --    0.08007   0.08368   0.08724   0.08974   0.09452
 Alpha virt. eigenvalues --    0.09995   0.10182   0.10683   0.10825   0.11816

  Beta  occ. eigenvalues --  -19.04651 -19.02293 -14.23861 -14.22839 -10.14626
  Beta  occ. eigenvalues --  -10.13783 -10.12632 -10.10536 -10.10451 -10.09370
  Beta  occ. eigenvalues --  -10.08692 -10.08553 -10.08282 -10.07751 -10.07636
  Beta  occ. eigenvalues --  -10.07334 -10.06981 -10.06447  -0.96515  -0.93546
  Beta  occ. eigenvalues --   -0.86618  -0.77324  -0.73369  -0.71194  -0.67660
  Beta  occ. eigenvalues --   -0.65206  -0.64717  -0.59998  -0.59994  -0.59323
  Beta  occ. eigenvalues --   -0.57053  -0.53272  -0.51740  -0.49029  -0.45537
  Beta  occ. eigenvalues --   -0.43469  -0.42961  -0.40574  -0.39562  -0.39014
  Beta  occ. eigenvalues --   -0.37448  -0.37264  -0.36326  -0.35817  -0.34747
  Beta  occ. eigenvalues --   -0.34341  -0.33663  -0.33007  -0.32633  -0.31373
  Beta  occ. eigenvalues --   -0.31041  -0.30287  -0.29325  -0.29070  -0.28386
  Beta  occ. eigenvalues --   -0.27796  -0.27562  -0.26602  -0.25900  -0.24888
  Beta  occ. eigenvalues --   -0.24316  -0.24086  -0.23547  -0.23245  -0.19130
  Beta  occ. eigenvalues --   -0.18370  -0.15940  -0.14495  -0.12120
  Beta virt. eigenvalues --    0.05893   0.06569   0.06964   0.07179   0.07348
  Beta virt. eigenvalues --    0.08009   0.08301   0.08597   0.08803   0.09291
  Beta virt. eigenvalues --    0.09724   0.10261   0.10461   0.10775   0.11011

 Mulliken charges and spin densities:
               1          2
     1  C   -0.314218  -0.177566
     2  C   -0.231545   1.024327
     3  C    0.109067  -0.711115
     4  C   -0.493300  -0.193470
     5  C   -0.648228   0.764820
     6  C   -0.701014   0.347005
     7  C    1.484785  -1.656057
     8  C   -1.347267   0.670289
     9  C    1.066294  -0.410397
    10  C   -0.740177   0.040477
    11  C    1.133757  -0.843963
    12  C    0.237548  -0.845701
    13  C   -0.515380  -0.210774
    14  N   -0.212617   0.052288
    15  N   -0.129138  -0.131487
    16  O   -0.162940   0.032394
    17  O   -0.152873   0.032797
    18  C    0.963144  -1.244033
    19  H   -0.114530   0.254902
    20  H    0.177672   0.006106
    21  H    0.103800   0.019981
    22  H    0.068274   0.078800
    23  H   -0.006852   0.148657
    24  H   -0.121561   0.276989
    25  H    0.102726   0.054718
    26  H   -0.023109   0.162390
    27  H    0.099785   0.044777
    28  H   -0.205033   0.393929
    29  H   -0.182362   0.319214
    30  H    0.442466  -0.259552
    31  H    0.012470   0.145585
    32  H    0.090411   0.048096
    33  H    0.160526   0.012535
    34  H   -0.171239   0.386087
    35  H    0.028124   0.141010
    36  H    0.257092  -0.013175
    37  H   -0.230174   0.478015
    38  H   -0.198795   0.425156
    39  H    0.130974   0.149697
    40  H   -0.230532   0.386634
    41  H   -0.229799   0.366733
    42  H   -0.306231   0.432882
 Sum of Mulliken charges =  -1.00000   1.00000

 Dipole moment (field-independent basis, Debye):
    X=             -2.6782    Y=             -3.2050    Z=             -4.4061  Tot=              6.0711
 Quadrupole moment (field-independent basis, Debye-Ang):
   XX=           -198.1937   YY=           -162.7639   ZZ=           -156.2263
   XY=              5.5602   XZ=            -12.6636   YZ=             -3.5277

 Summary of Natural Population Analysis:

                                       Natural Population
                Natural  -----------------------------------------------
    Atom  No    Charge         Core      Valence    Rydberg      Total
 -----------------------------------------------------------------------
      C    1   -0.28277      0.99963     2.27544    0.00769     3.28277
      C    2   -0.04879      0.99957     2.03911    0.01011     3.04879
      C    3   -0.28066      0.99963     2.27391    0.00712     3.28066
      C    4   -0.27912      0.99963     2.27408    0.00540     3.27912
      C    5   -0.02289      0.99943     2.01115    0.01231     3.02289
      C    6    0.15149      0.99932     1.83530    0.01389     2.84851
      C    7   -0.11199      0.99951     2.10258    0.00989     3.11199
      C    8   -0.10283      0.99951     2.09400    0.00932     3.10283
      C    9   -0.03421      0.99946     2.02166    0.01309     3.03421
      C   10   -0.09541      0.99947     2.08676    0.00918     3.09541
      C   11    0.12294      0.99949     1.86081    0.01677     2.87706
      C   12   -0.28378      0.99961     2.27860    0.00557     3.28378
      C   13   -0.09694      0.99958     2.08443    0.01292     3.09694
      N   14   -0.27063      0.99974     2.75700    0.01390     3.77063
      N   15   -0.32569      0.99979     2.81447    0.01143     3.82569
      O   16   -0.38316      0.99989     3.37692    0.00635     4.38316
      O   17   -0.29300      0.99986     3.28307    0.01007     4.29300
      C   18   -0.09631      0.99959     2.08781    0.00891     3.09631
      H   19    0.09360      0.00000     0.40559    0.00081     0.40640
      H   20    0.10743      0.00000     0.39158    0.00099     0.39257
      H   21    0.10113      0.00000     0.39786    0.00101     0.39887
      H   22    0.09670      0.00000     0.40253    0.00077     0.40330
      H   23    0.10051      0.00000     0.39848    0.00100     0.39949
      H   24    0.10318      0.00000     0.39580    0.00102     0.39682
      H   25    0.10068      0.00000     0.39857    0.00075     0.39932
      H   26    0.10119      0.00000     0.39805    0.00076     0.39881
      H   27    0.09647      0.00000     0.40275    0.00078     0.40353
      H   28    0.10546      0.00000     0.39336    0.00118     0.39454
      H   29    0.10225      0.00000     0.39649    0.00126     0.39775
      H   30    0.11108      0.00000     0.38728    0.00163     0.38892
      H   31    0.10052      0.00000     0.39865    0.00083     0.39948
      H   32    0.10186      0.00000     0.39727    0.00087     0.39814
      H   33    0.10533      0.00000     0.39387    0.00080     0.39467
      H   34    0.09566      0.00000     0.40286    0.00148     0.40434
      H   35    0.09168      0.00000     0.40659    0.00173     0.40832
      H   36    0.17581      0.00000     0.32025    0.00394     0.32419
      H   37    0.17551      0.00000     0.32086    0.00364     0.32449
      H   38    0.17016      0.00000     0.32615    0.00369     0.32984
      H   39    0.23911      0.00000     0.25702    0.00387     0.26089
      H   40    0.09095      0.00000     0.40777    0.00128     0.40905
      H   41    0.08301      0.00000     0.41540    0.00159     0.41699
      H   42    0.08445      0.00000     0.41384    0.00171     0.41555
 =======================================================================
   * Total *   -0.00000     17.99272    50.78600    0.22127    69.00000

 Normal termination of Gaussian 16 at Fri Dec 11 22:48:12 2020.
