 Gaussian 16, Revision A.03,

 -----------------------------------------------------------
 # opt freq B3LYP/6-31G(d) empiricaldispersion=gd3bj scf=xqc
 -----------------------------------------------------------

 ------------------------------
 CID_28780667_JID_6650_neutraal
 ------------------------------
 Symbolic Z-matrix:
 Charge =  0 Multiplicity = 1

 SCF Done:  E(RB3LYP) =  -1067.33051440     A.U. after   15 cycles
 SCF Done:  E(RB3LYP) =  -1067.33169274     A.U. after   13 cycles
 SCF Done:  E(RB3LYP) =  -1067.33219664     A.U. after   13 cycles
 SCF Done:  E(RB3LYP) =  -1067.33428944     A.U. after   13 cycles
 SCF Done:  E(RB3LYP) =  -1067.33480538     A.U. after   12 cycles
 SCF Done:  E(RB3LYP) =  -1067.33502595     A.U. after   11 cycles
 SCF Done:  E(RB3LYP) =  -1067.33546318     A.U. after   13 cycles
 SCF Done:  E(RB3LYP) =  -1067.33395997     A.U. after   15 cycles
 SCF Done:  E(RB3LYP) =  -1067.33648391     A.U. after   13 cycles
 SCF Done:  E(RB3LYP) =  -1067.33716647     A.U. after   15 cycles
 SCF Done:  E(RB3LYP) =  -1067.34251026     A.U. after   11 cycles
 SCF Done:  E(RB3LYP) =  -1067.34253268     A.U. after   10 cycles
 SCF Done:  E(RB3LYP) =  -1067.34254155     A.U. after   10 cycles
 SCF Done:  E(RB3LYP) =  -1067.34254333     A.U. after    8 cycles
 SCF Done:  E(RB3LYP) =  -1067.34254362     A.U. after    8 cycles
 Optimization completed.
    -- Stationary point found.
 Normal termination of Gaussian 16 at Thu Dec 10 23:09:07 2020.

 --------------------------------------------------------------------
 #N Geom=AllCheck Guess=TCheck SCRF=Check GenChk RB3LYP/6-31G(d) Freq
 --------------------------------------------------------------------

 Structure from the checkpoint file:  "JID_6650.chk"
 ------------------------------
 CID_28780667_JID_6650_neutraal
 ------------------------------
 Charge =  0 Multiplicity = 1

 SCF Done:  E(RB3LYP) =  -1067.34254362     A.U. after    1 cycles

  Exact polarizability: 157.426  -0.362 171.052  27.082   3.402  93.640
 Approx polarizability: 235.340  -0.575 307.642  59.305   9.821 163.068

                      1                      2                      3
                      A                      A                      A
 Frequencies --     30.8038                50.3714                58.9284
 Red. masses --      6.7445                 5.4110                 5.5097
 Frc consts  --      0.0038                 0.0081                 0.0113
 IR Inten    --      0.4052                 0.8601                 1.6052

                      4                      5                      6
                      A                      A                      A
 Frequencies --     77.2314                91.8306               107.3211
 Red. masses --      7.3558                 6.3141                 5.6839
 Frc consts  --      0.0259                 0.0314                 0.0386
 IR Inten    --      1.3151                 0.7036                 1.6470

                      7                      8                      9
                      A                      A                      A
 Frequencies --    230.7084               262.3782               284.8605
 Red. masses --      4.6053                 5.9305                 6.5969
 Frc consts  --      0.1444                 0.2405                 0.3154
 IR Inten    --      0.4821                 0.0428                 0.6185

                     10                     11                     12
                      A                      A                      A
 Frequencies --    296.3358               338.1388               402.7529
 Red. masses --      3.1571                 5.2505                 5.7655
 Frc consts  --      0.1633                 0.3537                 0.5510
 IR Inten    --      4.4588                 3.8484                 3.4755

                     13                     14                     15
                      A                      A                      A
 Frequencies --    409.8228               450.4551               457.1667
 Red. masses --      1.1262                 2.7326                 4.5742
 Frc consts  --      0.1114                 0.3267                 0.5633
 IR Inten    --    140.1602                 4.8000                 0.0798

                     16                     17                     18
                      A                      A                      A
 Frequencies --    468.9447               481.6271               516.6832
 Red. masses --      2.0240                 3.0602                 3.5078
 Frc consts  --      0.2622                 0.4182                 0.5517
 IR Inten    --     28.9768                10.6359                17.8102

                     19                     20                     21
                      A                      A                      A
 Frequencies --    539.6908               570.4713               600.6195
 Red. masses --      7.4976                 2.6096                 4.7953
 Frc consts  --      1.2867                 0.5004                 1.0192
 IR Inten    --      4.6968                42.3425                11.1683

                     22                     23                     24
                      A                      A                      A
 Frequencies --    631.2991               656.8640               668.3079
 Red. masses --      3.3916                 5.5328                 5.7182
 Frc consts  --      0.7964                 1.4065                 1.5048
 IR Inten    --     26.9307                 8.6979                 1.4971

                     25                     26                     27
                      A                      A                      A
 Frequencies --    692.6122               710.2504               742.7505
 Red. masses --      1.2441                 2.7799                 3.7434
 Frc consts  --      0.3516                 0.8262                 1.2167
 IR Inten    --      4.1634                16.1190                23.5653

                     28                     29                     30
                      A                      A                      A
 Frequencies --    779.3426               795.6242               825.3605
 Red. masses --      1.4089                 1.5865                 3.7567
 Frc consts  --      0.5042                 0.5917                 1.5078
 IR Inten    --     36.3679                42.8570                 2.6331

                     31                     32                     33
                      A                      A                      A
 Frequencies --    835.7505               859.4292               889.6361
 Red. masses --      4.4427                 4.3589                 1.9575
 Frc consts  --      1.8283                 1.8969                 0.9128
 IR Inten    --     10.1618                13.6683                19.8755

                     34                     35                     36
                      A                      A                      A
 Frequencies --    892.2382               901.1144               918.8462
 Red. masses --      1.7036                 1.6224                 1.4258
 Frc consts  --      0.7991                 0.7762                 0.7092
 IR Inten    --      4.3439                 7.5947                 1.3573

                     37                     38                     39
                      A                      A                      A
 Frequencies --    957.5054               969.8576               979.5456
 Red. masses --      2.7540                 1.2588                 2.2412
 Frc consts  --      1.4876                 0.6977                 1.2670
 IR Inten    --      3.4816                 0.1364                 4.9206

                     40                     41                     42
                      A                      A                      A
 Frequencies --   1016.4187              1024.5383              1105.4903
 Red. masses --      2.9192                 4.7940                 1.5617
 Frc consts  --      1.7769                 2.9648                 1.1245
 IR Inten    --      4.6506                 9.5925                 5.4878

                     43                     44                     45
                      A                      A                      A
 Frequencies --   1121.7921              1178.3694              1189.2741
 Red. masses --      1.1147                 1.2420                 1.1696
 Frc consts  --      0.8265                 1.0161                 0.9747
 IR Inten    --      7.6960                35.9540                13.3608

                     46                     47                     48
                      A                      A                      A
 Frequencies --   1192.7822              1225.4006              1231.7806
 Red. masses --      1.5059                 1.9632                 1.3192
 Frc consts  --      1.2623                 1.7369                 1.1793
 IR Inten    --      8.6582                91.9849                47.9017

                     49                     50                     51
                      A                      A                      A
 Frequencies --   1267.7645              1318.6898              1324.0609
 Red. masses --      1.5175                 2.2330                 1.4983
 Frc consts  --      1.4370                 2.2879                 1.5477
 IR Inten    --     12.7497                40.3702                14.8460

                     52                     53                     54
                      A                      A                      A
 Frequencies --   1362.5276              1374.5648              1378.8723
 Red. masses --      1.9862                 2.8602                 2.9627
 Frc consts  --      2.1726                 3.1840                 3.3188
 IR Inten    --     10.1682               177.3663                15.4674

                     55                     56                     57
                      A                      A                      A
 Frequencies --   1430.5692              1456.4858              1478.7960
 Red. masses --      2.5697                 2.2145                 6.0758
 Frc consts  --      3.0984                 2.7679                 7.8283
 IR Inten    --      7.8286                59.9906                 5.9156

                     58                     59                     60
                      A                      A                      A
 Frequencies --   1499.7409              1504.2231              1559.3356
 Red. masses --      1.1324                 2.8006                 2.6590
 Frc consts  --      1.5007                 3.7336                 3.8093
 IR Inten    --     15.0602                49.7390                25.4457

                     61                     62                     63
                      A                      A                      A
 Frequencies --   1606.6136              1661.5640              1664.5779
 Red. masses --      5.9266                 5.9215                 5.9978
 Frc consts  --      9.0132                 9.6319                 9.7915
 IR Inten    --      3.1248                56.4934                81.3482

                     64                     65                     66
                      A                      A                      A
 Frequencies --   1787.3285              3075.6367              3124.9911
 Red. masses --      8.5262                 1.0588                 1.1054
 Frc consts  --     16.0478                 5.9009                 6.3600
 IR Inten    --    384.8908                10.1334                 8.9086

                     67                     68                     69
                      A                      A                      A
 Frequencies --   3196.4531              3214.4326              3215.7684
 Red. masses --      1.0872                 1.0917                 1.0921
 Frc consts  --      6.5450                 6.6462                 6.6543
 IR Inten    --      8.5609                 5.0564                 6.5871

                     70                     71                     72
                      A                      A                      A
 Frequencies --   3223.4306              3231.4001              3270.4255
 Red. masses --      1.0955                 1.0911                 1.0937
 Frc consts  --      6.7066                 6.7129                 6.8922
 IR Inten    --      8.3425                 0.3733                 0.8890

                     73                     74                     75
                      A                      A                      A
 Frequencies --   3274.3130              3571.2270              3710.0631
 Red. masses --      1.0977                 1.0752                 1.0661
 Frc consts  --      6.9337                 8.0791                 8.6456
 IR Inten    --      0.3330                27.1184                85.2098

 - Thermochemistry -
 -------------------
 Temperature   298.150 Kelvin.  Pressure   1.00000 Atm.
 Atom     1 has atomic number  6 and mass  12.00000

 Molecular mass:   233.05105 amu.
 Principal axes and moments of inertia in atomic units:
                           1         2         3
     Eigenvalues --  2967.595573857.656966135.29730
           X            0.99973   0.02009   0.01161
           Y           -0.02004   0.99979  -0.00419
           Z           -0.01170   0.00396   0.99992
 This molecule is an asymmetric top.
 Rotational symmetry number  1.
 Warning -- assumption of classical behavior for rotation
           may cause significant error
 Rotational temperatures (Kelvin)      0.02919     0.02245     0.01412
 Rotational constants (GHZ):           0.60815     0.46783     0.29416
 Zero-point vibrational energy     547310.6 (Joules/Mol)
                                  130.81036 (Kcal/Mol)
 Warning -- explicit consideration of  21 degrees of freedom as
           vibrations may cause significant error
 Vibrational temperatures:     44.32    72.47    84.78   111.12   132.12
          (Kelvin)            154.41   331.94   377.50   409.85   426.36
                              486.51   579.47   589.64   648.10   657.76
                              674.71   692.95   743.39   776.49   820.78
                              864.16   908.30   945.08   961.55   996.51
                             1021.89  1068.65  1121.30  1144.73  1187.51
                             1202.46  1236.53  1279.99  1283.73  1296.50
                             1322.01  1377.64  1395.41  1409.35  1462.40
                             1474.08  1590.55  1614.01  1695.41  1711.10
                             1716.15  1763.08  1772.26  1824.03  1897.30
                             1905.03  1960.37  1977.69  1983.89  2058.27
                             2095.56  2127.66  2157.79  2164.24  2243.54
                             2311.56  2390.62  2394.96  2571.57  4425.16
                             4496.17  4598.98  4624.85  4626.77  4637.80
                             4649.26  4705.41  4711.01  5138.20  5337.95

 Zero-point correction=                           0.208460 (Hartree/Particle)
 Thermal correction to Energy=                    0.222377
 Thermal correction to Enthalpy=                  0.223321
 Thermal correction to Gibbs Free Energy=         0.166260
 Sum of electronic and zero-point Energies=          -1067.134084
 Sum of electronic and thermal Energies=             -1067.120167
 Sum of electronic and thermal Enthalpies=           -1067.119223
 Sum of electronic and thermal Free Energies=        -1067.176283

                     E (Thermal)             CV                S
                      KCal/Mol        Cal/Mol-Kelvin    Cal/Mol-Kelvin
 Total                  139.543             54.208            120.094
 Electronic               0.000              0.000              0.000
 Translational            0.889              2.981             42.240
 Rotational               0.889              2.981             32.618
 Vibrational            137.766             48.246             45.235
 Vibration     1          0.594              1.984              5.777
 Vibration     2          0.595              1.977              4.803
 Vibration     3          0.596              1.974              4.493
 Vibration     4          0.599              1.964              3.960
 Vibration     5          0.602              1.955              3.621
 Vibration     6          0.606              1.943              3.317
 Vibration     7          0.652              1.794              1.873
 Vibration     8          0.670              1.742              1.646
 Vibration     9          0.683              1.702              1.504
 Vibration    10          0.690              1.681              1.438
 Vibration    11          0.718              1.599              1.221
 Vibration    12          0.768              1.464              0.953
 Vibration    13          0.774              1.449              0.927
 Vibration    14          0.809              1.360              0.794
 Vibration    15          0.815              1.345              0.774
 Vibration    16          0.826              1.319              0.741
 Vibration    17          0.838              1.291              0.706
 Vibration    18          0.872              1.213              0.618
 Vibration    19          0.895              1.162              0.566
 Vibration    20          0.927              1.095              0.503
 Vibration    21          0.959              1.030              0.449

                           ! Non-Optimized Parameters !
 Normal termination of Gaussian 16 at Thu Dec 10 23:18:37 2020.

 ----------------------------------------------------------------------
 # B3LYP/6-311++G(d,p) empiricaldispersion=gd3bj scf=xqc pop=npa geom=c
 heck
 ----------------------------------------------------------------------

 --------------------------------------
 CID_28780667_JID_6650_Energie_neutraal
 --------------------------------------
 Structure from the checkpoint file:  "JID_6650.chk"
 Charge =  0 Multiplicity = 1

 SCF Done:  E(RB3LYP) =  -1067.56321769     A.U. after   17 cycles
 Normal termination of Gaussian 16 at Thu Dec 10 23:22:29 2020.

 ----------------------------------------------------------------------
 # B3LYP/6-311++G(d,p) empiricaldispersion=gd3bj scf=xqc pop=npa geom=c
 heck
 ----------------------------------------------------------------------

 ------------------------------------
 CID_28780667_JID_6650_Energie_kation
 ------------------------------------
 Structure from the checkpoint file:  "JID_6650.chk"
 Charge =  1 Multiplicity = 2

 SCF Done:  E(UB3LYP) =  -1067.26198673     A.U. after   29 cycles
 Normal termination of Gaussian 16 at Thu Dec 10 23:31:27 2020.
 Gaussian 16:  ES64L-G16RevA.03 25-Dec-2016

 ----------------------------------------------------------------------
 # B3LYP/6-311++G(d,p) empiricaldispersion=gd3bj scf=xqc pop=npa geom=c
 heck
 ----------------------------------------------------------------------

 -----------------------------------
 CID_28780667_JID_6650_Energie_anion
 -----------------------------------
 Structure from the checkpoint file:  "JID_6650.chk"
 Charge = -1 Multiplicity = 2

                         Standard orientation:
 ---------------------------------------------------------------------
 Center     Atomic      Atomic             Coordinates (Angstroms)
 Number     Number       Type             X           Y           Z
 ---------------------------------------------------------------------
      1          6           0       -3.542809   -0.479459   -0.512703
      2          6           0       -2.945999    0.761044   -0.277575
      3          6           0       -1.687051    0.805319    0.325786
      4          6           0       -1.044335   -0.374655    0.705458
      5          6           0       -1.621461   -1.610362    0.406679
      6          6           0       -2.885701   -1.664809   -0.189563
      7          8           0       -0.988813   -2.787498    0.680965
      8          7           0       -1.043673    2.058409    0.561543
      9          6           0        0.150017    2.485471    0.029689
     10          8           0        0.721224    3.476544    0.464234
     11          6           0        0.724480    1.679563   -1.140458
     12          6           0        1.569470    0.523053   -0.662933
     13          6           0        1.480590   -0.749691   -1.154916
     14         16           0        2.469405   -1.866743   -0.263038
     15          6           0        3.029861   -0.591999    0.781644
     16          6           0        2.479095    0.611160    0.445028
     17          1           0       -4.523075   -0.524078   -0.978089
     18          1           0       -3.434734    1.685219   -0.567869
     19          1           0       -0.085058   -0.324722    1.208699
     20          1           0       -3.327095   -2.633198   -0.400160
     21          1           0       -0.065916   -2.599245    0.922359
     22          1           0       -1.387662    2.649826    1.310142
     23          1           0       -0.075268    1.310007   -1.788680
     24          1           0        1.330849    2.392328   -1.708284
     25          1           0        0.839947   -1.109809   -1.948078
     26          1           0        3.744517   -0.807825    1.563986
     27          1           0        2.682510    1.540358    0.965368
 ---------------------------------------------------------------------

 SCF Done:  E(UB3LYP) =  -1067.55560645     A.U. after   33 cycles
 SCF Done:  E(UB3LYP) =  -1067.55560645     a.u. after    1 cycles

 The electronic state is 2-A.
 Alpha  occ. eigenvalues --  -88.75960 -19.04415 -18.97239 -14.22495 -10.15579
 Alpha  occ. eigenvalues --  -10.12392 -10.09565 -10.07687 -10.07152 -10.07094
 Alpha  occ. eigenvalues --  -10.06689 -10.06667 -10.05777 -10.05771 -10.05752
 Alpha  occ. eigenvalues --  -10.05531  -7.84582  -5.80862  -5.80506  -5.80208
 Alpha  occ. eigenvalues --   -0.95460  -0.92471  -0.81773  -0.76594  -0.73341
 Alpha  occ. eigenvalues --   -0.66609  -0.63564  -0.62925  -0.61309  -0.57939
 Alpha  occ. eigenvalues --   -0.52433  -0.50451  -0.46743  -0.45677  -0.44462
 Alpha  occ. eigenvalues --   -0.42684  -0.39949  -0.38803  -0.37914  -0.36151
 Alpha  occ. eigenvalues --   -0.35478  -0.32541  -0.31075  -0.30511  -0.30253
 Alpha  occ. eigenvalues --   -0.29960  -0.29092  -0.28127  -0.26932  -0.26170
 Alpha  occ. eigenvalues --   -0.25860  -0.25342  -0.24360  -0.23151  -0.22677
 Alpha  occ. eigenvalues --   -0.16723  -0.14979  -0.14273  -0.13893  -0.12200
 Alpha  occ. eigenvalues --   -0.11606   0.04974
 Alpha virt. eigenvalues --    0.07131   0.07727   0.08286   0.08712   0.09015
 Alpha virt. eigenvalues --    0.09770   0.10084   0.10279   0.11034   0.11461
 Alpha virt. eigenvalues --    0.11952   0.12335   0.13203   0.13678   0.13863

  Beta  occ. eigenvalues --  -88.75934 -19.04403 -18.97163 -14.22511 -10.15483
  Beta  occ. eigenvalues --  -10.12400 -10.09409 -10.07476 -10.07102 -10.07004
  Beta  occ. eigenvalues --  -10.06673 -10.06609 -10.05781 -10.05753 -10.05714
  Beta  occ. eigenvalues --  -10.05410  -7.84557  -5.80852  -5.80497  -5.80117
  Beta  occ. eigenvalues --   -0.95437  -0.92326  -0.81635  -0.76393  -0.73220
  Beta  occ. eigenvalues --   -0.66459  -0.63394  -0.62770  -0.61079  -0.57719
  Beta  occ. eigenvalues --   -0.52298  -0.50287  -0.46573  -0.45343  -0.44390
  Beta  occ. eigenvalues --   -0.42559  -0.39852  -0.38654  -0.37796  -0.36027
  Beta  occ. eigenvalues --   -0.35389  -0.32445  -0.30914  -0.30390  -0.30083
  Beta  occ. eigenvalues --   -0.29837  -0.28968  -0.27984  -0.26769  -0.26088
  Beta  occ. eigenvalues --   -0.25522  -0.25159  -0.24136  -0.22921  -0.22477
  Beta  occ. eigenvalues --   -0.16355  -0.14663  -0.13982  -0.13350  -0.11682
  Beta  occ. eigenvalues --   -0.10952
  Beta virt. eigenvalues --    0.07406   0.07754   0.08605   0.08934   0.09252
  Beta virt. eigenvalues --    0.09478   0.10045   0.10337   0.10458   0.11163
  Beta virt. eigenvalues --    0.11621   0.12063   0.12305   0.13501   0.13614

 Mulliken charges and spin densities:
               1          2
     1  C    0.340796  -0.438795
     2  C   -0.206575   0.178878
     3  C   -0.319561  -0.448468
     4  C    0.645214   0.091969
     5  C   -0.658421   0.296879
     6  C    0.061090  -0.259487
     7  O   -0.220328   0.005706
     8  N   -0.132058   0.050387
     9  C   -0.196109   0.053623
    10  O   -0.357225   0.044459
    11  C    0.509503  -0.917887
    12  C   -0.250852   0.149043
    13  C   -0.338399   0.672101
    14  S    0.259281  -0.423682
    15  C   -0.681081   0.219459
    16  C    0.124703  -0.085683
    17  H   -0.221974   0.380160
    18  H   -0.347247   0.500127
    19  H    0.253898  -0.057315
    20  H    0.090845   0.052751
    21  H    0.142859   0.117669
    22  H    0.062782   0.249182
    23  H    0.259801  -0.103332
    24  H    0.035238   0.170922
    25  H   -0.025631   0.265723
    26  H   -0.039430   0.257095
    27  H    0.208878  -0.021483
 Sum of Mulliken charges =  -1.00000   1.00000

 Dipole moment (field-independent basis, Debye):
    X=              1.5173    Y=             -2.3350    Z=              0.0802  Tot=              2.7859
 Quadrupole moment (field-independent basis, Debye-Ang):
   XX=           -150.5750   YY=           -148.8410   ZZ=           -116.4257
   XY=             -1.1891   XZ=              1.6151   YZ=             -2.4257

 Summary of Natural Population Analysis:

                                       Natural Population
                Natural  -----------------------------------------------
    Atom  No    Charge         Core      Valence    Rydberg      Total
 -----------------------------------------------------------------------
      C    1   -0.09569      0.99958     2.08517    0.01094     3.09569
      C    2   -0.12007      0.99951     2.11069    0.00987     3.12007
      C    3    0.09252      0.99946     1.89654    0.01148     2.90748
      C    4   -0.13192      0.99947     2.12348    0.00897     3.13192
      C    5    0.15841      0.99938     1.82954    0.01266     2.84159
      C    6   -0.11075      0.99952     2.10199    0.00924     3.11075
      O    7   -0.34753      0.99987     3.34023    0.00742     4.34753
      N    8   -0.32506      0.99964     2.81478    0.01064     3.82506
      C    9    0.36148      0.99968     1.61388    0.02497     2.63852
      O   10   -0.32290      0.99987     3.31731    0.00571     4.32290
      C   11   -0.23688      0.99955     2.22926    0.00808     3.23688
      C   12   -0.03632      0.99946     2.02518    0.01168     3.03632
      C   13   -0.16987      0.99944     2.15988    0.01056     3.16987
      S   14    0.18263      4.99946     2.79393    0.02398     7.81737
      C   15   -0.16123      0.99954     2.15056    0.01114     3.16123
      C   16   -0.13396      0.99948     2.12565    0.00882     3.13396
      H   17    0.09777      0.00000     0.40131    0.00092     0.40223
      H   18    0.10327      0.00000     0.39540    0.00133     0.39673
      H   19    0.10900      0.00000     0.38827    0.00273     0.39100
      H   20    0.10113      0.00000     0.39793    0.00094     0.39887
      H   21    0.23884      0.00000     0.25730    0.00386     0.26116
      H   22    0.19696      0.00000     0.30002    0.00302     0.30304
      H   23    0.11083      0.00000     0.38798    0.00119     0.38917
      H   24    0.11477      0.00000     0.38398    0.00125     0.38523
      H   25    0.10893      0.00000     0.38979    0.00128     0.39107
      H   26    0.10307      0.00000     0.39601    0.00092     0.39693
      H   27    0.11255      0.00000     0.38639    0.00105     0.38745
 =======================================================================
   * Total *   -0.00000     19.99291    40.80245    0.20463    61.00000

 Normal termination of Gaussian 16 at Thu Dec 10 23:42:21 2020.
