 Gaussian 16, Revision A.03,

 -----------------------------------------------------------
 # opt freq B3LYP/6-31G(d) empiricaldispersion=gd3bj scf=xqc
 -----------------------------------------------------------

 -------------------------------
 CID_140553441_JID_8987_neutraal
 -------------------------------
 Symbolic Z-matrix:
 Charge =  0 Multiplicity = 1

 SCF Done:  E(RB3LYP) =  -801.629450379     A.U. after   15 cycles
 SCF Done:  E(RB3LYP) =  -801.636133372     A.U. after   13 cycles
 SCF Done:  E(RB3LYP) =  -801.637069777     A.U. after   13 cycles
 SCF Done:  E(RB3LYP) =  -801.639780036     A.U. after   13 cycles
 SCF Done:  E(RB3LYP) =  -801.641998306     A.U. after   13 cycles
 SCF Done:  E(RB3LYP) =  -801.644268900     A.U. after   13 cycles
 SCF Done:  E(RB3LYP) =  -801.646056288     A.U. after   13 cycles
 SCF Done:  E(RB3LYP) =  -801.647109158     A.U. after   13 cycles
 SCF Done:  E(RB3LYP) =  -801.647570803     A.U. after   12 cycles
 SCF Done:  E(RB3LYP) =  -801.647695277     A.U. after   11 cycles
 SCF Done:  E(RB3LYP) =  -801.647759277     A.U. after    7 cycles
 SCF Done:  E(RB3LYP) =  -801.647759394     A.U. after    7 cycles
 SCF Done:  E(RB3LYP) =  -801.647759470     A.U. after    8 cycles
 SCF Done:  E(RB3LYP) =  -801.647759521     A.U. after    7 cycles
 SCF Done:  E(RB3LYP) =  -801.647759544     A.U. after    7 cycles
 Optimization completed.
    -- Stationary point found.
 Normal termination of Gaussian 16 at Fri Dec 11 23:23:52 2020.

 --------------------------------------------------------------------
 #N Geom=AllCheck Guess=TCheck SCRF=Check GenChk RB3LYP/6-31G(d) Freq
 --------------------------------------------------------------------

 Structure from the checkpoint file:  "JID_8987.chk"
 -------------------------------
 CID_140553441_JID_8987_neutraal
 -------------------------------
 Charge =  0 Multiplicity = 1

 SCF Done:  E(RB3LYP) =  -801.647759545     A.U. after    1 cycles

  Exact polarizability: 212.714   0.280 164.736  20.256  -5.112 123.568
 Approx polarizability: 279.951  -3.046 273.304  39.612 -12.093 190.543

                      1                      2                      3
                      A                      A                      A
 Frequencies --     17.5473                48.4514                80.8881
 Red. masses --      4.3657                 3.5593                 3.3417
 Frc consts  --      0.0008                 0.0049                 0.0129
 IR Inten    --      0.2462                 0.7185                 0.7950

                      4                      5                      6
                      A                      A                      A
 Frequencies --    102.9317               117.8791               141.4576
 Red. masses --      3.4990                 5.1751                 4.5184
 Frc consts  --      0.0218                 0.0424                 0.0533
 IR Inten    --      0.6709                 3.5369                 4.2955

                      7                      8                      9
                      A                      A                      A
 Frequencies --    178.9717               191.2043               196.8118
 Red. masses --      3.6258                 2.9421                 3.9341
 Frc consts  --      0.0684                 0.0634                 0.0898
 IR Inten    --      0.3377                 0.5999                 4.3642

                     10                     11                     12
                      A                      A                      A
 Frequencies --    236.9552               257.5665               284.8534
 Red. masses --      1.8708                 2.4591                 3.9683
 Frc consts  --      0.0619                 0.0961                 0.1897
 IR Inten    --      1.4941                 8.7435                 1.7938

                     13                     14                     15
                      A                      A                      A
 Frequencies --    335.6309               363.8721               371.2350
 Red. masses --      5.7663                 2.8282                 3.8217
 Frc consts  --      0.3827                 0.2206                 0.3103
 IR Inten    --      3.2615                 7.1397                 4.9929

                     16                     17                     18
                      A                      A                      A
 Frequencies --    378.5685               406.3434               421.2300
 Red. masses --      1.6621                 4.0706                 4.3742
 Frc consts  --      0.1403                 0.3960                 0.4573
 IR Inten    --      2.8399                 5.8590                 1.3788

                     19                     20                     21
                      A                      A                      A
 Frequencies --    461.4385               490.8888               514.2027
 Red. masses --      3.0278                 3.5951                 2.3714
 Frc consts  --      0.3798                 0.5104                 0.3694
 IR Inten    --      1.2332                27.2731                 2.0100

                     22                     23                     24
                      A                      A                      A
 Frequencies --    537.3890               576.9836               593.5408
 Red. masses --      4.2821                 3.1726                 3.8019
 Frc consts  --      0.7286                 0.6223                 0.7891
 IR Inten    --     35.6013                 9.7836                 7.9270

                     25                     26                     27
                      A                      A                      A
 Frequencies --    614.6085               635.3150               656.2565
 Red. masses --      1.8127                 2.7121                 2.5139
 Frc consts  --      0.4034                 0.6450                 0.6379
 IR Inten    --     67.1229                73.7689                23.7064

                     28                     29                     30
                      A                      A                      A
 Frequencies --    709.8735               730.6978               771.7532
 Red. masses --      1.6719                 2.6174                 2.2970
 Frc consts  --      0.4964                 0.8234                 0.8061
 IR Inten    --     57.1790               119.3340                54.8588

                     31                     32                     33
                      A                      A                      A
 Frequencies --    804.3775               828.6282               832.6801
 Red. masses --      5.4644                 2.7358                 1.4677
 Frc consts  --      2.0831                 1.1067                 0.5996
 IR Inten    --     52.8657                32.4396                 0.8418

                     34                     35                     36
                      A                      A                      A
 Frequencies --    858.5794               876.1133               881.1771
 Red. masses --      3.0819                 2.2424                 1.5044
 Frc consts  --      1.3385                 1.0141                 0.6882
 IR Inten    --     29.8563                17.2197                12.0419

                     37                     38                     39
                      A                      A                      A
 Frequencies --    904.1162               913.3597               925.2824
 Red. masses --      3.1219                 2.2902                 2.2062
 Frc consts  --      1.5036                 1.1257                 1.1128
 IR Inten    --     62.7714                 7.4274                 2.7546

                     40                     41                     42
                      A                      A                      A
 Frequencies --    954.5102               974.5461               980.3629
 Red. masses --      2.5440                 2.0901                 1.2639
 Frc consts  --      1.3656                 1.1695                 0.7157
 IR Inten    --      3.8822                 2.6084                 3.6939

                     43                     44                     45
                      A                      A                      A
 Frequencies --    995.8417              1026.0856              1032.4938
 Red. masses --      1.2853                 1.6382                 2.1027
 Frc consts  --      0.7510                 1.0162                 1.3207
 IR Inten    --      0.5759                14.6058                 4.8170

                     46                     47                     48
                      A                      A                      A
 Frequencies --   1053.2142              1057.8571              1086.4659
 Red. masses --      4.2301                 2.2388                 1.5310
 Frc consts  --      2.7646                 1.4761                 1.0648
 IR Inten    --      9.0458                 6.6882                 0.5738

                     49                     50                     51
                      A                      A                      A
 Frequencies --   1095.9749              1117.9957              1138.4392
 Red. masses --      2.0658                 2.1692                 2.0516
 Frc consts  --      1.4620                 1.5975                 1.5666
 IR Inten    --     26.8078                 8.8032                 4.7982

                     52                     53                     54
                      A                      A                      A
 Frequencies --   1148.2331              1151.2692              1185.7218
 Red. masses --      2.2982                 2.1192                 1.3455
 Frc consts  --      1.7853                 1.6549                 1.1146
 IR Inten    --      8.1022                 4.5828                 2.2583

                     55                     56                     57
                      A                      A                      A
 Frequencies --   1187.7271              1204.4084              1223.1381
 Red. masses --      1.2281                 1.5526                 1.3470
 Frc consts  --      1.0207                 1.3270                 1.1873
 IR Inten    --      5.8416                24.9339                 1.4412

                     58                     59                     60
                      A                      A                      A
 Frequencies --   1224.5756              1231.1475              1287.5027
 Red. masses --      1.3171                 2.0462                 2.3334
 Frc consts  --      1.1637                 1.8274                 2.2789
 IR Inten    --      2.7755                 1.4637                 6.9737

                     61                     62                     63
                      A                      A                      A
 Frequencies --   1291.2827              1302.6813              1311.5034
 Red. masses --      1.3505                 1.2524                 1.4628
 Frc consts  --      1.3267                 1.2522                 1.4825
 IR Inten    --      4.0899                 1.0408                12.9959

                     64                     65                     66
                      A                      A                      A
 Frequencies --   1312.2327              1340.4398              1352.2939
 Red. masses --      1.2676                 1.6678                 1.6519
 Frc consts  --      1.2861                 1.7656                 1.7798
 IR Inten    --     10.2915                79.7959                83.6679

                     67                     68                     69
                      A                      A                      A
 Frequencies --   1368.8273              1370.0885              1374.1999
 Red. masses --      2.1949                 1.3731                 1.7305
 Frc consts  --      2.4231                 1.5187                 1.9254
 IR Inten    --    218.1014                41.0854                 5.6035

                     70                     71                     72
                      A                      A                      A
 Frequencies --   1399.4689              1400.7501              1404.2030
 Red. masses --      1.4666                 1.3946                 1.4836
 Frc consts  --      1.6924                 1.6122                 1.7235
 IR Inten    --      2.5158                 3.2906                 2.3267

                     73                     74                     75
                      A                      A                      A
 Frequencies --   1405.1492              1417.1526              1433.0001
 Red. masses --      1.6076                 1.9947                 1.3821
 Frc consts  --      1.8701                 2.3602                 1.6721
 IR Inten    --     20.5021                67.6457                 6.0812

                     76                     77                     78
                      A                      A                      A
 Frequencies --   1438.0385              1476.7465              1500.1877
 Red. masses --      1.7880                 1.3011                 2.1588
 Frc consts  --      2.1785                 1.6718                 2.8625
 IR Inten    --     36.2199                12.8136                11.9812

                     79                     80                     81
                      A                      A                      A
 Frequencies --   1505.4371              1508.7975              1513.6960
 Red. masses --      1.0982                 1.1036                 1.0885
 Frc consts  --      1.4664                 1.4802                 1.4695
 IR Inten    --      1.6118                 1.2303                 5.7793

                     82                     83                     84
                      A                      A                      A
 Frequencies --   1521.9465              1525.9875              1534.0939
 Red. masses --      1.1056                 1.0835                 1.1126
 Frc consts  --      1.5088                 1.4865                 1.5428
 IR Inten    --      4.3847                 0.8056                 1.6122

                     85                     86                     87
                      A                      A                      A
 Frequencies --   1540.5850              1646.2684              1680.1970
 Red. masses --      1.1059                 5.4202                 5.6474
 Frc consts  --      1.5465                 8.6551                 9.3933
 IR Inten    --      2.9496               291.0358               140.2786

                     88                     89                     90
                      A                      A                      A
 Frequencies --   1714.4195              2975.2323              2985.1317
 Red. masses --      7.0680                 1.0707                 1.0727
 Frc consts  --     12.2399                 5.5841                 5.6317
 IR Inten    --    299.0267                41.6248                22.1093

                     91                     92                     93
                      A                      A                      A
 Frequencies --   2986.6107              2998.1906              3013.0871
 Red. masses --      1.0703                 1.0770                 1.0748
 Frc consts  --      5.6250                 5.7041                 5.7489
 IR Inten    --     43.0442                 2.6889                75.4940

                     94                     95                     96
                      A                      A                      A
 Frequencies --   3026.5716              3043.7338              3045.6163
 Red. masses --      1.0668                 1.0603                 1.0610
 Frc consts  --      5.7577                 5.7875                 5.7984
 IR Inten    --     24.3908                29.4253                31.3241

                     97                     98                     99
                      A                      A                      A
 Frequencies --   3079.1504              3085.9351              3086.7430
 Red. masses --      1.0946                 1.1036                 1.0904
 Frc consts  --      6.1144                 6.1923                 6.1211
 IR Inten    --     65.1350                38.5878                30.9577

                    100                    101                    102
                      A                      A                      A
 Frequencies --   3092.0704              3099.4204              3111.5500
 Red. masses --      1.1039                 1.0938                 1.0914
 Frc consts  --      6.2181                 6.1908                 6.2259
 IR Inten    --     53.6305                29.6577                29.0046

                    103                    104                    105
                      A                      A                      A
 Frequencies --   3135.5049              3194.7476              3232.1811
 Red. masses --      1.0941                 1.0883                 1.0918
 Frc consts  --      6.3375                 6.5444                 6.7201
 IR Inten    --     29.3856                 7.9835                17.5242

                    106                    107                    108
                      A                      A                      A
 Frequencies --   3456.3826              3508.5066              3547.6239
 Red. masses --      1.0764                 1.0753                 1.0781
 Frc consts  --      7.5765                 7.7986                 7.9944
 IR Inten    --      1.8374                11.6262                99.6454

 - Thermochemistry -
 -------------------
 Temperature   298.150 Kelvin.  Pressure   1.00000 Atm.
 Atom     1 has atomic number  6 and mass  12.00000

 Molecular mass:   248.16371 amu.
 Principal axes and moments of inertia in atomic units:
                           1         2         3
     Eigenvalues --  2229.188597026.165137921.48782
           X            1.00000   0.00183   0.00100
           Y           -0.00182   0.99997  -0.00792
           Z           -0.00101   0.00792   0.99997
 This molecule is an asymmetric top.
 Rotational symmetry number  1.
 Warning -- assumption of classical behavior for rotation
           may cause significant error
 Rotational temperatures (Kelvin)      0.03885     0.01233     0.01093
 Rotational constants (GHZ):           0.80960     0.25686     0.22783
 Zero-point vibrational energy     872680.8 (Joules/Mol)
                                  208.57572 (Kcal/Mol)
 Warning -- explicit consideration of  25 degrees of freedom as
           vibrations may cause significant error
 Vibrational temperatures:     25.25    69.71   116.38   148.10   169.60
          (Kelvin)            203.53   257.50   275.10   283.17   340.93
                              370.58   409.84   482.90   523.53   534.12
                              544.68   584.64   606.06   663.91   706.28
                              739.82   773.18   830.15   853.97   884.28
                              914.08   944.21  1021.35  1051.31  1110.38
                             1157.32  1192.21  1198.04  1235.30  1260.53
                             1267.82  1300.82  1314.12  1331.28  1373.33
                             1402.15  1410.52  1432.79  1476.31  1485.53
                             1515.34  1522.02  1563.18  1576.86  1608.55
                             1637.96  1652.05  1656.42  1705.99  1708.87
                             1732.88  1759.82  1761.89  1771.35  1852.43
                             1857.87  1874.27  1886.96  1888.01  1928.59
                             1945.65  1969.44  1971.25  1977.17  2013.52
                             2015.37  2020.33  2021.70  2038.97  2061.77
                             2069.02  2124.71  2158.44  2165.99  2170.82
                             2177.87  2189.74  2195.56  2207.22  2216.56
                             2368.61  2417.43  2466.67  4280.70  4294.94
                             4297.07  4313.73  4335.16  4354.56  4379.25
                             4381.96  4430.21  4439.97  4441.13  4448.80
                             4459.37  4476.83  4511.29  4596.53  4650.39
                             4972.96  5047.96  5104.24

 Zero-point correction=                           0.332387 (Hartree/Particle)
 Thermal correction to Energy=                    0.348188
 Thermal correction to Enthalpy=                  0.349132
 Thermal correction to Gibbs Free Energy=         0.288613
 Sum of electronic and zero-point Energies=           -801.315373
 Sum of electronic and thermal Energies=              -801.299572
 Sum of electronic and thermal Enthalpies=            -801.298628
 Sum of electronic and thermal Free Energies=         -801.359147

                     E (Thermal)             CV                S
                      KCal/Mol        Cal/Mol-Kelvin    Cal/Mol-Kelvin
 Total                  218.491             63.268            127.373
 Electronic               0.000              0.000              0.000
 Translational            0.889              2.981             42.427
 Rotational               0.889              2.981             33.184
 Vibrational            216.714             57.306             51.762
 Vibration     1          0.593              1.986              6.894
 Vibration     2          0.595              1.978              4.880
 Vibration     3          0.600              1.962              3.869
 Vibration     4          0.605              1.947              3.398
 Vibration     5          0.608              1.934              3.135
 Vibration     6          0.615              1.912              2.784
 Vibration     7          0.629              1.868              2.339
 Vibration     8          0.634              1.852              2.216
 Vibration     9          0.636              1.844              2.163
 Vibration    10          0.656              1.784              1.826
 Vibration    11          0.667              1.750              1.678
 Vibration    12          0.683              1.702              1.504
 Vibration    13          0.717              1.604              1.233
 Vibration    14          0.737              1.547              1.106
 Vibration    15          0.743              1.531              1.075
 Vibration    16          0.749              1.516              1.045
 Vibration    17          0.771              1.456              0.940
 Vibration    18          0.784              1.424              0.888
 Vibration    19          0.819              1.336              0.762
 Vibration    20          0.847              1.270              0.681
 Vibration    21          0.869              1.219              0.624
 Vibration    22          0.892              1.167              0.571
 Vibration    23          0.933              1.081              0.491
 Vibration    24          0.951              1.046              0.461
 Vibration    25          0.974              1.001              0.425

 Optimization completed.
    -- Stationary point found.
 Normal termination of Gaussian 16 at Fri Dec 11 23:41:38 2020.

 ----------------------------------------------------------------------
 # B3LYP/6-311++G(d,p) empiricaldispersion=gd3bj scf=xqc pop=npa geom=c
 heck
 ----------------------------------------------------------------------

 ---------------------------------------
 CID_140553441_JID_8987_Energie_neutraal
 ---------------------------------------
 Structure from the checkpoint file:  "JID_8987.chk"
 Charge =  0 Multiplicity = 1

 SCF Done:  E(RB3LYP) =  -801.873195750     A.U. after   16 cycles
 Normal termination of Gaussian 16 at Fri Dec 11 23:49:03 2020.

 ----------------------------------------------------------------------
 # B3LYP/6-311++G(d,p) empiricaldispersion=gd3bj scf=xqc pop=npa geom=c
 heck
 ----------------------------------------------------------------------

 -------------------------------------
 CID_140553441_JID_8987_Energie_kation
 -------------------------------------
 Structure from the checkpoint file:  "JID_8987.chk"
 Charge =  1 Multiplicity = 2

 SCF Done:  E(UB3LYP) =  -801.623114975     A.U. after   23 cycles
 Normal termination of Gaussian 16 at Sat Dec 12 00:03:28 2020.
 Gaussian 16:  ES64L-G16RevA.03 25-Dec-2016

 ----------------------------------------------------------------------
 # B3LYP/6-311++G(d,p) empiricaldispersion=gd3bj scf=xqc pop=npa geom=c
 heck
 ----------------------------------------------------------------------

 ------------------------------------
 CID_140553441_JID_8987_Energie_anion
 ------------------------------------
 Structure from the checkpoint file:  "JID_8987.chk"
 Charge = -1 Multiplicity = 2

                         Standard orientation:
 ---------------------------------------------------------------------
 Center     Atomic      Atomic             Coordinates (Angstroms)
 Number     Number       Type             X           Y           Z
 ---------------------------------------------------------------------
      1          6           0        4.024162   -1.148570   -0.920078
      2          6           0        4.298810   -0.447263    0.416184
      3          6           0        2.982740   -0.023988    1.075686
      4          7           0        2.234286    0.819671    0.150716
      5          6           0        1.887908    0.182767   -1.118651
      6          6           0        3.173365   -0.253349   -1.829587
      7          7           0        1.267552    1.669985    0.734276
      8          6           0       -0.115874    1.576040    0.535019
      9          8           0       -0.731182    2.635331    0.315736
     10          6           0       -0.801434    0.293248    0.605802
     11          6           0       -2.084068    0.222155    0.112760
     12          6           0       -2.918452   -1.027140    0.245298
     13          6           0       -2.057287   -2.281215    0.099513
     14          6           0       -0.848767   -2.140728    1.006404
     15          6           0       -0.285696   -0.935293    1.212124
     16          6           0       -4.042827   -0.751072   -0.756999
     17          7           0       -4.192054    0.727527   -0.677538
     18          7           0       -2.818879    1.164700   -0.509006
     19          1           0        4.964331   -1.417891   -1.415947
     20          1           0        3.483901   -2.087484   -0.729561
     21          1           0        4.851454   -1.108099    1.095200
     22          1           0        4.915035    0.444557    0.245434
     23          1           0        2.429488   -0.934128    1.364939
     24          1           0        3.162325    0.558459    1.983475
     25          1           0        1.341662    0.913821   -1.722920
     26          1           0        1.230575   -0.692170   -0.979023
     27          1           0        3.747044    0.640989   -2.104039
     28          1           0        2.914508   -0.778288   -2.757534
     29          1           0        1.528875    2.644502    0.603851
     30          1           0       -3.333698   -1.003108    1.266194
     31          1           0       -1.738613   -2.388218   -0.951132
     32          1           0       -2.636196   -3.177483    0.347340
     33          1           0       -0.444790   -3.028293    1.483949
     34          1           0        0.566148   -0.845085    1.875529
     35          1           0       -4.990796   -1.225221   -0.494833
     36          1           0       -3.737123   -1.082668   -1.761731
     37          1           0       -4.477641    1.079054   -1.592339
     38          1           0       -2.638851    2.137365   -0.272725
 ---------------------------------------------------------------------

 SCF Done:  E(UB3LYP) =  -801.862790363     A.U. after   33 cycles
 SCF Done:  E(UB3LYP) =  -801.862790363     a.u. after    1 cycles

 The electronic state is 2-A.
 Alpha  occ. eigenvalues --  -18.97712 -14.25209 -14.24539 -14.24374 -14.24060
 Alpha  occ. eigenvalues --  -10.15629 -10.10844 -10.10256 -10.10184 -10.09780
 Alpha  occ. eigenvalues --  -10.08370 -10.07969 -10.07831 -10.07643 -10.07155
 Alpha  occ. eigenvalues --  -10.06449 -10.05596 -10.05430  -0.93166  -0.90908
 Alpha  occ. eigenvalues --   -0.87853  -0.75455  -0.74832  -0.72379  -0.68111
 Alpha  occ. eigenvalues --   -0.66712  -0.66168  -0.63542  -0.56229  -0.55028
 Alpha  occ. eigenvalues --   -0.53873  -0.52558  -0.49788  -0.48383  -0.46059
 Alpha  occ. eigenvalues --   -0.44059  -0.43487  -0.40453  -0.39300  -0.38203
 Alpha  occ. eigenvalues --   -0.37522  -0.37217  -0.34677  -0.34197  -0.33647
 Alpha  occ. eigenvalues --   -0.32999  -0.32923  -0.32255  -0.31001  -0.30586
 Alpha  occ. eigenvalues --   -0.30204  -0.29236  -0.28144  -0.26965  -0.26159
 Alpha  occ. eigenvalues --   -0.25728  -0.24593  -0.24021  -0.23546  -0.23305
 Alpha  occ. eigenvalues --   -0.22845  -0.19271  -0.18256  -0.14849  -0.14497
 Alpha  occ. eigenvalues --   -0.12349  -0.08159   0.04253
 Alpha virt. eigenvalues --    0.05588   0.06555   0.07138   0.07432   0.07987
 Alpha virt. eigenvalues --    0.08110   0.09123   0.09497   0.09924   0.10315
 Alpha virt. eigenvalues --    0.10565   0.10881   0.11089   0.11338   0.12568

  Beta  occ. eigenvalues --  -18.97673 -14.25103 -14.24516 -14.24364 -14.24042
  Beta  occ. eigenvalues --  -10.15576 -10.10665 -10.10217 -10.10184 -10.09778
  Beta  occ. eigenvalues --  -10.08378 -10.07962 -10.07817 -10.07633 -10.07127
  Beta  occ. eigenvalues --  -10.06434 -10.05573 -10.05458  -0.93091  -0.90776
  Beta  occ. eigenvalues --   -0.87808  -0.75431  -0.74695  -0.72285  -0.68077
  Beta  occ. eigenvalues --   -0.66701  -0.66101  -0.63443  -0.56162  -0.54980
  Beta  occ. eigenvalues --   -0.53849  -0.52390  -0.49706  -0.48277  -0.46005
  Beta  occ. eigenvalues --   -0.43979  -0.43426  -0.40364  -0.39215  -0.38139
  Beta  occ. eigenvalues --   -0.37502  -0.37196  -0.34617  -0.34146  -0.33581
  Beta  occ. eigenvalues --   -0.32935  -0.32877  -0.32180  -0.30880  -0.30511
  Beta  occ. eigenvalues --   -0.30144  -0.29095  -0.28053  -0.26716  -0.26125
  Beta  occ. eigenvalues --   -0.25541  -0.24557  -0.23942  -0.23498  -0.23272
  Beta  occ. eigenvalues --   -0.22796  -0.19110  -0.18173  -0.14738  -0.14250
  Beta  occ. eigenvalues --   -0.12263  -0.07858
  Beta virt. eigenvalues --    0.05960   0.06946   0.07339   0.07560   0.07791
  Beta virt. eigenvalues --    0.08319   0.08848   0.09368   0.09890   0.10103
  Beta virt. eigenvalues --    0.10375   0.10716   0.11028   0.11314   0.11617

 Mulliken charges and spin densities:
               1          2
     1  C   -0.115062  -0.165781
     2  C    0.133907  -0.592505
     3  C   -0.364763   0.190422
     4  N    0.253049   0.013562
     5  C   -0.413415   0.095859
     6  C   -0.138892  -0.298659
     7  N   -0.361334   0.006065
     8  C    0.211392  -0.424750
     9  O   -0.381224   0.010134
    10  C    0.743348  -0.464662
    11  C   -0.033743  -0.370875
    12  C   -1.518880   2.087433
    13  C    0.591786  -1.067152
    14  C   -0.652742   0.294126
    15  C   -0.299365   0.184082
    16  C    1.732174  -2.238694
    17  N   -0.212244   0.106274
    18  N   -0.135753   0.055119
    19  H   -0.235153   0.410147
    20  H    0.051399   0.074638
    21  H   -0.027023   0.184148
    22  H    0.098690   0.029337
    23  H    0.076152  -0.026886
    24  H    0.148523   0.030139
    25  H    0.111683   0.085214
    26  H    0.462819  -0.308747
    27  H    0.055395   0.079386
    28  H   -0.132659   0.291248
    29  H    0.312619  -0.002199
    30  H   -0.031931   0.242444
    31  H   -0.125113   0.253907
    32  H   -0.269722   0.439836
    33  H   -0.202615   0.367695
    34  H    0.106128   0.053459
    35  H   -0.654883   0.864194
    36  H   -0.055550   0.207232
    37  H    0.012411   0.242406
    38  H    0.260593   0.062406
 Sum of Mulliken charges =  -1.00000   1.00000

 Dipole moment (field-independent basis, Debye):
    X=              5.4512    Y=              2.6396    Z=              0.9181  Tot=              6.1259
 Quadrupole moment (field-independent basis, Debye-Ang):
   XX=           -199.2772   YY=           -154.1077   ZZ=           -138.3704
   XY=             -5.1929   XZ=              4.4481   YZ=             -2.5706

 Summary of Natural Population Analysis:

                                       Natural Population
                Natural  -----------------------------------------------
    Atom  No    Charge         Core      Valence    Rydberg      Total
 -----------------------------------------------------------------------
      C    1   -0.19220      0.99963     2.18420    0.00838     3.19220
      C    2   -0.19464      0.99963     2.18495    0.01006     3.19464
      C    3   -0.08135      0.99961     2.07243    0.00932     3.08135
      N    4   -0.19298      0.99970     2.68019    0.01310     3.69298
      C    5   -0.09153      0.99961     2.08139    0.01053     3.09153
      C    6   -0.19282      0.99963     2.18382    0.00938     3.19282
      N    7   -0.23569      0.99966     2.72368    0.01235     3.73569
      C    8    0.33351      0.99960     1.64568    0.02122     2.66649
      O    9   -0.35063      0.99988     3.34468    0.00608     4.35063
      C   10   -0.16054      0.99939     2.15092    0.01023     3.16054
      C   11    0.18774      0.99950     1.79952    0.01324     2.81226
      C   12   -0.12710      0.99956     2.11651    0.01103     3.12710
      C   13   -0.20200      0.99961     2.19254    0.00985     3.20200
      C   14   -0.11008      0.99955     2.09940    0.01113     3.11008
      C   15   -0.09125      0.99952     2.08251    0.00923     3.09125
      C   16   -0.08605      0.99961     2.07565    0.01078     3.08605
      N   17   -0.24053      0.99977     2.72862    0.01215     3.74053
      N   18   -0.19844      0.99961     2.68814    0.01069     3.69844
      H   19    0.09852      0.00000     0.40035    0.00112     0.40148
      H   20    0.09545      0.00000     0.40312    0.00143     0.40455
      H   21    0.09758      0.00000     0.40160    0.00082     0.40242
      H   22    0.09432      0.00000     0.40424    0.00144     0.40568
      H   23    0.08187      0.00000     0.41642    0.00171     0.41813
      H   24    0.09936      0.00000     0.39951    0.00112     0.40064
      H   25    0.10174      0.00000     0.39687    0.00139     0.39826
      H   26    0.09209      0.00000     0.40582    0.00209     0.40791
      H   27    0.09381      0.00000     0.40477    0.00142     0.40619
      H   28    0.09973      0.00000     0.39942    0.00085     0.40027
      H   29    0.18309      0.00000     0.31460    0.00231     0.31691
      H   30    0.11237      0.00000     0.38603    0.00160     0.38763
      H   31    0.09927      0.00000     0.39895    0.00177     0.40073
      H   32    0.10518      0.00000     0.39290    0.00192     0.39482
      H   33    0.09512      0.00000     0.40390    0.00098     0.40488
      H   34    0.09845      0.00000     0.39967    0.00189     0.40155
      H   35    0.10400      0.00000     0.39310    0.00291     0.39600
      H   36    0.08639      0.00000     0.41173    0.00188     0.41361
      H   37    0.17404      0.00000     0.32346    0.00250     0.32596
      H   38    0.21423      0.00000     0.28384    0.00193     0.28577
 =======================================================================
   * Total *   -0.00000     17.99304    48.77515    0.23181    67.00000

 Normal termination of Gaussian 16 at Sat Dec 12 00:24:25 2020.
