 Gaussian 16, Revision A.03,

 -----------------------------------------------------------
 # opt freq B3LYP/6-31G(d) empiricaldispersion=gd3bj scf=xqc
 -----------------------------------------------------------

 ------------------------------
 CID_91495976_JID_1905_neutraal
 ------------------------------
 Symbolic Z-matrix:
 Charge =  0 Multiplicity = 1

 SCF Done:  E(RB3LYP) =  -447.286197188     A.U. after   13 cycles
 SCF Done:  E(RB3LYP) =  -447.287976829     A.U. after   11 cycles
 SCF Done:  E(RB3LYP) =  -447.287581461     A.U. after   13 cycles
 SCF Done:  E(RB3LYP) =  -447.288197140     A.U. after   11 cycles
 SCF Done:  E(RB3LYP) =  -447.288815926     A.U. after   13 cycles
 SCF Done:  E(RB3LYP) =  -447.288633809     A.U. after   13 cycles
 SCF Done:  E(RB3LYP) =  -447.289410332     A.U. after   13 cycles
 SCF Done:  E(RB3LYP) =  -447.289509770     A.U. after   10 cycles
 SCF Done:  E(RB3LYP) =  -447.289766624     A.U. after   11 cycles
 SCF Done:  E(RB3LYP) =  -447.290001061     A.U. after   11 cycles
 SCF Done:  E(RB3LYP) =  -447.291814736     A.U. after    6 cycles
 SCF Done:  E(RB3LYP) =  -447.291814855     A.U. after    7 cycles
 SCF Done:  E(RB3LYP) =  -447.291814986     A.U. after    7 cycles
 SCF Done:  E(RB3LYP) =  -447.291815091     A.U. after    7 cycles
 SCF Done:  E(RB3LYP) =  -447.291815127     A.U. after    7 cycles
 Optimization completed.
    -- Stationary point found.
 Normal termination of Gaussian 16 at Tue Dec  8 22:35:33 2020.

 --------------------------------------------------------------------
 #N Geom=AllCheck Guess=TCheck SCRF=Check GenChk RB3LYP/6-31G(d) Freq
 --------------------------------------------------------------------

 Structure from the checkpoint file:  "JID_1905.chk"
 ------------------------------
 CID_91495976_JID_1905_neutraal
 ------------------------------
 Charge =  0 Multiplicity = 1

 SCF Done:  E(RB3LYP) =  -447.291815127     A.U. after    1 cycles

  Exact polarizability: 102.319 -15.775 109.403 -12.468  -8.581 109.568
 Approx polarizability: 139.293 -32.329 166.928 -22.809 -16.290 174.767

                      1                      2                      3
                      A                      A                      A
 Frequencies --     16.9295                33.0148                37.2994
 Red. masses --      3.5656                 3.1888                 2.6597
 Frc consts  --      0.0006                 0.0020                 0.0022
 IR Inten    --      0.0283                 0.1864                 0.0874

                      4                      5                      6
                      A                      A                      A
 Frequencies --     47.9391                51.8849                68.8658
 Red. masses --      3.2905                 3.1861                 2.6951
 Frc consts  --      0.0045                 0.0051                 0.0075
 IR Inten    --      0.0630                 0.0145                 0.3892

                      7                      8                      9
                      A                      A                      A
 Frequencies --     73.4765                77.8575                85.3975
 Red. masses --      3.7869                 2.8383                 2.2375
 Frc consts  --      0.0120                 0.0101                 0.0096
 IR Inten    --      0.4223                 0.4879                 3.2293

                     10                     11                     12
                      A                      A                      A
 Frequencies --     98.4412               109.0019               117.5207
 Red. masses --      1.3368                 2.0058                 2.1740
 Frc consts  --      0.0076                 0.0140                 0.0177
 IR Inten    --      9.8660                 0.6611                 2.5313

                     13                     14                     15
                      A                      A                      A
 Frequencies --    243.5464               288.0278               342.9134
 Red. masses --      1.0364                 1.1364                 1.0333
 Frc consts  --      0.0362                 0.0555                 0.0716
 IR Inten    --      0.1460                 0.5616                39.7994

                     16                     17                     18
                      A                      A                      A
 Frequencies --    372.4364               413.7059               415.0023
 Red. masses --      2.0667                 2.9535                 2.9534
 Frc consts  --      0.1689                 0.2978                 0.2997
 IR Inten    --      0.5248                 0.0096                 0.0083

                     19                     20                     21
                      A                      A                      A
 Frequencies --    623.0794               623.1749               693.8059
 Red. masses --      6.0769                 6.0773                 1.0864
 Frc consts  --      1.3900                 1.3905                 0.3081
 IR Inten    --      0.0014                 0.0017                96.5646

                     22                     23                     24
                      A                      A                      A
 Frequencies --    716.6936               761.9033               864.3602
 Red. masses --      3.9217                 1.0774                 1.2497
 Frc consts  --      1.1868                 0.3685                 0.5501
 IR Inten    --      0.0027                 8.5319                 0.2329

                     25                     26                     27
                      A                      A                      A
 Frequencies --    864.9302               881.9745               887.5064
 Red. masses --      1.2499                 1.9896                 1.4332
 Frc consts  --      0.5509                 0.9118                 0.6651
 IR Inten    --      0.9548                64.9873               156.5882

                     28                     29                     30
                      A                      A                      A
 Frequencies --    922.5737               943.1999               969.8630
 Red. masses --      1.1031                 1.1988                 1.3565
 Frc consts  --      0.5532                 0.6284                 0.7518
 IR Inten    --      3.2780                 0.5130                 0.0642

                     31                     32                     33
                      A                      A                      A
 Frequencies --    971.9586               990.2599              1010.1928
 Red. masses --      1.3566                 1.0521                 1.2191
 Frc consts  --      0.7551                 0.6079                 0.7330
 IR Inten    --      0.0384                 0.5347                 0.0218

                     34                     35                     36
                      A                      A                      A
 Frequencies --   1022.5201              1024.3249              1069.3826
 Red. masses --      6.5437                 6.0222                 2.7471
 Frc consts  --      4.0311                 3.7229                 1.8509
 IR Inten    --      0.0139                 0.5260                 4.0486

                     37                     38                     39
                      A                      A                      A
 Frequencies --   1070.2916              1070.5750              1072.2617
 Red. masses --      1.7063                 1.7191                 2.7696
 Frc consts  --      1.1516                 1.1609                 1.8761
 IR Inten    --      3.6034                 3.3091                 3.1843

                     40                     41                     42
                      A                      A                      A
 Frequencies --   1187.2910              1194.2178              1196.2548
 Red. masses --      1.0783                 1.5908                 1.5208
 Frc consts  --      0.8956                 1.3367                 1.2823
 IR Inten    --      0.2279                 7.0220                 8.8507

                     43                     44                     45
                      A                      A                      A
 Frequencies --   1209.0157              1209.1071              1230.9843
 Red. masses --      1.1381                 1.1376                 1.6558
 Frc consts  --      0.9802                 0.9799                 1.4783
 IR Inten    --      0.2019                 0.0656                 0.5771

                     46                     47                     48
                      A                      A                      A
 Frequencies --   1332.8535              1360.4117              1373.0781
 Red. masses --      1.1246                 6.8350                 1.3387
 Frc consts  --      1.1771                 7.4530                 1.4871
 IR Inten    --      0.5800                 0.0290                 0.3874

                     49                     50                     51
                      A                      A                      A
 Frequencies --   1387.2180              1387.4543              1435.0994
 Red. masses --      1.3967                 1.2509                 1.2912
 Frc consts  --      1.5836                 1.4188                 1.5668
 IR Inten    --      2.0068                 0.0700                 2.6759

                     52                     53                     54
                      A                      A                      A
 Frequencies --   1451.1527              1484.6516              1517.8371
 Red. masses --      1.2292                 1.1624                 1.0495
 Frc consts  --      1.5252                 1.5095                 1.4246
 IR Inten    --      2.4959                 1.7816                 4.3298

                     55                     56                     57
                      A                      A                      A
 Frequencies --   1519.6515              1527.3847              1529.4826
 Red. masses --      1.0391                 1.0782                 1.0961
 Frc consts  --      1.4138                 1.4820                 1.5107
 IR Inten    --      0.6599                 2.6367                 3.6376

                     58                     59                     60
                      A                      A                      A
 Frequencies --   1532.0589              1532.4604              1537.4751
 Red. masses --      1.9251                 1.8374                 1.0496
 Frc consts  --      2.6624                 2.5423                 1.4619
 IR Inten    --      7.7009                 4.8251                 7.1037

                     61                     62                     63
                      A                      A                      A
 Frequencies --   1544.0588              1548.6220              1657.0129
 Red. masses --      1.0798                 1.0394                 5.3393
 Frc consts  --      1.5168                 1.4687                 8.6374
 IR Inten    --     11.9893                 6.6012                 0.0263

                     64                     65                     66
                      A                      A                      A
 Frequencies --   1657.1463              1704.9264              3004.6654
 Red. masses --      5.3421                 1.0828                 1.0502
 Frc consts  --      8.6435                 1.8545                 5.5860
 IR Inten    --      0.0295                23.1332                78.8228

                     67                     68                     69
                      A                      A                      A
 Frequencies --   3036.1733              3041.1748              3048.6009
 Red. masses --      1.0597                 1.0366                 1.0384
 Frc consts  --      5.7556                 5.6486                 5.6862
 IR Inten    --     34.3322                29.7039                12.0776

                     70                     71                     72
                      A                      A                      A
 Frequencies --   3063.8774              3078.9628              3101.4729
 Red. masses --      1.1005                 1.0836                 1.1021
 Frc consts  --      6.0865                 6.0526                 6.2459
 IR Inten    --     18.4410                47.4056                34.4335

                     73                     74                     75
                      A                      A                      A
 Frequencies --   3109.7554              3114.0738              3117.2716
 Red. masses --      1.1015                 1.1032                 1.1015
 Frc consts  --      6.2760                 6.3034                 6.3063
 IR Inten    --     44.7398                53.3416                27.6929

                     76                     77                     78
                      A                      A                      A
 Frequencies --   3131.1711              3178.8878              3188.1701
 Red. masses --      1.1006                 1.0836                 1.0875
 Frc consts  --      6.3579                 6.4517                 6.5130
 IR Inten    --     43.8637                 0.0047                 0.0908

                     79                     80                     81
                      A                      A                      A
 Frequencies --   3188.6873              3203.6839              3204.2879
 Red. masses --      1.0876                 1.0948                 1.0949
 Frc consts  --      6.5153                 6.6207                 6.6234
 IR Inten    --      0.2286                44.9030                41.7283

                     82                     83                     84
                      A                      A                      A
 Frequencies --   3214.3992              3472.8951              3557.2908
 Red. masses --      1.0992                 1.0498                 1.0920
 Frc consts  --      6.6915                 7.4604                 8.1415
 IR Inten    --      0.1063                 1.6746                 0.3963

 - Thermochemistry -
 -------------------
 Temperature   298.150 Kelvin.  Pressure   1.00000 Atm.
 Atom     1 has atomic number  6 and mass  12.00000

 Molecular mass:   153.15175 amu.
 Principal axes and moments of inertia in atomic units:
                           1         2         3
     Eigenvalues --  1565.162763063.472813680.31029
           X            0.99998  -0.00431  -0.00395
           Y            0.00426   0.99993  -0.01119
           Z            0.00400   0.01117   0.99993
 This molecule is an asymmetric top.
 Rotational symmetry number  1.
 Warning -- assumption of classical behavior for rotation
           may cause significant error
 Rotational temperatures (Kelvin)      0.05534     0.02827     0.02353
 Rotational constants (GHZ):           1.15307     0.58912     0.49038
 Zero-point vibrational energy     713276.4 (Joules/Mol)
                                  170.47715 (Kcal/Mol)
 Warning -- explicit consideration of  18 degrees of freedom as
           vibrations may cause significant error
 Vibrational temperatures:     24.36    47.50    53.67    68.97    74.65
          (Kelvin)             99.08   105.72   112.02   122.87   141.63
                              156.83   169.09   350.41   414.41   493.38
                              535.85   595.23   597.10   896.47   896.61
                              998.23  1031.16  1096.21  1243.62  1244.44
                             1268.96  1276.92  1327.38  1357.05  1395.42
                             1398.43  1424.76  1453.44  1471.18  1473.78
                             1538.60  1539.91  1540.32  1542.75  1708.25
                             1718.21  1721.14  1739.50  1739.64  1771.11
                             1917.68  1957.33  1975.55  1995.90  1996.24
                             2064.79  2087.89  2136.08  2183.83  2186.44
                             2197.57  2200.58  2204.29  2204.87  2212.08
                             2221.56  2228.12  2384.07  2384.26  2453.01
                             4323.04  4368.38  4375.57  4386.26  4408.24
                             4429.94  4462.33  4474.24  4480.46  4485.06
                             4505.06  4573.71  4587.07  4587.81  4609.39
                             4610.26  4624.80  4996.72  5118.15

 Zero-point correction=                           0.271673 (Hartree/Particle)
 Thermal correction to Energy=                    0.287803
 Thermal correction to Enthalpy=                  0.288747
 Thermal correction to Gibbs Free Energy=         0.223667
 Sum of electronic and zero-point Energies=           -447.020142
 Sum of electronic and thermal Energies=              -447.004012
 Sum of electronic and thermal Enthalpies=            -447.003068
 Sum of electronic and thermal Free Energies=         -447.068148

                     E (Thermal)             CV                S
                      KCal/Mol        Cal/Mol-Kelvin    Cal/Mol-Kelvin
 Total                  180.599             52.691            136.973
 Electronic               0.000              0.000              0.000
 Translational            0.889              2.981             40.989
 Rotational               0.889              2.981             31.246
 Vibrational            178.822             46.730             64.738
 Vibration     1          0.593              1.986              6.965
 Vibration     2          0.594              1.983              5.639
 Vibration     3          0.594              1.982              5.398
 Vibration     4          0.595              1.978              4.901
 Vibration     5          0.596              1.977              4.744
 Vibration     6          0.598              1.969              4.186
 Vibration     7          0.599              1.967              4.058
 Vibration     8          0.599              1.964              3.944
 Vibration     9          0.601              1.959              3.763
 Vibration    10          0.604              1.950              3.485
 Vibration    11          0.606              1.942              3.287
 Vibration    12          0.608              1.935              3.141
 Vibration    13          0.659              1.773              1.777
 Vibration    14          0.685              1.696              1.486
 Vibration    15          0.722              1.590              1.199
 Vibration    16          0.744              1.529              1.070
 Vibration    17          0.777              1.440              0.914
 Vibration    18          0.778              1.438              0.909

 Optimization completed.
    -- Stationary point found.
 Normal termination of Gaussian 16 at Tue Dec  8 22:42:06 2020.

 ----------------------------------------------------------------------
 # B3LYP/6-311++G(d,p) empiricaldispersion=gd3bj scf=xqc pop=npa geom=c
 heck
 ----------------------------------------------------------------------

 --------------------------------------
 CID_91495976_JID_1905_Energie_neutraal
 --------------------------------------
 Structure from the checkpoint file:  "JID_1905.chk"
 Charge =  0 Multiplicity = 1

 SCF Done:  E(RB3LYP) =  -447.427748003     A.U. after   12 cycles
 Normal termination of Gaussian 16 at Tue Dec  8 22:44:49 2020.

 ----------------------------------------------------------------------
 # B3LYP/6-311++G(d,p) empiricaldispersion=gd3bj scf=xqc pop=npa geom=c
 heck
 ----------------------------------------------------------------------

 ------------------------------------
 CID_91495976_JID_1905_Energie_kation
 ------------------------------------
 Structure from the checkpoint file:  "JID_1905.chk"
 Charge =  1 Multiplicity = 2

 SCF Done:  E(UB3LYP) =  -447.112933013     A.U. after   33 cycles
 SCF Done:  E(UB3LYP) =  -447.113109251     a.u. after    6 cycles
 Normal termination of Gaussian 16 at Tue Dec  8 23:29:09 2020.
 Gaussian 16:  ES64L-G16RevA.03 25-Dec-2016

 ----------------------------------------------------------------------
 # B3LYP/6-311++G(d,p) empiricaldispersion=gd3bj scf=xqc pop=npa geom=c
 heck
 ----------------------------------------------------------------------

 -----------------------------------
 CID_91495976_JID_1905_Energie_anion
 -----------------------------------
 Structure from the checkpoint file:  "JID_1905.chk"
 Charge = -1 Multiplicity = 2

                         Standard orientation:
 ---------------------------------------------------------------------
 Center     Atomic      Atomic             Coordinates (Angstroms)
 Number     Number       Type             X           Y           Z
 ---------------------------------------------------------------------
      1          6           0       -0.516355   -1.804566   -1.234945
      2          6           0       -1.821577   -1.891315   -0.440542
      3          6           0       -1.621473   -1.630931    1.054554
      4          6           0       -2.252305    1.870568   -0.306519
      5          7           0       -3.538165    1.307046    0.113090
      6          6           0        2.639202   -0.774590    0.522796
      7          6           0        2.861349   -0.219012   -0.738323
      8          6           0        2.249794    0.986565   -1.088003
      9          6           0        1.416786    1.637047   -0.175633
     10          6           0        1.195477    1.081245    1.086044
     11          6           0        1.805959   -0.124792    1.434881
     12          1           0       -0.057444   -0.815448   -1.136923
     13          1           0       -0.683442   -1.997267   -2.301104
     14          1           0        0.214888   -2.536424   -0.871868
     15          1           0       -2.541199   -1.163190   -0.837648
     16          1           0       -2.276939   -2.880596   -0.582380
     17          1           0       -1.195302   -0.635906    1.224382
     18          1           0       -2.565653   -1.702977    1.608263
     19          1           0       -0.924961   -2.357254    1.490695
     20          1           0       -2.430473    2.650763   -1.054881
     21          1           0       -1.530723    1.152771   -0.727762
     22          1           0       -1.775438    2.350104    0.555547
     23          1           0       -3.987760    0.852914   -0.680094
     24          1           0       -3.377683    0.570867    0.798133
     25          1           0        3.112860   -1.714117    0.793658
     26          1           0        3.507639   -0.726220   -1.449250
     27          1           0        2.421280    1.417987   -2.070300
     28          1           0        0.940132    2.574881   -0.446602
     29          1           0        0.546623    1.587172    1.795587
     30          1           0        1.629603   -0.558689    2.415055
 ---------------------------------------------------------------------

 SCF Done:  E(UB3LYP) =  -447.412742581     A.U. after   29 cycles

 The electronic state is 2-A.
 Alpha  occ. eigenvalues --  -14.19402 -10.08311 -10.07823 -10.07775 -10.07717
 Alpha  occ. eigenvalues --  -10.07704 -10.07660 -10.07612 -10.06173 -10.05421
 Alpha  occ. eigenvalues --  -10.04678  -0.77763  -0.75784  -0.67691  -0.64967
 Alpha  occ. eigenvalues --   -0.64943  -0.57642  -0.55958  -0.50616  -0.50606
 Alpha  occ. eigenvalues --   -0.48159  -0.42755  -0.39147  -0.36436  -0.36046
 Alpha  occ. eigenvalues --   -0.35116  -0.33699  -0.33365  -0.32591  -0.32545
 Alpha  occ. eigenvalues --   -0.30175  -0.29628  -0.27791  -0.27271  -0.26787
 Alpha  occ. eigenvalues --   -0.24898  -0.24870  -0.23627  -0.23270  -0.22495
 Alpha  occ. eigenvalues --   -0.15927  -0.15871  -0.14404   0.04512
 Alpha virt. eigenvalues --    0.06790   0.06955   0.07411   0.08050   0.08197
 Alpha virt. eigenvalues --    0.08769   0.08986   0.09513   0.09670   0.10447
 Alpha virt. eigenvalues --    0.11429   0.11866   0.12597   0.13302   0.13486

  Beta  occ. eigenvalues --  -14.19379 -10.08285 -10.07813 -10.07763 -10.07702
  Beta  occ. eigenvalues --  -10.07689 -10.07644 -10.07596 -10.06155 -10.05395
  Beta  occ. eigenvalues --  -10.04658  -0.77723  -0.75751  -0.67658  -0.64930
  Beta  occ. eigenvalues --   -0.64903  -0.57591  -0.55878  -0.50573  -0.50559
  Beta  occ. eigenvalues --   -0.48086  -0.42685  -0.39117  -0.36381  -0.36021
  Beta  occ. eigenvalues --   -0.35081  -0.33652  -0.33319  -0.32548  -0.32503
  Beta  occ. eigenvalues --   -0.30128  -0.29597  -0.27767  -0.27248  -0.26757
  Beta  occ. eigenvalues --   -0.24855  -0.24826  -0.23592  -0.23218  -0.22473
  Beta  occ. eigenvalues --   -0.15913  -0.15851  -0.14379
  Beta virt. eigenvalues --    0.06669   0.07545   0.07877   0.08022   0.08105
  Beta virt. eigenvalues --    0.08229   0.09360   0.09452   0.10072   0.10260
  Beta virt. eigenvalues --    0.10673   0.11850   0.12296   0.12877   0.13434

 Mulliken charges and spin densities:
               1          2
     1  C    0.008376  -0.318483
     2  C   -0.231632   0.030324
     3  C    0.207091  -0.743227
     4  C    0.286151  -0.812120
     5  N   -0.372256  -0.025269
     6  C    0.479116  -0.750182
     7  C    0.388536  -0.555230
     8  C   -0.241705   0.072057
     9  C   -0.044121  -0.096905
    10  C    0.175236  -0.320594
    11  C    0.047844  -0.169422
    12  H    0.360969  -0.201097
    13  H   -0.333754   0.478192
    14  H    0.049604   0.044321
    15  H    0.007553   0.089124
    16  H   -0.188258   0.331342
    17  H    0.195680  -0.033343
    18  H   -0.100015   0.241187
    19  H   -0.120434   0.248906
    20  H   -0.260241   0.387706
    21  H   -0.110813   0.238253
    22  H   -0.043932   0.227459
    23  H    0.050983   0.179834
    24  H    0.180666   0.052860
    25  H   -0.420832   0.595329
    26  H   -0.293858   0.460579
    27  H   -0.476844   0.649520
    28  H    0.080481   0.083320
    29  H   -0.046586   0.213420
    30  H   -0.233006   0.402140
 Sum of Mulliken charges =  -1.00000   1.00000

 Dipole moment (field-independent basis, Debye):
    X=             -0.1814    Y=              0.7373    Z=              1.2528  Tot=              1.4649
 Quadrupole moment (field-independent basis, Debye-Ang):
   XX=           -134.1864   YY=           -116.8640   ZZ=           -112.4497
   XY=              7.9193   XZ=              3.4656   YZ=              2.3497

 Summary of Natural Population Analysis:

                                       Natural Population
                Natural  -----------------------------------------------
    Atom  No    Charge         Core      Valence    Rydberg      Total
 -----------------------------------------------------------------------
      C    1   -0.28614      0.99966     2.28006    0.00642     3.28614
      C    2   -0.19289      0.99966     2.18533    0.00790     3.19289
      C    3   -0.28893      0.99966     2.28301    0.00625     3.28893
      C    4   -0.18071      0.99968     2.17326    0.00778     3.18071
      N    5   -0.41911      0.99978     2.91061    0.00872     3.91911
      C    6   -0.10131      0.99956     2.09051    0.01123     3.10131
      C    7   -0.10092      0.99956     2.09032    0.01104     3.10092
      C    8   -0.11132      0.99959     2.09707    0.01467     3.11132
      C    9   -0.08367      0.99955     2.07739    0.00673     3.08367
      C   10   -0.11322      0.99959     2.09971    0.01392     3.11322
      C   11   -0.10196      0.99956     2.09110    0.01130     3.10196
      H   12    0.09988      0.00000     0.39738    0.00274     0.40012
      H   13    0.09595      0.00000     0.40291    0.00113     0.40405
      H   14    0.09592      0.00000     0.40276    0.00132     0.40408
      H   15    0.09047      0.00000     0.40775    0.00178     0.40953
      H   16    0.08963      0.00000     0.40914    0.00123     0.41037
      H   17    0.09806      0.00000     0.40018    0.00176     0.40194
      H   18    0.09392      0.00000     0.40498    0.00110     0.40608
      H   19    0.09806      0.00000     0.40076    0.00118     0.40194
      H   20    0.08849      0.00000     0.41023    0.00129     0.41151
      H   21    0.08365      0.00000     0.41404    0.00231     0.41635
      H   22    0.08869      0.00000     0.40988    0.00142     0.41131
      H   23    0.17043      0.00000     0.32723    0.00234     0.32957
      H   24    0.17362      0.00000     0.32405    0.00234     0.32638
      H   25    0.10305      0.00000     0.39538    0.00158     0.39695
      H   26    0.10284      0.00000     0.39563    0.00153     0.39716
      H   27    0.10315      0.00000     0.39533    0.00152     0.39685
      H   28    0.09995      0.00000     0.39875    0.00131     0.40005
      H   29    0.10174      0.00000     0.39700    0.00126     0.39826
      H   30    0.10271      0.00000     0.39599    0.00130     0.39729
 =======================================================================
   * Total *    0.00002     10.99585    31.86772    0.13640    42.99998

 Normal termination of Gaussian 16 at Tue Dec  8 23:38:16 2020.
