 Gaussian 16, Revision A.03,

 -----------------------------------------------------------
 # opt freq B3LYP/6-31G(d) empiricaldispersion=gd3bj scf=xqc
 -----------------------------------------------------------

 ----------------------------
 CID_660082_JID_9784_neutraal
 ----------------------------
 Symbolic Z-matrix:
 Charge =  0 Multiplicity = 1

 SCF Done:  E(RB3LYP) =  -920.516768062     A.U. after   15 cycles
 SCF Done:  E(RB3LYP) =  -920.522526619     A.U. after   13 cycles
 SCF Done:  E(RB3LYP) =  -920.519740455     A.U. after   15 cycles
 SCF Done:  E(RB3LYP) =  -920.522880569     A.U. after   13 cycles
 SCF Done:  E(RB3LYP) =  -920.523737660     A.U. after   12 cycles
 SCF Done:  E(RB3LYP) =  -920.523805769     A.U. after   13 cycles
 SCF Done:  E(RB3LYP) =  -920.524222042     A.U. after   12 cycles
 SCF Done:  E(RB3LYP) =  -920.524322474     A.U. after   11 cycles
 SCF Done:  E(RB3LYP) =  -920.524296833     A.U. after   12 cycles
 SCF Done:  E(RB3LYP) =  -920.524407195     A.U. after   11 cycles
 SCF Done:  E(RB3LYP) =  -920.524422218     A.U. after    8 cycles
 SCF Done:  E(RB3LYP) =  -920.524422831     A.U. after    9 cycles
 SCF Done:  E(RB3LYP) =  -920.524423233     A.U. after    8 cycles
 SCF Done:  E(RB3LYP) =  -920.524423327     A.U. after    8 cycles
 SCF Done:  E(RB3LYP) =  -920.524423339     A.U. after    6 cycles
 Optimization completed.
    -- Stationary point found.
 Normal termination of Gaussian 16 at Sat Dec 12 10:07:21 2020.

 --------------------------------------------------------------------
 #N Geom=AllCheck Guess=TCheck SCRF=Check GenChk RB3LYP/6-31G(d) Freq
 --------------------------------------------------------------------

 Structure from the checkpoint file:  "JID_9784.chk"
 ----------------------------
 CID_660082_JID_9784_neutraal
 ----------------------------
 Charge =  0 Multiplicity = 1

 SCF Done:  E(RB3LYP) =  -920.524423339     A.U. after    1 cycles

  Exact polarizability: 181.324   8.086 172.370  16.947 -10.333 115.331
 Approx polarizability: 246.661   6.829 264.788  42.610 -21.125 190.711

                      1                      2                      3
                      A                      A                      A
 Frequencies --     18.0232                27.2370                39.1373
 Red. masses --      6.0126                 4.5173                 3.6639
 Frc consts  --      0.0012                 0.0020                 0.0033
 IR Inten    --      0.4074                 0.1628                 0.2928

                      4                      5                      6
                      A                      A                      A
 Frequencies --     47.8866                60.5813                80.3668
 Red. masses --      3.8336                 5.5731                 5.7844
 Frc consts  --      0.0052                 0.0121                 0.0220
 IR Inten    --      0.3086                 1.2953                 0.1090

                      7                      8                      9
                      A                      A                      A
 Frequencies --    104.6186               116.0260               141.8565
 Red. masses --      3.8048                 6.0102                 4.8020
 Frc consts  --      0.0245                 0.0477                 0.0569
 IR Inten    --      1.3873                 1.0855                 1.3988

                     10                     11                     12
                      A                      A                      A
 Frequencies --    145.1068               181.8188               222.1858
 Red. masses --      3.5352                 4.1511                 1.1794
 Frc consts  --      0.0439                 0.0809                 0.0343
 IR Inten    --      0.5482                 9.4255                 2.2205

                     13                     14                     15
                      A                      A                      A
 Frequencies --    237.6579               249.4195               267.1652
 Red. masses --      3.6166                 1.3542                 2.2305
 Frc consts  --      0.1204                 0.0496                 0.0938
 IR Inten    --      1.5808                 0.9500                 3.5534

                     16                     17                     18
                      A                      A                      A
 Frequencies --    280.7417               309.2590               345.2404
 Red. masses --      5.6256                 2.2717                 2.6550
 Frc consts  --      0.2612                 0.1280                 0.1864
 IR Inten    --      1.6119                 0.7361                 3.1597

                     19                     20                     21
                      A                      A                      A
 Frequencies --    359.7680               397.5129               403.3645
 Red. masses --      5.7904                 6.7452                 1.9231
 Frc consts  --      0.4416                 0.6280                 0.1843
 IR Inten    --      1.3682                10.5274                 1.1337

                     22                     23                     24
                      A                      A                      A
 Frequencies --    420.2357               440.1317               467.4445
 Red. masses --      2.2951                 3.3614                 4.7957
 Frc consts  --      0.2388                 0.3837                 0.6174
 IR Inten    --      0.5894                 4.9263                 2.4119

                     25                     26                     27
                      A                      A                      A
 Frequencies --    512.3703               524.7652               534.4041
 Red. masses --      4.5007                 2.6936                 4.0518
 Frc consts  --      0.6961                 0.4370                 0.6818
 IR Inten    --      6.7836                 0.8333                 7.8223

                     28                     29                     30
                      A                      A                      A
 Frequencies --    564.4562               605.2818               615.9777
 Red. masses --      6.0183                 4.2365                 1.3678
 Frc consts  --      1.1298                 0.9145                 0.3058
 IR Inten    --      1.1792                10.4150                56.0408

                     31                     32                     33
                      A                      A                      A
 Frequencies --    639.4267               707.9999               727.4068
 Red. masses --      5.0872                 3.9836                 3.8387
 Frc consts  --      1.2255                 1.1765                 1.1967
 IR Inten    --     29.9289                21.6945                47.7675

                     34                     35                     36
                      A                      A                      A
 Frequencies --    755.8372               778.4505               784.7778
 Red. masses --      2.2634                 3.0157                 2.6706
 Frc consts  --      0.7619                 1.0767                 0.9691
 IR Inten    --     66.5799                10.0295                 2.9735

                     37                     38                     39
                      A                      A                      A
 Frequencies --    803.7086               820.4933               858.2075
 Red. masses --      2.5093                 2.2880                 3.2556
 Frc consts  --      0.9550                 0.9075                 1.4127
 IR Inten    --      0.2967                 6.5667                17.8945

                     40                     41                     42
                      A                      A                      A
 Frequencies --    896.1141               925.8818               934.3985
 Red. masses --      2.0947                 4.0877                 2.2619
 Frc consts  --      0.9911                 2.0646                 1.1636
 IR Inten    --     14.2459                40.5211                 8.4589

                     43                     44                     45
                      A                      A                      A
 Frequencies --    943.3450               951.7368               975.5440
 Red. masses --      1.2175                 1.8594                 1.3584
 Frc consts  --      0.6383                 0.9924                 0.7617
 IR Inten    --      3.4357                14.5495                 3.9228

                     46                     47                     48
                      A                      A                      A
 Frequencies --    979.5276               999.6641              1010.8090
 Red. masses --      1.4631                 1.2924                 1.6767
 Frc consts  --      0.8271                 0.7610                 1.0094
 IR Inten    --      1.4014                 0.1946                 1.7356

                     49                     50                     51
                      A                      A                      A
 Frequencies --   1050.2727              1060.5134              1069.3600
 Red. masses --      2.3684                 2.3545                 2.5482
 Frc consts  --      1.5392                 1.5602                 1.7168
 IR Inten    --      5.9230                 6.6247                15.7923

                     52                     53                     54
                      A                      A                      A
 Frequencies --   1115.3113              1137.4267              1141.1296
 Red. masses --      3.7993                 2.2845                 1.9659
 Frc consts  --      2.7845                 1.7413                 1.5083
 IR Inten    --     22.1986                59.0006                92.0765

                     55                     56                     57
                      A                      A                      A
 Frequencies --   1165.1133              1185.7476              1192.8564
 Red. masses --      2.4389                 2.5544                 1.1468
 Frc consts  --      1.9506                 2.1160                 0.9614
 IR Inten    --     38.2379               124.7582                 5.8939

                     58                     59                     60
                      A                      A                      A
 Frequencies --   1208.6360              1225.3582              1245.6411
 Red. masses --      1.8375                 1.8915                 3.1651
 Frc consts  --      1.5815                 1.6733                 2.8935
 IR Inten    --      6.7308                61.7588                69.4400

                     61                     62                     63
                      A                      A                      A
 Frequencies --   1253.4640              1274.2202              1302.9322
 Red. masses --      3.4056                 1.2866                 1.5254
 Frc consts  --      3.1525                 1.2308                 1.5258
 IR Inten    --    404.7581                27.4765                53.8178

                     64                     65                     66
                      A                      A                      A
 Frequencies --   1310.9680              1340.1839              1362.3034
 Red. masses --      1.2889                 1.2678                 6.4141
 Frc consts  --      1.3051                 1.3416                 7.0134
 IR Inten    --     69.5585                 9.6812                 7.1080

                     67                     68                     69
                      A                      A                      A
 Frequencies --   1367.3044              1385.5655              1398.3326
 Red. masses --      1.2912                 1.3214                 1.4127
 Frc consts  --      1.4222                 1.4946                 1.6275
 IR Inten    --     13.2312                 1.9383                33.7169

                     70                     71                     72
                      A                      A                      A
 Frequencies --   1402.2461              1416.7997              1430.8735
 Red. masses --      2.1539                 1.4007                 1.2810
 Frc consts  --      2.4953                 1.6565                 1.5453
 IR Inten    --     79.6359                 0.7476                 3.5899

                     73                     74                     75
                      A                      A                      A
 Frequencies --   1436.6502              1451.0167              1498.7868
 Red. masses --      1.2810                 1.2276                 1.0918
 Frc consts  --      1.5578                 1.5228                 1.4451
 IR Inten    --      7.8981                 3.9818                 5.9958

                     76                     77                     78
                      A                      A                      A
 Frequencies --   1501.7065              1511.3298              1517.3986
 Red. masses --      2.4992                 1.0794                 1.0482
 Frc consts  --      3.3207                 1.4526                 1.4220
 IR Inten    --     68.4145                 4.0449                 0.2343

                     79                     80                     81
                      A                      A                      A
 Frequencies --   1522.9134              1530.6507              1532.9322
 Red. masses --      1.0591                 1.0826                 2.3450
 Frc consts  --      1.4472                 1.4944                 3.2467
 IR Inten    --      3.1124                 6.9218                29.3617

                     82                     83                     84
                      A                      A                      A
 Frequencies --   1537.0903              1544.9389              1635.8519
 Red. masses --      1.0938                 1.0631                 6.3358
 Frc consts  --      1.5226                 1.4951                 9.9894
 IR Inten    --      3.6923                 6.8960                 7.5013

                     85                     86                     87
                      A                      A                      A
 Frequencies --   1667.7158              1818.2945              1845.0352
 Red. masses --      6.3226                 9.6290                12.2785
 Frc consts  --     10.3607                18.7569                24.6266
 IR Inten    --     52.2788               317.1991               176.1989

                     88                     89                     90
                      A                      A                      A
 Frequencies --   3020.2992              3036.4244              3040.5860
 Red. masses --      1.0637                 1.0374                 1.0454
 Frc consts  --      5.7168                 5.6355                 5.6942
 IR Inten    --     19.6312                26.0037                16.6560

                     91                     92                     93
                      A                      A                      A
 Frequencies --   3048.3676              3058.1247              3065.9010
 Red. masses --      1.0637                 1.0644                 1.0838
 Frc consts  --      5.8235                 5.8652                 6.0023
 IR Inten    --     36.8570                19.0710                17.2469

                     94                     95                     96
                      A                      A                      A
 Frequencies --   3077.6630              3101.1230              3103.2186
 Red. masses --      1.0874                 1.1024                 1.1022
 Frc consts  --      6.0685                 6.2462                 6.2539
 IR Inten    --     19.5475                20.9772                27.1563

                     97                     98                     99
                      A                      A                      A
 Frequencies --   3111.0001              3111.9684              3116.0757
 Red. masses --      1.0994                 1.0992                 1.0997
 Frc consts  --      6.2691                 6.2720                 6.2916
 IR Inten    --     33.3231                22.0010                83.4756

                    100                    101                    102
                      A                      A                      A
 Frequencies --   3123.1165              3199.1805              3213.9205
 Red. masses --      1.1007                 1.0868                 1.0914
 Frc consts  --      6.3253                 6.5533                 6.6418
 IR Inten    --     42.2128                 2.6119                16.0760

                    103                    104                    105
                      A                      A                      A
 Frequencies --   3224.2240              3235.4511              3688.1245
 Red. masses --      1.0949                 1.0936                 1.0639
 Frc consts  --      6.7061                 6.7449                 8.5264
 IR Inten    --      7.3742                 4.0243                72.9648

 - Thermochemistry -
 -------------------
 Temperature   298.150 Kelvin.  Pressure   1.00000 Atm.
 Atom     1 has atomic number  6 and mass  12.00000

 Molecular mass:   266.11542 amu.
 Principal axes and moments of inertia in atomic units:
                           1         2         3
     Eigenvalues --  2907.695117855.135019088.66968
           X            0.99995  -0.00173  -0.00966
           Y            0.00178   0.99998   0.00563
           Z            0.00965  -0.00565   0.99994
 This molecule is an asymmetric top.
 Rotational symmetry number  1.
 Warning -- assumption of classical behavior for rotation
           may cause significant error
 Rotational temperatures (Kelvin)      0.02979     0.01103     0.00953
 Rotational constants (GHZ):           0.62068     0.22975     0.19857
 Zero-point vibrational energy     803788.9 (Joules/Mol)
                                  192.11016 (Kcal/Mol)
 Warning -- explicit consideration of  30 degrees of freedom as
           vibrations may cause significant error
 Vibrational temperatures:     25.93    39.19    56.31    68.90    87.16
          (Kelvin)            115.63   150.52   166.94   204.10   208.78
                              261.60   319.68   341.94   358.86   384.39
                              403.92   444.95   496.72   517.63   571.93
                              580.35   604.63   633.25   672.55   737.19
                              755.02   768.89   812.13   870.87   886.25
                              919.99  1018.65  1046.58  1087.48  1120.02
                             1129.12  1156.36  1180.51  1234.77  1289.31
                             1332.14  1344.39  1357.26  1369.34  1403.59
                             1409.32  1438.29  1454.33  1511.11  1525.84
                             1538.57  1604.68  1636.50  1641.83  1676.34
                             1706.03  1716.25  1738.96  1763.02  1792.20
                             1803.46  1833.32  1874.63  1886.19  1928.23
                             1960.05  1967.25  1993.52  2011.89  2017.52
                             2038.46  2058.71  2067.02  2087.69  2156.42
                             2160.62  2174.47  2183.20  2191.13  2202.27
                             2205.55  2211.53  2222.82  2353.63  2399.47
                             2616.12  2654.59  4345.54  4368.74  4374.73
                             4385.92  4399.96  4411.15  4428.07  4461.82
                             4464.84  4476.04  4477.43  4483.34  4493.47
                             4602.91  4624.11  4638.94  4655.09  5306.39

 Zero-point correction=                           0.306147 (Hartree/Particle)
 Thermal correction to Energy=                    0.325113
 Thermal correction to Enthalpy=                  0.326058
 Thermal correction to Gibbs Free Energy=         0.256583
 Sum of electronic and zero-point Energies=           -920.218276
 Sum of electronic and thermal Energies=              -920.199310
 Sum of electronic and thermal Enthalpies=            -920.198366
 Sum of electronic and thermal Free Energies=         -920.267840

                     E (Thermal)             CV                S
                      KCal/Mol        Cal/Mol-Kelvin    Cal/Mol-Kelvin
 Total                  204.012             70.456            146.221
 Electronic               0.000              0.000              0.000
 Translational            0.889              2.981             42.635
 Rotational               0.889              2.981             33.695
 Vibrational            202.234             64.494             69.891
 Vibration     1          0.593              1.986              6.841
 Vibration     2          0.593              1.984              6.021
 Vibration     3          0.594              1.981              5.302
 Vibration     4          0.595              1.978              4.903
 Vibration     5          0.597              1.973              4.438
 Vibration     6          0.600              1.962              3.882
 Vibration     7          0.605              1.946              3.366
 Vibration     8          0.608              1.936              3.166
 Vibration     9          0.615              1.911              2.779
 Vibration    10          0.616              1.908              2.735
 Vibration    11          0.630              1.864              2.310
 Vibration    12          0.648              1.807              1.941
 Vibration    13          0.656              1.783              1.820
 Vibration    14          0.662              1.764              1.735
 Vibration    15          0.672              1.733              1.614
 Vibration    16          0.680              1.709              1.529
 Vibration    17          0.699              1.656              1.366
 Vibration    18          0.724              1.585              1.188
 Vibration    19          0.734              1.555              1.123
 Vibration    20          0.764              1.475              0.972
 Vibration    21          0.769              1.463              0.950
 Vibration    22          0.783              1.426              0.891
 Vibration    23          0.800              1.383              0.826
 Vibration    24          0.825              1.322              0.745
 Vibration    25          0.867              1.223              0.628
 Vibration    26          0.880              1.195              0.599
 Vibration    27          0.889              1.174              0.577
 Vibration    28          0.920              1.108              0.515
 Vibration    29          0.964              1.021              0.441
 Vibration    30          0.976              0.998              0.423

 Optimization completed.
    -- Stationary point found.
 Normal termination of Gaussian 16 at Sat Dec 12 10:24:20 2020.

 ----------------------------------------------------------------------
 # B3LYP/6-311++G(d,p) empiricaldispersion=gd3bj scf=xqc pop=npa geom=c
 heck
 ----------------------------------------------------------------------

 ------------------------------------
 CID_660082_JID_9784_Energie_neutraal
 ------------------------------------
 Structure from the checkpoint file:  "JID_9784.chk"
 Charge =  0 Multiplicity = 1

 SCF Done:  E(RB3LYP) =  -920.793385588     A.U. after   15 cycles
 Normal termination of Gaussian 16 at Sat Dec 12 10:30:39 2020.

 ----------------------------------------------------------------------
 # B3LYP/6-311++G(d,p) empiricaldispersion=gd3bj scf=xqc pop=npa geom=c
 heck
 ----------------------------------------------------------------------

 ----------------------------------
 CID_660082_JID_9784_Energie_kation
 ----------------------------------
 Structure from the checkpoint file:  "JID_9784.chk"
 Charge =  1 Multiplicity = 2

 SCF Done:  E(UB3LYP) =  -920.466744349     A.U. after   28 cycles
 Normal termination of Gaussian 16 at Sat Dec 12 10:46:11 2020.
 Gaussian 16:  ES64L-G16RevA.03 25-Dec-2016

 ----------------------------------------------------------------------
 # B3LYP/6-311++G(d,p) empiricaldispersion=gd3bj scf=xqc pop=npa geom=c
 heck
 ----------------------------------------------------------------------

 ---------------------------------
 CID_660082_JID_9784_Energie_anion
 ---------------------------------
 Structure from the checkpoint file:  "JID_9784.chk"
 Charge = -1 Multiplicity = 2

                         Standard orientation:
 ---------------------------------------------------------------------
 Center     Atomic      Atomic             Coordinates (Angstroms)
 Number     Number       Type             X           Y           Z
 ---------------------------------------------------------------------
      1          6           0       -2.726861    1.870371    0.737742
      2          6           0       -3.417502    0.501612    0.802473
      3          6           0       -4.697615    0.586642    1.643811
      4          6           0       -3.763578   -0.046180   -0.599512
      5          6           0       -2.619835   -0.252559   -1.601785
      6          8           0       -1.969132   -1.525545   -1.555603
      7          6           0       -1.356868   -1.873918   -0.342052
      8          6           0       -0.304660   -0.903427    0.177250
      9          8           0       -0.110575   -0.659336    1.341411
     10          8           0        0.410476   -0.359616   -0.852828
     11          6           0        1.456402    0.497001   -0.533840
     12          6           0        1.286610    1.834291   -0.878609
     13          6           0        2.303119    2.753451   -0.629392
     14          6           0        3.489564    2.334218   -0.025061
     15          6           0        3.651861    0.996759    0.315678
     16          6           0        2.647608    0.050680    0.060449
     17          6           0        2.959177   -1.351440    0.450757
     18          8           0        3.927047   -1.666600    1.112923
     19          8           0        2.093852   -2.282174   -0.023316
     20          1           0       -3.346411    2.596818    0.195210
     21          1           0       -1.751095    1.821009    0.243823
     22          1           0       -2.555046    2.261897    1.746206
     23          1           0       -2.732298   -0.184814    1.312212
     24          1           0       -5.416194    1.283133    1.192253
     25          1           0       -5.187291   -0.390931    1.725024
     26          1           0       -4.480929    0.940978    2.657759
     27          1           0       -4.308216   -0.995624   -0.507322
     28          1           0       -4.468823    0.662049   -1.059244
     29          1           0       -3.019300   -0.214015   -2.618836
     30          1           0       -1.872274    0.546833   -1.517174
     31          1           0       -2.074379   -2.030944    0.471615
     32          1           0       -0.839685   -2.823204   -0.525216
     33          1           0        0.352649    2.135650   -1.340542
     34          1           0        2.163939    3.795111   -0.902831
     35          1           0        4.283486    3.045858    0.177895
     36          1           0        4.562327    0.644432    0.787058
     37          1           0        2.431676   -3.133086    0.313971
 ---------------------------------------------------------------------

 SCF Done:  E(UB3LYP) =  -920.804023713     A.U. after   33 cycles
 SCF Done:  E(UB3LYP) =  -920.804023713     a.u. after    1 cycles

 The electronic state is 2-A.
 Alpha  occ. eigenvalues --  -19.04911 -19.03541 -19.02173 -18.99956 -18.94453
 Alpha  occ. eigenvalues --  -10.18559 -10.13163 -10.12962 -10.12539 -10.09275
 Alpha  occ. eigenvalues --  -10.08688 -10.08350 -10.07729 -10.06713 -10.03871
 Alpha  occ. eigenvalues --  -10.03350 -10.02962 -10.02812 -10.02708  -0.99463
 Alpha  occ. eigenvalues --   -0.95801  -0.94545  -0.91247  -0.86156  -0.72654
 Alpha  occ. eigenvalues --   -0.71942  -0.66621  -0.63078  -0.62225  -0.60329
 Alpha  occ. eigenvalues --   -0.59861  -0.54432  -0.52132  -0.49998  -0.47744
 Alpha  occ. eigenvalues --   -0.45689  -0.43716  -0.41526  -0.40344  -0.39475
 Alpha  occ. eigenvalues --   -0.37743  -0.36878  -0.36188  -0.35354  -0.35105
 Alpha  occ. eigenvalues --   -0.33299  -0.32923  -0.32250  -0.31643  -0.30759
 Alpha  occ. eigenvalues --   -0.30334  -0.30010  -0.29799  -0.28726  -0.28212
 Alpha  occ. eigenvalues --   -0.27376  -0.26002  -0.25609  -0.24631  -0.23718
 Alpha  occ. eigenvalues --   -0.23164  -0.22975  -0.22647  -0.21931  -0.18982
 Alpha  occ. eigenvalues --   -0.18315  -0.18073  -0.15880  -0.13233  -0.12214
 Alpha  occ. eigenvalues --   -0.11724   0.04481
 Alpha virt. eigenvalues --    0.05736   0.07436   0.08029   0.08722   0.09124
 Alpha virt. eigenvalues --    0.09660   0.09997   0.10209   0.10653   0.11433
 Alpha virt. eigenvalues --    0.11767   0.11911   0.12580   0.13237   0.13575

  Beta  occ. eigenvalues --  -19.04915 -19.03536 -19.02103 -18.99934 -18.94140
  Beta  occ. eigenvalues --  -10.18473 -10.12965 -10.12880 -10.12538 -10.09076
  Beta  occ. eigenvalues --  -10.08688 -10.08345 -10.07718 -10.06708 -10.03942
  Beta  occ. eigenvalues --  -10.03399 -10.02769 -10.02657 -10.02340  -0.99380
  Beta  occ. eigenvalues --   -0.95494  -0.94527  -0.91191  -0.85685  -0.72643
  Beta  occ. eigenvalues --   -0.71579  -0.66573  -0.62866  -0.61677  -0.60172
  Beta  occ. eigenvalues --   -0.59844  -0.54305  -0.51634  -0.49825  -0.47723
  Beta  occ. eigenvalues --   -0.45452  -0.43393  -0.41498  -0.40279  -0.39406
  Beta  occ. eigenvalues --   -0.37598  -0.36779  -0.35998  -0.35275  -0.35030
  Beta  occ. eigenvalues --   -0.33149  -0.32713  -0.32131  -0.31463  -0.30381
  Beta  occ. eigenvalues --   -0.30227  -0.29854  -0.29103  -0.28608  -0.28027
  Beta  occ. eigenvalues --   -0.27242  -0.25764  -0.25564  -0.24617  -0.23685
  Beta  occ. eigenvalues --   -0.22850  -0.22696  -0.22502  -0.21422  -0.18807
  Beta  occ. eigenvalues --   -0.18296  -0.16832  -0.15828  -0.12854  -0.11095
  Beta  occ. eigenvalues --   -0.10316
  Beta virt. eigenvalues --    0.05827   0.07404   0.07965   0.08665   0.09182
  Beta virt. eigenvalues --    0.09626   0.09942   0.10115   0.10578   0.10690
  Beta virt. eigenvalues --    0.11426   0.11740   0.11861   0.12856   0.13209

 Mulliken charges and spin densities:
               1          2
     1  C   -0.501005  -0.092703
     2  C    0.099571   0.345142
     3  C   -0.044554  -0.421879
     4  C   -0.129776  -0.183466
     5  C   -0.525932   0.055824
     6  O   -0.040068   0.000142
     7  C   -0.239950  -0.026391
     8  C   -0.656888   0.036262
     9  O   -0.091713   0.009852
    10  O    0.148271   0.001574
    11  C   -0.990863   0.175995
    12  C    0.213779  -0.060032
    13  C   -0.264592   0.254282
    14  C   -0.480194  -0.033190
    15  C   -0.081952   0.169825
    16  C    0.877824   0.080194
    17  C    0.169721   0.151073
    18  O   -0.402330   0.111877
    19  O   -0.259935   0.012016
    20  H    0.088611   0.044363
    21  H    0.080749  -0.011995
    22  H    0.105070   0.023972
    23  H    0.186872  -0.036195
    24  H    0.011575   0.114048
    25  H    0.025770   0.103655
    26  H    0.069596   0.074451
    27  H    0.153386   0.014824
    28  H    0.063329   0.050982
    29  H    0.139812   0.035045
    30  H    0.154888  -0.017352
    31  H    0.170380   0.016162
    32  H    0.209719   0.000732
    33  H    0.070728   0.028030
    34  H    0.118902  -0.020255
    35  H    0.105792   0.002702
    36  H    0.176240  -0.007997
    37  H    0.269169  -0.001570
 Sum of Mulliken charges =  -1.00000   1.00000

 Dipole moment (field-independent basis, Debye):
    X=             -7.7396    Y=             -0.1738    Z=             -1.8243  Tot=              7.9536
 Quadrupole moment (field-independent basis, Debye-Ang):
   XX=           -176.4746   YY=           -128.4349   ZZ=           -135.2023
   XY=              3.5640   XZ=             -3.1996   YZ=              0.1115

 Summary of Natural Population Analysis:

                                       Natural Population
                Natural  -----------------------------------------------
    Atom  No    Charge         Core      Valence    Rydberg      Total
 -----------------------------------------------------------------------
      C    1   -0.28602      0.99965     2.28077    0.00560     3.28602
      C    2   -0.12661      0.99961     2.11749    0.00951     3.12661
      C    3   -0.28081      0.99966     2.27653    0.00462     3.28081
      C    4   -0.20841      0.99961     2.19884    0.00996     3.20841
      C    5   -0.01309      0.99957     2.00151    0.01201     3.01309
      O    6   -0.29286      0.99989     3.28389    0.00908     4.29286
      C    7   -0.05516      0.99953     2.04391    0.01172     3.05516
      C    8    0.40824      0.99969     1.56762    0.02444     2.59176
      O    9   -0.29281      0.99986     3.28676    0.00619     4.29281
      O   10   -0.27729      0.99984     3.26696    0.01049     4.27729
      C   11    0.19397      0.99931     1.79469    0.01202     2.80603
      C   12   -0.14402      0.99952     2.13609    0.00841     3.14402
      C   13   -0.02983      0.99958     2.02116    0.00909     3.02983
      C   14   -0.13013      0.99957     2.12145    0.00911     3.13013
      C   15   -0.04411      0.99956     2.03571    0.00884     3.04411
      C   16   -0.06256      0.99940     2.05385    0.00931     3.06256
      C   17    0.43488      0.99967     1.54152    0.02392     2.56512
      O   18   -0.30285      0.99987     3.29607    0.00692     4.30285
      O   19   -0.35485      0.99988     3.34609    0.00888     4.35485
      H   20    0.09094      0.00000     0.40813    0.00093     0.40906
      H   21    0.10652      0.00000     0.39210    0.00139     0.39348
      H   22    0.10092      0.00000     0.39821    0.00086     0.39908
      H   23    0.10226      0.00000     0.39460    0.00314     0.39774
      H   24    0.09368      0.00000     0.40529    0.00103     0.40632
      H   25    0.09659      0.00000     0.40252    0.00089     0.40341
      H   26    0.09921      0.00000     0.39999    0.00079     0.40079
      H   27    0.09973      0.00000     0.39912    0.00115     0.40027
      H   28    0.09743      0.00000     0.40144    0.00112     0.40257
      H   29    0.08878      0.00000     0.41006    0.00116     0.41122
      H   30    0.08802      0.00000     0.41030    0.00168     0.41198
      H   31    0.08506      0.00000     0.41367    0.00126     0.41494
      H   32    0.10630      0.00000     0.39268    0.00101     0.39370
      H   33    0.09507      0.00000     0.40320    0.00172     0.40493
      H   34    0.08563      0.00000     0.41277    0.00160     0.41437
      H   35    0.09110      0.00000     0.40785    0.00105     0.40890
      H   36    0.10514      0.00000     0.39375    0.00112     0.39486
      H   37    0.23190      0.00000     0.26523    0.00287     0.26810
 =======================================================================
   * Total *   -0.00000     18.99328    51.78184    0.22488    71.00000

 Normal termination of Gaussian 16 at Sat Dec 12 11:04:45 2020.
