 Gaussian 16, Revision A.03,

 -----------------------------------------------------------
 # opt freq B3LYP/6-31G(d) empiricaldispersion=gd3bj scf=xqc
 -----------------------------------------------------------

 -----------------------------
 CID_79185362_JID_655_neutraal
 -----------------------------
 Symbolic Z-matrix:
 Charge =  0 Multiplicity = 1

 SCF Done:  E(RB3LYP) =  -409.169800934     A.U. after   14 cycles
 SCF Done:  E(RB3LYP) =  -409.171918544     A.U. after   11 cycles
 SCF Done:  E(RB3LYP) =  -409.172091613     A.U. after   11 cycles
 SCF Done:  E(RB3LYP) =  -409.172392644     A.U. after   10 cycles
 SCF Done:  E(RB3LYP) =  -409.172382639     A.U. after   12 cycles
 SCF Done:  E(RB3LYP) =  -409.172681022     A.U. after   12 cycles
 SCF Done:  E(RB3LYP) =  -409.172977141     A.U. after   11 cycles
 SCF Done:  E(RB3LYP) =  -409.173011434     A.U. after   10 cycles
 SCF Done:  E(RB3LYP) =  -409.173285658     A.U. after   10 cycles
 SCF Done:  E(RB3LYP) =  -409.173309752     A.U. after   11 cycles
 SCF Done:  E(RB3LYP) =  -409.175777003     A.U. after   10 cycles
 SCF Done:  E(RB3LYP) =  -409.175803904     A.U. after    9 cycles
 SCF Done:  E(RB3LYP) =  -409.175809463     A.U. after    9 cycles
 SCF Done:  E(RB3LYP) =  -409.175812689     A.U. after    9 cycles
 SCF Done:  E(RB3LYP) =  -409.175813904     A.U. after    7 cycles
 SCF Done:  E(RB3LYP) =  -409.175814007     A.U. after    6 cycles
 Optimization completed.
    -- Stationary point found.

 1\1\GINC-NODE309\FOpt\RB3LYP\6-31G(d)\C9H19N1\VSC10255\08-Dec-2020\0\\
 # opt freq B3LYP/6-31G(d) empiricaldispersion=gd3bj scf=xqc\\CID_79185
 362_JID_655_neutraal\\0,1\C,0.7159589766,0.4603908875,-0.1949081387\C,
 0.9216714253,0.8942850309,-1.6478323921\C,1.3314372612,-0.2448860927,-
 2.5901240769\C,0.3102316962,-1.4048937558,-2.6551198249\C,-1.167240750
 5,-1.061322198,-2.9143480903\C,-1.4974878055,-0.2794300505,-4.19498982
 42\C,-1.1013066782,-0.8996536136,-5.5198526495\C,-0.8856611469,-2.2068
 993362,-5.694950879\C,-1.0117382763,0.0731038218,-6.668508247\N,1.7122

 Normal termination of Gaussian 16 at Tue Dec  8 13:10:02 2020.

 --------------------------------------------------------------------
 #N Geom=AllCheck Guess=TCheck SCRF=Check GenChk RB3LYP/6-31G(d) Freq
 --------------------------------------------------------------------

 Structure from the checkpoint file:  "JID_655.chk"
 -----------------------------
 CID_79185362_JID_655_neutraal
 -----------------------------
 Charge =  0 Multiplicity = 1

 SCF Done:  E(RB3LYP) =  -409.175814007     A.U. after    1 cycles

  Exact polarizability: 112.439   4.184  91.765   5.457  -6.638  95.915
 Approx polarizability: 135.055   2.605 133.615   9.346 -15.236 150.812

                      1                      2                      3
                      A                      A                      A
 Frequencies --     46.7089                63.4498                75.3422
 Red. masses --      3.3706                 2.9806                 2.9210
 Frc consts  --      0.0043                 0.0071                 0.0098
 IR Inten    --      0.1054                 0.1262                 1.1788

                      4                      5                      6
                      A                      A                      A
 Frequencies --    120.3147               174.1562               186.3088
 Red. masses --      2.2215                 1.8726                 1.4548
 Frc consts  --      0.0189                 0.0335                 0.0298
 IR Inten    --      0.0801                 3.4259                16.5193

                      7                      8                      9
                      A                      A                      A
 Frequencies --    203.9862               235.9029               253.5301
 Red. masses --      1.0918                 1.4458                 1.7446
 Frc consts  --      0.0268                 0.0474                 0.0661
 IR Inten    --      5.5400                 2.3093                 9.5896

                     10                     11                     12
                      A                      A                      A
 Frequencies --    276.6825               312.9116               326.3075
 Red. masses --      2.5371                 1.9734                 2.3245
 Frc consts  --      0.1144                 0.1138                 0.1458
 IR Inten    --      4.4152                 0.2512                 6.4638

                     13                     14                     15
                      A                      A                      A
 Frequencies --    400.8630               414.9498               443.4653
 Red. masses --      2.6060                 2.0042                 2.0730
 Frc consts  --      0.2467                 0.2033                 0.2402
 IR Inten    --      1.6946                 0.8365                 6.1422

                     16                     17                     18
                      A                      A                      A
 Frequencies --    460.5183               510.6265               603.9953
 Red. masses --      2.9133                 2.1867                 1.8952
 Frc consts  --      0.3640                 0.3359                 0.4074
 IR Inten    --      2.9423                 3.0396                 2.9014

                     19                     20                     21
                      A                      A                      A
 Frequencies --    698.8154               741.2222               764.9533
 Red. masses --      1.0900                 2.1778                 2.1791
 Frc consts  --      0.3136                 0.7050                 0.7513
 IR Inten    --      0.3230                 4.5299                 1.8340

                     22                     23                     24
                      A                      A                      A
 Frequencies --    821.4315               846.7163               876.5560
 Red. masses --      1.3050                 1.8131                 1.9620
 Frc consts  --      0.5188                 0.7658                 0.8882
 IR Inten    --      7.1388                 0.2732                21.0734

                     25                     26                     27
                      A                      A                      A
 Frequencies --    908.9047               920.6268               956.1031
 Red. masses --      1.6251                 1.3330                 1.7773
 Frc consts  --      0.7910                 0.6656                 0.9572
 IR Inten    --    121.0251                53.8304                22.5880

                     28                     29                     30
                      A                      A                      A
 Frequencies --    984.7484               999.2025              1015.2249
 Red. masses --      1.8175                 1.8076                 1.4754
 Frc consts  --      1.0384                 1.0633                 0.8959
 IR Inten    --     21.6646                 2.6941                 1.3578

                     31                     32                     33
                      A                      A                      A
 Frequencies --   1043.3526              1060.5010              1071.6958
 Red. masses --      1.6104                 1.7327                 1.5268
 Frc consts  --      1.0329                 1.1482                 1.0332
 IR Inten    --      1.4966                 0.9033                 4.1874

                     34                     35                     36
                      A                      A                      A
 Frequencies --   1087.1559              1092.5022              1125.3044
 Red. masses --      1.6348                 1.7073                 1.8480
 Frc consts  --      1.1384                 1.2006                 1.3787
 IR Inten    --      1.3596                 0.3650                13.3388

                     37                     38                     39
                      A                      A                      A
 Frequencies --   1161.5431              1217.6498              1251.1846
 Red. masses --      1.8859                 1.3284                 1.3102
 Frc consts  --      1.4992                 1.1605                 1.2085
 IR Inten    --      5.3152                 1.2171                 0.4516

                     40                     41                     42
                      A                      A                      A
 Frequencies --   1258.0396              1278.9164              1311.1318
 Red. masses --      1.5419                 1.9869                 1.1849
 Frc consts  --      1.4378                 1.9148                 1.2001
 IR Inten    --      2.9555                 7.9700                 0.5082

                     43                     44                     45
                      A                      A                      A
 Frequencies --   1328.6791              1375.2093              1380.0222
 Red. masses --      1.1806                 1.4212                 1.4104
 Frc consts  --      1.2280                 1.5836                 1.5826
 IR Inten    --      4.4920                 6.7454                 1.8872

                     46                     47                     48
                      A                      A                      A
 Frequencies --   1406.4929              1421.5978              1431.8155
 Red. masses --      1.3926                 1.4746                 1.3681
 Frc consts  --      1.6231                 1.7558                 1.6525
 IR Inten    --      4.4563                 3.6865                 3.9439

                     49                     50                     51
                      A                      A                      A
 Frequencies --   1439.3074              1442.3131              1448.8749
 Red. masses --      1.2792                 1.2892                 1.4237
 Frc consts  --      1.5613                 1.5801                 1.7609
 IR Inten    --      1.9132                 3.0338                 4.0556

                     52                     53                     54
                      A                      A                      A
 Frequencies --   1471.7839              1508.9441              1511.8525
 Red. masses --      1.2049                 1.0530                 1.0654
 Frc consts  --      1.5378                 1.4126                 1.4348
 IR Inten    --      2.1156                 5.5276                 5.9125

                     55                     56                     57
                      A                      A                      A
 Frequencies --   1516.0415              1522.1872              1525.8178
 Red. masses --      1.0730                 1.0861                 1.0613
 Frc consts  --      1.4530                 1.4827                 1.4558
 IR Inten    --      5.6697                 1.5786                12.6097

                     58                     59                     60
                      A                      A                      A
 Frequencies --   1532.3726              1533.5661              1542.2777
 Red. masses --      1.0510                 1.0645                 1.0780
 Frc consts  --      1.4541                 1.4751                 1.5107
 IR Inten    --      4.8264                 3.4307                 3.1326

                     61                     62                     63
                      A                      A                      A
 Frequencies --   1698.6525              1740.2942              3001.5964
 Red. masses --      1.0893                 4.7842                 1.0821
 Frc consts  --      1.8518                 8.5369                 5.7443
 IR Inten    --     38.1304                11.0509                21.9213

                     64                     65                     66
                      A                      A                      A
 Frequencies --   3008.4053              3027.9789              3029.1617
 Red. masses --      1.0713                 1.0451                 1.0622
 Frc consts  --      5.7126                 5.6456                 5.7423
 IR Inten    --     24.6886                34.5338                 6.1790

                     67                     68                     69
                      A                      A                      A
 Frequencies --   3035.3271              3044.7835              3048.7843
 Red. masses --      1.0656                 1.0580                 1.0441
 Frc consts  --      5.7843                 5.7787                 5.7182
 IR Inten    --     56.2417                 6.2632                53.2545

                     70                     71                     72
                      A                      A                      A
 Frequencies --   3054.5611              3070.8115              3073.5849
 Red. masses --      1.0869                 1.0974                 1.0989
 Frc consts  --      5.9751                 6.0971                 6.1165
 IR Inten    --     26.9366                37.9684                41.3904

                     73                     74                     75
                      A                      A                      A
 Frequencies --   3078.6786              3084.6556              3112.2537
 Red. masses --      1.0960                 1.0973                 1.1020
 Frc consts  --      6.1205                 6.1515                 6.2893
 IR Inten    --     12.6207                70.3819                43.5970

                     76                     77                     78
                      A                      A                      A
 Frequencies --   3118.2749              3128.4093              3167.2046
 Red. masses --      1.1017                 1.0993                 1.0608
 Frc consts  --      6.3114                 6.3391                 6.2694
 IR Inten    --     50.0315                25.2480                 8.2564

                     79                     80                     81
                      A                      A                      A
 Frequencies --   3243.9888              3472.2138              3558.0577
 Red. masses --      1.1145                 1.0499                 1.0907
 Frc consts  --      6.9103                 7.4578                 8.1355
 IR Inten    --     19.7976                 3.0862                 1.2620

 - Thermochemistry -
 -------------------
 Temperature   298.150 Kelvin.  Pressure   1.00000 Atm.
 Atom     1 has atomic number  6 and mass  12.00000

 Molecular mass:   141.15175 amu.
 Principal axes and moments of inertia in atomic units:
                           1         2         3
     Eigenvalues --   811.946042579.424112778.48931
           X            0.99986   0.01676   0.00234
           Y           -0.01660   0.99825  -0.05669
           Z           -0.00329   0.05664   0.99839
 This molecule is an asymmetric top.
 Rotational symmetry number  1.
 Warning -- assumption of classical behavior for rotation
           may cause significant error
 Rotational temperatures (Kelvin)      0.10667     0.03358     0.03117
 Rotational constants (GHZ):           2.22274     0.69967     0.64954
 Zero-point vibrational energy     710224.9 (Joules/Mol)
                                  169.74783 (Kcal/Mol)
 Warning -- explicit consideration of  18 degrees of freedom as
           vibrations may cause significant error
 Vibrational temperatures:     67.20    91.29   108.40   173.11   250.57
          (Kelvin)            268.06   293.49   339.41   364.77   398.08
                              450.21   469.48   576.75   597.02   638.05
                              662.58   734.68   869.01  1005.44  1066.45
                             1100.60  1181.86  1218.24  1261.17  1307.71
                             1324.58  1375.62  1416.83  1437.63  1460.68
                             1501.15  1525.82  1541.93  1564.17  1571.87
                             1619.06  1671.20  1751.93  1800.18  1810.04
                             1840.08  1886.43  1911.67  1978.62  1985.54
                             2023.63  2045.36  2060.06  2070.84  2075.17
                             2084.61  2117.57  2171.03  2175.22  2181.25
                             2190.09  2195.31  2204.74  2206.46  2218.99
                             2443.98  2503.90  4318.63  4328.42  4356.59
                             4358.29  4367.16  4380.76  4386.52  4394.83
                             4418.21  4422.20  4429.53  4438.13  4477.84
                             4486.50  4501.08  4556.90  4667.38  4995.74
                             5119.25

 Zero-point correction=                           0.270510 (Hartree/Particle)
 Thermal correction to Energy=                    0.283055
 Thermal correction to Enthalpy=                  0.283999
 Thermal correction to Gibbs Free Energy=         0.232140
 Sum of electronic and zero-point Energies=           -408.905304
 Sum of electronic and thermal Energies=              -408.892759
 Sum of electronic and thermal Enthalpies=            -408.891815
 Sum of electronic and thermal Free Energies=         -408.943674

                     E (Thermal)             CV                S
                      KCal/Mol        Cal/Mol-Kelvin    Cal/Mol-Kelvin
 Total                  177.620             46.815            109.147
 Electronic               0.000              0.000              0.000
 Translational            0.889              2.981             40.745
 Rotational               0.889              2.981             30.143
 Vibrational            175.842             40.854             38.258
 Vibration     1          0.595              1.979              4.952
 Vibration     2          0.597              1.972              4.347
 Vibration     3          0.599              1.965              4.009
 Vibration     4          0.609              1.932              3.095
 Vibration     5          0.627              1.874              2.390
 Vibration     6          0.632              1.859              2.264
 Vibration     7          0.640              1.834              2.097
 Vibration     8          0.655              1.786              1.834
 Vibration     9          0.665              1.757              1.706
 Vibration    10          0.678              1.717              1.554
 Vibration    11          0.701              1.649              1.347
 Vibration    12          0.710              1.623              1.278
 Vibration    13          0.767              1.468              0.959
 Vibration    14          0.778              1.438              0.909
 Vibration    15          0.803              1.375              0.816
 Vibration    16          0.818              1.338              0.765
 Vibration    17          0.866              1.226              0.632
 Vibration    18          0.962              1.023              0.443

 Optimization completed.
    -- Stationary point found.

 1\1\GINC-NODE309\Freq\RB3LYP\6-31G(d)\C9H19N1\VSC10255\08-Dec-2020\0\\
 #N Geom=AllCheck Guess=TCheck SCRF=Check GenChk RB3LYP/6-31G(d) Freq\\
 CID_79185362_JID_655_neutraal\\0,1\C,0.7159589766,0.4603908875,-0.1949
 081387\C,0.9216714253,0.8942850309,-1.6478323921\C,1.3314372612,-0.244
 8860927,-2.5901240769\C,0.3102316962,-1.4048937558,-2.6551198249\C,-1.
 1672407505,-1.061322198,-2.9143480903\C,-1.4974878055,-0.2794300505,-4
 .1949898242\C,-1.1013066782,-0.8996536136,-5.5198526495\C,-0.885661146
 9,-2.2068993362,-5.694950879\C,-1.0117382763,0.0731038218,-6.668508247

 Normal termination of Gaussian 16 at Tue Dec  8 13:17:03 2020.

 ----------------------------------------------------------------------
 # B3LYP/6-311++G(d,p) empiricaldispersion=gd3bj scf=xqc pop=npa geom=c
 heck
 ----------------------------------------------------------------------

 -------------------------------------
 CID_79185362_JID_655_Energie_neutraal
 -------------------------------------
 Structure from the checkpoint file:  "JID_655.chk"
 Charge =  0 Multiplicity = 1

 SCF Done:  E(RB3LYP) =  -409.299794718     A.U. after   13 cycles
 Normal termination of Gaussian 16 at Tue Dec  8 13:23:33 2020.

 ----------------------------------------------------------------------
 # B3LYP/6-311++G(d,p) empiricaldispersion=gd3bj scf=xqc pop=npa geom=c
 heck
 ----------------------------------------------------------------------

 -----------------------------------
 CID_79185362_JID_655_Energie_kation
 -----------------------------------
 Structure from the checkpoint file:  "JID_655.chk"
 Charge =  1 Multiplicity = 2

 SCF Done:  E(UB3LYP) =  -408.988372700     A.U. after   19 cycles
 Normal termination of Gaussian 16 at Tue Dec  8 13:30:41 2020.
 Gaussian 16:  ES64L-G16RevA.03 25-Dec-2016

 ----------------------------------
 CID_79185362_JID_655_Energie_anion
 ----------------------------------
 Structure from the checkpoint file:  "JID_655.chk"
 Charge = -1 Multiplicity = 2

                         Standard orientation:
 ---------------------------------------------------------------------
 Center     Atomic      Atomic             Coordinates (Angstroms)
 Number     Number       Type             X           Y           Z
 ---------------------------------------------------------------------
      1          6           0       -3.507031   -0.390223   -0.450321
      2          6           0       -2.374375    0.638027   -0.487237
      3          6           0       -1.426909    0.570349    0.717446
      4          6           0       -0.725827   -0.797696    0.889607
      5          6           0       -0.013802   -1.410100   -0.329470
      6          6           0        1.087808   -0.574175   -0.998907
      7          6           0        2.268741   -0.154836   -0.146587
      8          6           0        2.636659   -0.780899    0.975347
      9          6           0        3.051241    1.015258   -0.687201
     10          7           0       -0.530704    1.739603    0.674850
     11          1           0       -3.129024   -1.417257   -0.502174
     12          1           0       -4.193075   -0.248268   -1.292428
     13          1           0       -4.090413   -0.298206    0.473779
     14          1           0       -1.797420    0.514147   -1.415275
     15          1           0       -2.791515    1.651417   -0.519683
     16          1           0       -2.045085    0.702610    1.618417
     17          1           0       -0.016019   -0.699237    1.719325
     18          1           0       -1.476052   -1.525585    1.227552
     19          1           0        0.409677   -2.375923   -0.024028
     20          1           0       -0.758364   -1.648816   -1.099321
     21          1           0        1.480972   -1.143040   -1.856301
     22          1           0        0.645233    0.322982   -1.449875
     23          1           0        3.515260   -0.467727    1.533285
     24          1           0        2.091188   -1.630483    1.373580
     25          1           0        3.377255    0.827534   -1.719353
     26          1           0        2.430630    1.921749   -0.717580
     27          1           0        3.937208    1.229921   -0.082483
     28          1           0        0.224723    1.616405    1.347945
     29          1           0       -0.079287    1.796332   -0.235392
 ---------------------------------------------------------------------

 SCF Done:  E(UB3LYP) =  -409.283229074     A.U. after   30 cycles

 The electronic state is 2-A.
 Alpha  occ. eigenvalues --  -14.18627 -10.09281 -10.07902 -10.06595 -10.06247
 Alpha  occ. eigenvalues --  -10.06206 -10.06167 -10.05812 -10.05801 -10.05075
 Alpha  occ. eigenvalues --   -0.78494  -0.71535  -0.67712  -0.65247  -0.59751
 Alpha  occ. eigenvalues --   -0.58264  -0.54811  -0.50771  -0.45372  -0.41565
 Alpha  occ. eigenvalues --   -0.38984  -0.37138  -0.36079  -0.34899  -0.34043
 Alpha  occ. eigenvalues --   -0.33389  -0.31012  -0.30194  -0.29486  -0.28248
 Alpha  occ. eigenvalues --   -0.27327  -0.26457  -0.25567  -0.24633  -0.23940
 Alpha  occ. eigenvalues --   -0.22414  -0.21936  -0.20957  -0.14739  -0.13673
 Alpha  occ. eigenvalues --    0.04693
 Alpha virt. eigenvalues --    0.06563   0.07543   0.07808   0.08919   0.09181
 Alpha virt. eigenvalues --    0.09545   0.10445   0.10840   0.11267   0.11728
 Alpha virt. eigenvalues --    0.12083   0.12468   0.13028   0.14069   0.14431

  Beta  occ. eigenvalues --  -14.18614 -10.09275 -10.07897 -10.06569 -10.06232
  Beta  occ. eigenvalues --  -10.06167 -10.06143 -10.05790 -10.05778 -10.05045
  Beta  occ. eigenvalues --   -0.78470  -0.71498  -0.67678  -0.65207  -0.59703
  Beta  occ. eigenvalues --   -0.58200  -0.54747  -0.50700  -0.45323  -0.41495
  Beta  occ. eigenvalues --   -0.38956  -0.37108  -0.36035  -0.34866  -0.33998
  Beta  occ. eigenvalues --   -0.33346  -0.30972  -0.30162  -0.29450  -0.28211
  Beta  occ. eigenvalues --   -0.27293  -0.26418  -0.25504  -0.24600  -0.23905
  Beta  occ. eigenvalues --   -0.22378  -0.21900  -0.20926  -0.14686  -0.13653
  Beta virt. eigenvalues --    0.06883   0.07477   0.08125   0.08391   0.09490
  Beta virt. eigenvalues --    0.09669   0.09939   0.10917   0.11245   0.11734
  Beta virt. eigenvalues --    0.12052   0.12397   0.12942   0.13563   0.14411

 Mulliken charges and spin densities:
               1          2
     1  C    1.311359  -1.982404
     2  C   -1.528861   1.417728
     3  C    0.515334  -0.891675
     4  C   -0.528606   0.364934
     5  C    0.822756  -1.045311
     6  C   -0.098260  -0.337924
     7  C   -1.768370   2.596997
     8  C    1.417380  -2.398861
     9  C    1.540436  -2.121049
    10  N   -0.203373  -0.011334
    11  H   -0.212376   0.353185
    12  H   -0.314155   0.452338
    13  H   -0.163662   0.292457
    14  H   -0.112852   0.238891
    15  H   -0.013015   0.183274
    16  H   -0.014754   0.212173
    17  H   -0.067624   0.192314
    18  H   -0.134000   0.289423
    19  H   -0.157257   0.320607
    20  H   -0.105480   0.270152
    21  H   -0.593673   0.807474
    22  H    0.232167  -0.138633
    23  H   -0.357034   0.478587
    24  H    0.132530  -0.007588
    25  H   -0.422588   0.583604
    26  H   -0.049021   0.181828
    27  H   -0.354359   0.495287
    28  H    0.171907   0.043647
    29  H    0.055448   0.159878
 Sum of Mulliken charges =  -1.00000   1.00000

 Dipole moment (field-independent basis, Debye):
    X=             -1.5922    Y=              1.2316    Z=              2.5691  Tot=              3.2637
 Quadrupole moment (field-independent basis, Debye-Ang):
   XX=           -141.3617   YY=           -106.3260   ZZ=           -101.9478
   XY=             -1.7591   XZ=              2.5819   YZ=             -3.2990

 Summary of Natural Population Analysis:

                                       Natural Population
                Natural  -----------------------------------------------
    Atom  No    Charge         Core      Valence    Rydberg      Total
 -----------------------------------------------------------------------
      C    1   -0.28550      0.99967     2.28091    0.00492     3.28550
      C    2   -0.19508      0.99961     2.18673    0.00873     3.19508
      C    3   -0.01073      0.99959     1.99965    0.01148     3.01073
      C    4   -0.19854      0.99960     2.18994    0.00899     3.19854
      C    5   -0.19331      0.99962     2.18359    0.01010     3.19331
      C    6   -0.20714      0.99957     2.19653    0.01104     3.20714
      C    7    0.00250      0.99953     1.98605    0.01192     2.99750
      C    8   -0.20737      0.99947     2.19955    0.00834     3.20737
      C    9   -0.29767      0.99962     2.29149    0.00656     3.29767
      N   10   -0.42121      0.99977     2.91283    0.00861     3.92121
      H   11    0.09830      0.00000     0.40037    0.00133     0.40170
      H   12    0.09924      0.00000     0.39976    0.00100     0.40076
      H   13    0.09511      0.00000     0.40370    0.00119     0.40489
      H   14    0.09376      0.00000     0.40490    0.00133     0.40624
      H   15    0.10024      0.00000     0.39857    0.00119     0.39976
      H   16    0.08509      0.00000     0.41319    0.00172     0.41491
      H   17    0.09791      0.00000     0.40064    0.00145     0.40209
      H   18    0.10023      0.00000     0.39854    0.00123     0.39977
      H   19    0.09929      0.00000     0.39938    0.00133     0.40071
      H   20    0.10061      0.00000     0.39792    0.00146     0.39939
      H   21    0.11063      0.00000     0.38729    0.00207     0.38937
      H   22    0.09347      0.00000     0.40460    0.00193     0.40653
      H   23    0.09349      0.00000     0.40545    0.00106     0.40651
      H   24    0.09426      0.00000     0.40455    0.00118     0.40574
      H   25    0.10590      0.00000     0.39217    0.00193     0.39410
      H   26    0.09922      0.00000     0.39942    0.00137     0.40078
      H   27    0.10229      0.00000     0.39653    0.00117     0.39771
      H   28    0.17466      0.00000     0.32320    0.00214     0.32534
      H   29    0.17034      0.00000     0.32679    0.00287     0.32966
 =======================================================================
   * Total *   -0.00000      9.99607    29.88426    0.11967    40.00000

 Normal termination of Gaussian 16 at Tue Dec  8 13:43:37 2020.
