 Gaussian 16, Revision A.03,

 -----------------------------------------------------------
 # opt freq B3LYP/6-31G(d) empiricaldispersion=gd3bj scf=xqc
 -----------------------------------------------------------

 -----------------------------
 CID_84731179_JID_450_neutraal
 -----------------------------
 Symbolic Z-matrix:
 Charge =  0 Multiplicity = 1

 SCF Done:  E(RB3LYP) =  -445.040836385     A.U. after   13 cycles
 SCF Done:  E(RB3LYP) =  -445.048154975     A.U. after   11 cycles
 SCF Done:  E(RB3LYP) =  -445.048007659     A.U. after   11 cycles
 SCF Done:  E(RB3LYP) =  -445.048833176     A.U. after   10 cycles
 SCF Done:  E(RB3LYP) =  -445.049156887     A.U. after   11 cycles
 SCF Done:  E(RB3LYP) =  -445.048959402     A.U. after   13 cycles
 SCF Done:  E(RB3LYP) =  -445.049521693     A.U. after   11 cycles
 SCF Done:  E(RB3LYP) =  -445.049111207     A.U. after   11 cycles
 SCF Done:  E(RB3LYP) =  -445.049485803     A.U. after   11 cycles
 SCF Done:  E(RB3LYP) =  -445.049530689     A.U. after   10 cycles
 SCF Done:  E(RB3LYP) =  -445.049795275     A.U. after    8 cycles
 SCF Done:  E(RB3LYP) =  -445.049795334     A.U. after    7 cycles
 SCF Done:  E(RB3LYP) =  -445.049795416     A.U. after    7 cycles
 SCF Done:  E(RB3LYP) =  -445.049795459     A.U. after    6 cycles
 SCF Done:  E(RB3LYP) =  -445.049795479     A.U. after    6 cycles
 SCF Done:  E(RB3LYP) =  -445.049795487     A.U. after    6 cycles
 Optimization completed.
    -- Stationary point found.
 Normal termination of Gaussian 16 at Tue Dec  8 10:48:08 2020.

 --------------------------------------------------------------------
 #N Geom=AllCheck Guess=TCheck SCRF=Check GenChk RB3LYP/6-31G(d) Freq
 --------------------------------------------------------------------

 Structure from the checkpoint file:  "JID_450.chk"
 -----------------------------
 CID_84731179_JID_450_neutraal
 -----------------------------
 Charge =  0 Multiplicity = 1

 SCF Done:  E(RB3LYP) =  -445.049795487     A.U. after    1 cycles

  Exact polarizability: 101.854  -0.937  87.997   0.678   2.212  86.905
 Approx polarizability: 124.627  -0.759 125.331   1.591   0.124 127.418

                      1                      2                      3
                      A                      A                      A
 Frequencies --     34.8556                58.6320                78.1702
 Red. masses --      2.7629                 2.2455                 2.5746
 Frc consts  --      0.0020                 0.0045                 0.0093
 IR Inten    --      0.0212                 0.3363                 0.7669

                      4                      5                      6
                      A                      A                      A
 Frequencies --    125.4182               195.9733               211.5509
 Red. masses --      2.3118                 2.4880                 2.8500
 Frc consts  --      0.0214                 0.0563                 0.0752
 IR Inten    --      0.0832                 2.7440                 1.9485

                      7                      8                      9
                      A                      A                      A
 Frequencies --    225.4667               265.8319               288.4231
 Red. masses --      1.2444                 1.1257                 1.2699
 Frc consts  --      0.0373                 0.0469                 0.0622
 IR Inten    --      1.7526                 0.5848                63.7090

                     10                     11                     12
                      A                      A                      A
 Frequencies --    311.3209               365.4448               396.0646
 Red. masses --      2.0167                 2.1589                 2.3247
 Frc consts  --      0.1152                 0.1699                 0.2149
 IR Inten    --     31.6782                 4.1384                 5.8788

                     13                     14                     15
                      A                      A                      A
 Frequencies --    403.7081               435.2705               452.2882
 Red. masses --      2.3612                 2.0198                 2.8412
 Frc consts  --      0.2267                 0.2255                 0.3424
 IR Inten    --      3.7779                 1.2023                 6.2947

                     16                     17                     18
                      A                      A                      A
 Frequencies --    520.1062               652.8578               721.1673
 Red. masses --      2.4720                 2.6684                 1.5197
 Frc consts  --      0.3940                 0.6701                 0.4657
 IR Inten    --      7.7024                 7.3129                 0.6779

                     19                     20                     21
                      A                      A                      A
 Frequencies --    761.6082               788.0794               858.9099
 Red. masses --      1.5640                 2.1567                 2.2715
 Frc consts  --      0.5345                 0.7892                 0.9873
 IR Inten    --      0.5976                 4.9350                 4.7138

                     22                     23                     24
                      A                      A                      A
 Frequencies --    885.4513               910.3504               956.4447
 Red. masses --      2.0550                 2.6308                 2.4555
 Frc consts  --      0.9493                 1.2846                 1.3234
 IR Inten    --      4.4873                37.7415                 0.5056

                     25                     26                     27
                      A                      A                      A
 Frequencies --    958.1693               993.5131              1019.6410
 Red. masses --      2.5064                 2.2895                 1.9732
 Frc consts  --      1.3558                 1.3315                 1.2087
 IR Inten    --      0.5708                 0.4728                13.7920

                     28                     29                     30
                      A                      A                      A
 Frequencies --   1039.8090              1073.7661              1093.1249
 Red. masses --      1.4449                 1.9898                 1.4725
 Frc consts  --      0.9204                 1.3517                 1.0367
 IR Inten    --      0.6492                 2.1555                 4.2019

                     31                     32                     33
                      A                      A                      A
 Frequencies --   1103.0869              1118.7905              1136.3147
 Red. masses --      2.1650                 2.2697                 1.2806
 Frc consts  --      1.5522                 1.6738                 0.9743
 IR Inten    --     48.4178                35.0000                11.6193

                     34                     35                     36
                      A                      A                      A
 Frequencies --   1161.2575              1193.3047              1212.8662
 Red. masses --      1.7563                 1.4315                 1.3254
 Frc consts  --      1.3954                 1.2010                 1.1487
 IR Inten    --     26.1009                 5.1083                 1.2151

                     37                     38                     39
                      A                      A                      A
 Frequencies --   1219.0796              1262.8804              1264.8700
 Red. masses --      1.6369                 1.2566                 1.5550
 Frc consts  --      1.4333                 1.1808                 1.4657
 IR Inten    --     14.3179                 4.6141                53.7951

                     40                     41                     42
                      A                      A                      A
 Frequencies --   1281.9258              1287.8569              1323.3866
 Red. masses --      1.3520                 1.6346                 1.6058
 Frc consts  --      1.3090                 1.5974                 1.6570
 IR Inten    --      1.2985                 7.7240                13.1278

                     43                     44                     45
                      A                      A                      A
 Frequencies --   1346.6977              1369.3286              1398.2418
 Red. masses --      2.2429                 1.5683                 1.5087
 Frc consts  --      2.3967                 1.7326                 1.7378
 IR Inten    --     12.8657                 6.2523                29.7576

                     46                     47                     48
                      A                      A                      A
 Frequencies --   1418.5339              1439.6330              1470.7305
 Red. masses --      1.3521                 1.6099                 1.1516
 Frc consts  --      1.6030                 1.9658                 1.4676
 IR Inten    --     25.4855                16.5555                 0.4136

                     49                     50                     51
                      A                      A                      A
 Frequencies --   1488.7251              1493.5687              1500.5195
 Red. masses --      1.1176                 1.0875                 1.0917
 Frc consts  --      1.4594                 1.4294                 1.4482
 IR Inten    --      0.6370                 2.0592                 5.5749

                     52                     53                     54
                      A                      A                      A
 Frequencies --   1502.8924              1508.7578              1511.3314
 Red. masses --      1.0663                 1.0786                 1.0786
 Frc consts  --      1.4190                 1.4466                 1.4515
 IR Inten    --     10.8522                 1.4787                14.8980

                     55                     56                     57
                      A                      A                      A
 Frequencies --   1525.3796              1534.5111              1541.5302
 Red. masses --      1.1303                 1.1190                 1.0582
 Frc consts  --      1.5495                 1.5524                 1.4815
 IR Inten    --      3.7714                 0.5504                 3.9605

                     58                     59                     60
                      A                      A                      A
 Frequencies --   1557.0445              2927.8462              2989.9242
 Red. masses --      1.0597                 1.0625                 1.0530
 Frc consts  --      1.5137                 5.3666                 5.5463
 IR Inten    --      5.3361                88.7879               102.2189

                     61                     62                     63
                      A                      A                      A
 Frequencies --   3016.8737              3034.4044              3051.8824
 Red. masses --      1.0700                 1.0673                 1.0840
 Frc consts  --      5.7378                 5.7902                 5.9488
 IR Inten    --     18.9282                55.2168                72.0094

                     64                     65                     66
                      A                      A                      A
 Frequencies --   3057.2441              3064.3779              3068.9470
 Red. masses --      1.0676                 1.0580                 1.0624
 Frc consts  --      5.8794                 5.8536                 5.8954
 IR Inten    --     73.2743                44.7282                38.1045

                     67                     68                     69
                      A                      A                      A
 Frequencies --   3073.7222              3078.6309              3104.1459
 Red. masses --      1.0843                 1.0748                 1.1031
 Frc consts  --      6.0359                 6.0021                 6.2623
 IR Inten    --      3.7107                20.9407                32.7995

                     70                     71                     72
                      A                      A                      A
 Frequencies --   3109.9541              3117.9071              3122.7030
 Red. masses --      1.1049                 1.0935                 1.1077
 Frc consts  --      6.2963                 6.2629                 6.3638
 IR Inten    --     10.5464                14.3562                11.8997

                     73                     74                     75
                      A                      A                      A
 Frequencies --   3134.5620              3135.0396              3737.9583
 Red. masses --      1.0970                 1.1070                 1.0661
 Frc consts  --      6.3506                 6.4101                 8.7764
 IR Inten    --     40.2495                49.1595                 6.3598

 - Thermochemistry -
 -------------------
 Temperature   298.150 Kelvin.  Pressure   1.00000 Atm.
 Atom     1 has atomic number  6 and mass  12.00000

 Molecular mass:   143.13101 amu.
 Principal axes and moments of inertia in atomic units:
                           1         2         3
     Eigenvalues --   810.922702214.717372280.63745
           X            0.99999  -0.00423  -0.00105
           Y            0.00434   0.98625   0.16522
           Z            0.00033  -0.16522   0.98626
 This molecule is an asymmetric top.
 Rotational symmetry number  1.
 Warning -- assumption of classical behavior for rotation
           may cause significant error
 Rotational temperatures (Kelvin)      0.10681     0.03911     0.03798
 Rotational constants (GHZ):           2.22554     0.81489     0.79133
 Zero-point vibrational energy     646465.5 (Joules/Mol)
                                  154.50895 (Kcal/Mol)
 Warning -- explicit consideration of  16 degrees of freedom as
           vibrations may cause significant error
 Vibrational temperatures:     50.15    84.36   112.47   180.45   281.96
          (Kelvin)            304.37   324.40   382.47   414.98   447.92
                              525.79   569.85   580.85   626.26   650.74
                              748.32   939.32  1037.60  1095.78  1133.87
                             1235.78  1273.97  1309.79  1376.11  1378.59
                             1429.44  1467.04  1496.05  1544.91  1572.76
                             1587.10  1609.69  1634.90  1670.79  1716.90
                             1745.04  1753.98  1817.00  1819.87  1844.41
                             1852.94  1904.06  1937.60  1970.16  2011.76
                             2040.95  2071.31  2116.05  2141.94  2148.91
                             2158.91  2162.33  2170.77  2174.47  2194.68
                             2207.82  2217.92  2240.24  4212.52  4301.83
                             4340.61  4365.83  4390.98  4398.69  4408.96
                             4415.53  4422.40  4429.46  4466.17  4474.53
                             4485.97  4492.87  4509.94  4510.62  5378.09

 Zero-point correction=                           0.246226 (Hartree/Particle)
 Thermal correction to Energy=                    0.257968
 Thermal correction to Enthalpy=                  0.258913
 Thermal correction to Gibbs Free Energy=         0.208413
 Sum of electronic and zero-point Energies=           -444.803570
 Sum of electronic and thermal Energies=              -444.791827
 Sum of electronic and thermal Enthalpies=            -444.790883
 Sum of electronic and thermal Free Energies=         -444.841383

                     E (Thermal)             CV                S
                      KCal/Mol        Cal/Mol-Kelvin    Cal/Mol-Kelvin
 Total                  161.878             43.724            106.286
 Electronic               0.000              0.000              0.000
 Translational            0.889              2.981             40.787
 Rotational               0.889              2.981             29.795
 Vibrational            160.100             37.762             35.704
 Vibration     1          0.594              1.983              5.532
 Vibration     2          0.596              1.974              4.503
 Vibration     3          0.599              1.964              3.936
 Vibration     4          0.610              1.928              3.015
 Vibration     5          0.636              1.845              2.171
 Vibration     6          0.643              1.823              2.030
 Vibration     7          0.650              1.802              1.915
 Vibration     8          0.672              1.736              1.623
 Vibration     9          0.685              1.695              1.483
 Vibration    10          0.700              1.652              1.355
 Vibration    11          0.739              1.543              1.099
 Vibration    12          0.763              1.479              0.977
 Vibration    13          0.769              1.462              0.949
 Vibration    14          0.796              1.393              0.842
 Vibration    15          0.811              1.356              0.789
 Vibration    16          0.875              1.205              0.610

 Optimization completed.
    -- Stationary point found.
 Normal termination of Gaussian 16 at Tue Dec  8 10:55:41 2020.

 ----------------------------------------------------------------------
 # B3LYP/6-311++G(d,p) empiricaldispersion=gd3bj scf=xqc pop=npa geom=c
 heck
 ----------------------------------------------------------------------

 -------------------------------------
 CID_84731179_JID_450_Energie_neutraal
 -------------------------------------
 Structure from the checkpoint file:  "JID_450.chk"
 Charge =  0 Multiplicity = 1

 SCF Done:  E(RB3LYP) =  -445.184835405     A.U. after   13 cycles
 Normal termination of Gaussian 16 at Tue Dec  8 10:59:14 2020.

 ----------------------------------------------------------------------
 # B3LYP/6-311++G(d,p) empiricaldispersion=gd3bj scf=xqc pop=npa geom=c
 heck
 ----------------------------------------------------------------------

 -----------------------------------
 CID_84731179_JID_450_Energie_kation
 -----------------------------------
 Structure from the checkpoint file:  "JID_450.chk"
 Charge =  1 Multiplicity = 2

 SCF Done:  E(UB3LYP) =  -444.905856234     A.U. after   18 cycles
 Normal termination of Gaussian 16 at Tue Dec  8 11:04:19 2020.
 Gaussian 16:  ES64L-G16RevA.03 25-Dec-2016

 ----------------------------------------------------------------------
 # B3LYP/6-311++G(d,p) empiricaldispersion=gd3bj scf=xqc pop=npa geom=c
 heck
 ----------------------------------------------------------------------

 ----------------------------------
 CID_84731179_JID_450_Energie_anion
 ----------------------------------
 Structure from the checkpoint file:  "JID_450.chk"
 Charge = -1 Multiplicity = 2

                         Standard orientation:
 ---------------------------------------------------------------------
 Center     Atomic      Atomic             Coordinates (Angstroms)
 Number     Number       Type             X           Y           Z
 ---------------------------------------------------------------------
      1          6           0       -1.998533    0.724306    1.266291
      2          7           0       -2.268891   -0.065832    0.080455
      3          6           0       -2.541543    0.740655   -1.088717
      4          6           0       -1.411035   -1.218490   -0.154558
      5          6           0       -0.015602   -1.028894   -0.791534
      6          6           0        1.071337   -0.354269    0.039166
      7          6           0        1.205911    1.204877    0.029038
      8          6           0        2.728197    1.066392   -0.242282
      9          6           0        2.508365   -0.433769   -0.567771
     10          8           0        0.989159   -0.904622    1.353013
     11          1           0       -2.900617    1.288130    1.539020
     12          1           0       -1.178854    1.453534    1.149709
     13          1           0       -1.738374    0.062685    2.096717
     14          1           0       -1.688440    1.366197   -1.419449
     15          1           0       -2.828130    0.094595   -1.926832
     16          1           0       -3.379400    1.417443   -0.880784
     17          1           0       -1.287365   -1.740739    0.798114
     18          1           0       -1.964212   -1.895862   -0.821254
     19          1           0        0.347303   -2.038186   -1.033143
     20          1           0       -0.099068   -0.498813   -1.748404
     21          1           0        0.663355    1.668732   -0.800653
     22          1           0        0.912129    1.705412    0.955850
     23          1           0        3.336758    1.226425    0.654289
     24          1           0        3.141419    1.685453   -1.043179
     25          1           0        3.169216   -1.164834   -0.090040
     26          1           0        2.489909   -0.633387   -1.644399
     27          1           0        1.690764   -0.503831    1.889355
 ---------------------------------------------------------------------

 SCF Done:  E(UB3LYP) =  -445.169585976     A.U. after   27 cycles

 The electronic state is 2-A.
 Alpha  occ. eigenvalues --  -19.00925 -14.19132 -10.11426 -10.07966 -10.07677
 Alpha  occ. eigenvalues --  -10.07307 -10.05385 -10.05258 -10.05209 -10.05126
 Alpha  occ. eigenvalues --   -0.91385  -0.81019  -0.72185  -0.64959  -0.59692
 Alpha  occ. eigenvalues --   -0.57209  -0.55352  -0.50750  -0.46200  -0.44681
 Alpha  occ. eigenvalues --   -0.39304  -0.37397  -0.36709  -0.35571  -0.34241
 Alpha  occ. eigenvalues --   -0.31124  -0.30233  -0.29804  -0.28917  -0.27536
 Alpha  occ. eigenvalues --   -0.27138  -0.25921  -0.25731  -0.23984  -0.23218
 Alpha  occ. eigenvalues --   -0.21763  -0.21008  -0.18421  -0.15244  -0.09747
 Alpha  occ. eigenvalues --    0.04819
 Alpha virt. eigenvalues --    0.07178   0.07999   0.08523   0.09590   0.09974
 Alpha virt. eigenvalues --    0.10260   0.11017   0.11195   0.12242   0.12853
 Alpha virt. eigenvalues --    0.12916   0.13408   0.14494   0.15438   0.15757

  Beta  occ. eigenvalues --  -19.00882 -14.19129 -10.11426 -10.07958 -10.07644
  Beta  occ. eigenvalues --  -10.07291 -10.05346 -10.05242 -10.05186 -10.05099
  Beta  occ. eigenvalues --   -0.91296  -0.81006  -0.72148  -0.64928  -0.59650
  Beta  occ. eigenvalues --   -0.57165  -0.55286  -0.50678  -0.46129  -0.44588
  Beta  occ. eigenvalues --   -0.39229  -0.37368  -0.36684  -0.35539  -0.34208
  Beta  occ. eigenvalues --   -0.31093  -0.30187  -0.29765  -0.28883  -0.27503
  Beta  occ. eigenvalues --   -0.27104  -0.25892  -0.25703  -0.23953  -0.23191
  Beta  occ. eigenvalues --   -0.21719  -0.20957  -0.18375  -0.15205  -0.09729
  Beta virt. eigenvalues --    0.07206   0.08246   0.08739   0.09076   0.10188
  Beta virt. eigenvalues --    0.10414   0.10761   0.11314   0.11540   0.12650
  Beta virt. eigenvalues --    0.13244   0.13449   0.13707   0.14681   0.15524

 Mulliken charges and spin densities:
               1          2
     1  C    0.112596  -0.513678
     2  N   -0.089232   0.192296
     3  C    0.472252  -0.845340
     4  C   -0.063543  -0.681747
     5  C    1.137719  -1.296880
     6  C   -1.797675   2.132180
     7  C    0.327035  -0.740439
     8  C    0.673589  -0.939232
     9  C    0.617359  -1.032093
    10  O   -0.217354  -0.001320
    11  H   -0.061411   0.202460
    12  H   -0.250372   0.370959
    13  H    0.088618   0.043448
    14  H   -0.245747   0.370533
    15  H   -0.271423   0.408314
    16  H   -0.172859   0.296040
    17  H    0.149450   0.032202
    18  H    0.040680   0.114214
    19  H   -0.000039   0.146036
    20  H   -0.159256   0.330587
    21  H   -0.143794   0.257136
    22  H    0.196440  -0.045009
    23  H   -0.412596   0.550841
    24  H   -0.363358   0.515198
    25  H   -0.034872   0.176248
    26  H   -0.289604   0.435039
    27  H   -0.242604   0.522008
 Sum of Mulliken charges =  -1.00000   1.00000

 Dipole moment (field-independent basis, Debye):
    X=             -2.3471    Y=             -1.9233    Z=              0.6208  Tot=              3.0974
 Quadrupole moment (field-independent basis, Debye-Ang):
   XX=           -121.0150   YY=            -96.4958   ZZ=           -104.3080
   XY=             -0.7531   XZ=             -5.2812   YZ=              2.5816

 Summary of Natural Population Analysis:

                                       Natural Population
                Natural  -----------------------------------------------
    Atom  No    Charge         Core      Valence    Rydberg      Total
 -----------------------------------------------------------------------
      C    1   -0.17212      0.99964     2.16534    0.00714     3.17212
      N    2   -0.28219      0.99973     2.76858    0.01388     3.78219
      C    3   -0.17647      0.99964     2.16803    0.00879     3.17647
      C    4   -0.07855      0.99960     2.06771    0.01124     3.07855
      C    5   -0.20675      0.99956     2.19707    0.01011     3.20675
      C    6    0.13083      0.99952     1.85189    0.01777     2.86917
      C    7   -0.20356      0.99960     2.19431    0.00965     3.20356
      C    8   -0.19537      0.99966     2.18691    0.00880     3.19537
      C    9   -0.19708      0.99960     2.18870    0.00877     3.19708
      O   10   -0.37768      0.99988     3.37117    0.00663     4.37768
      H   11    0.08709      0.00000     0.41173    0.00118     0.41291
      H   12    0.08230      0.00000     0.41595    0.00175     0.41770
      H   13    0.09863      0.00000     0.40022    0.00115     0.40137
      H   14    0.08158      0.00000     0.41675    0.00167     0.41842
      H   15    0.09402      0.00000     0.40478    0.00120     0.40598
      H   16    0.09215      0.00000     0.40673    0.00112     0.40785
      H   17    0.10110      0.00000     0.39734    0.00155     0.39890
      H   18    0.08941      0.00000     0.40944    0.00115     0.41059
      H   19    0.09993      0.00000     0.39879    0.00128     0.40007
      H   20    0.10174      0.00000     0.39652    0.00173     0.39826
      H   21    0.10237      0.00000     0.39534    0.00229     0.39763
      H   22    0.10058      0.00000     0.39755    0.00187     0.39942
      H   23    0.09702      0.00000     0.40053    0.00244     0.40298
      H   24    0.09758      0.00000     0.40081    0.00160     0.40242
      H   25    0.09966      0.00000     0.39901    0.00133     0.40034
      H   26    0.10015      0.00000     0.39825    0.00161     0.39985
      H   27    0.23363      0.00000     0.26052    0.00585     0.26637
 =======================================================================
   * Total *   -0.00000      9.99643    29.87001    0.13356    40.00000

 Normal termination of Gaussian 16 at Tue Dec  8 11:10:09 2020.
