 Gaussian 16, Revision A.03,

 -----------------------------------------------------------
 # opt freq B3LYP/6-31G(d) empiricaldispersion=gd3bj scf=xqc
 -----------------------------------------------------------

 ----------------------------
 CID_67729636_JID_17_neutraal
 ----------------------------
 Symbolic Z-matrix:
 Charge =  0 Multiplicity = 1

 SCF Done:  E(RB3LYP) =  -779.229071134     A.U. after   15 cycles
 SCF Done:  E(RB3LYP) =  -779.234483826     A.U. after   12 cycles
 SCF Done:  E(RB3LYP) =  -779.235256304     A.U. after   12 cycles
 SCF Done:  E(RB3LYP) =  -779.235644262     A.U. after   12 cycles
 SCF Done:  E(RB3LYP) =  -779.236029707     A.U. after   13 cycles
 SCF Done:  E(RB3LYP) =  -779.236273598     A.U. after   13 cycles
 SCF Done:  E(RB3LYP) =  -779.236470149     A.U. after   11 cycles
 SCF Done:  E(RB3LYP) =  -779.236547849     A.U. after   12 cycles
 SCF Done:  E(RB3LYP) =  -779.236557393     A.U. after    9 cycles
 SCF Done:  E(RB3LYP) =  -779.236559952     A.U. after    9 cycles
 SCF Done:  E(RB3LYP) =  -779.236560044     A.U. after    8 cycles
 Optimization completed.
    -- Stationary point found.
 Normal termination of Gaussian 16 at Tue Dec  8 10:15:42 2020.

 --------------------------------------------------------------------
 #N Geom=AllCheck Guess=TCheck SCRF=Check GenChk RB3LYP/6-31G(d) Freq
 --------------------------------------------------------------------

 Structure from the checkpoint file:  "JID_17.chk"
 ----------------------------
 CID_67729636_JID_17_neutraal
 ----------------------------
 Charge =  0 Multiplicity = 1

 SCF Done:  E(RB3LYP) =  -779.236560044     A.U. after    1 cycles

  Exact polarizability: 146.558   3.332  98.021   5.656  -2.417  57.013
 Approx polarizability: 236.691   5.868 163.093  11.225  -6.215  94.386

                      1                      2                      3
                      A                      A                      A
 Frequencies --     72.8420               142.3335               188.9421
 Red. masses --      5.1847                 3.9535                 2.6482
 Frc consts  --      0.0162                 0.0472                 0.0557
 IR Inten    --      2.2435                 0.5933                 1.8261

                      4                      5                      6
                      A                      A                      A
 Frequencies --    276.5434               337.3915               376.6638
 Red. masses --      4.3740                 5.9568                 5.1672
 Frc consts  --      0.1971                 0.3995                 0.4319
 IR Inten    --      1.0158                 4.3096                 4.2000

                      7                      8                      9
                      A                      A                      A
 Frequencies --    417.0818               472.3354               523.2545
 Red. masses --      5.4396                 2.9899                 4.6544
 Frc consts  --      0.5575                 0.3930                 0.7508
 IR Inten    --      4.8231                16.3370                 1.1723

                     10                     11                     12
                      A                      A                      A
 Frequencies --    525.3744               618.9799               669.4503
 Red. masses --      4.0319                 7.5735                 5.4210
 Frc consts  --      0.6557                 1.7096                 1.4314
 IR Inten    --      2.1216                 3.1116                 3.7608

                     13                     14                     15
                      A                      A                      A
 Frequencies --    721.7567               735.9752               764.4249
 Red. masses --      1.5197                 1.2654                 4.9153
 Frc consts  --      0.4664                 0.4038                 1.6923
 IR Inten    --     25.8193                37.2500                44.0904

                     16                     17                     18
                      A                      A                      A
 Frequencies --    780.1559               831.2313               906.3440
 Red. masses --      4.2572                 6.2183                 1.7466
 Frc consts  --      1.5267                 2.5314                 0.8454
 IR Inten    --      8.5498                32.8100                 3.1092

                     19                     20                     21
                      A                      A                      A
 Frequencies --    936.3401               944.7533               970.3298
 Red. masses --      1.2572                 1.2988                 2.9461
 Frc consts  --      0.6494                 0.6830                 1.6343
 IR Inten    --      5.6763                 4.7947                13.1565

                     22                     23                     24
                      A                      A                      A
 Frequencies --    978.5597               984.0664              1020.5482
 Red. masses --      2.6043                 1.6493                 3.8279
 Frc consts  --      1.4693                 0.9410                 2.3490
 IR Inten    --      9.8848                 5.9484                55.6454

                     25                     26                     27
                      A                      A                      A
 Frequencies --   1088.5072              1150.0423              1186.5182
 Red. masses --      2.9033                 1.5150                 1.1016
 Frc consts  --      2.0268                 1.1806                 0.9138
 IR Inten    --      8.6859                 2.0331                 4.5837

                     28                     29                     30
                      A                      A                      A
 Frequencies --   1199.4058              1275.5674              1283.3545
 Red. masses --      1.3420                 1.2524                 1.4142
 Frc consts  --      1.1374                 1.2006                 1.3723
 IR Inten    --      6.9763                44.8433               125.9257

                     31                     32                     33
                      A                      A                      A
 Frequencies --   1302.6603              1329.9166              1392.5211
 Red. masses --      1.5302                 1.6453                 1.2975
 Frc consts  --      1.5299                 1.7145                 1.4824
 IR Inten    --     36.4251                 3.8642                 5.4427

                     34                     35                     36
                      A                      A                      A
 Frequencies --   1423.5380              1445.3214              1489.3486
 Red. masses --      1.4083                 1.5552                 1.1088
 Frc consts  --      1.6815                 1.9141                 1.4491
 IR Inten    --     10.7231                38.6109                 5.9366

                     37                     38                     39
                      A                      A                      A
 Frequencies --   1503.2609              1611.1385              1722.5217
 Red. masses --      2.5364                 5.5631                 6.4845
 Frc consts  --      3.3770                 8.5081                11.3359
 IR Inten    --     52.1546               189.5648               254.4523

                     40                     41                     42
                      A                      A                      A
 Frequencies --   1731.5345              3037.0682              3058.3416
 Red. masses --      6.0062                 1.0658                 1.0872
 Frc consts  --     10.6100                 5.7923                 5.9913
 IR Inten    --      1.4019                29.7198                24.9589

                     43                     44                     45
                      A                      A                      A
 Frequencies --   3088.4122              3143.3045              3176.6510
 Red. masses --      1.0967                 1.0896                 1.0849
 Frc consts  --      6.1634                 6.3430                 6.4505
 IR Inten    --      7.5462                50.3486                 0.9826

                     46                     47                     48
                      A                      A                      A
 Frequencies --   3195.6023              3205.6882              3251.4809
 Red. masses --      1.0961                 1.0911                 1.0957
 Frc consts  --      6.5951                 6.6064                 6.8251
 IR Inten    --     21.7661                12.6850                 5.0150

 - Thermochemistry -
 -------------------
 Temperature   298.150 Kelvin.  Pressure   1.00000 Atm.
 Atom     1 has atomic number  6 and mass  12.00000

 Molecular mass:   152.04082 amu.
 Principal axes and moments of inertia in atomic units:
                           1         2         3
     Eigenvalues --   817.417361646.638562250.07493
           X            0.99987   0.00982   0.01267
           Y           -0.00961   0.99981  -0.01718
           Z           -0.01283   0.01706   0.99977
 This molecule is an asymmetric top.
 Rotational symmetry number  1.
 Warning -- assumption of classical behavior for rotation
           may cause significant error
 Rotational temperatures (Kelvin)      0.10596     0.05260     0.03849
 Rotational constants (GHZ):           2.20786     1.09602     0.80208
 Zero-point vibrational energy     373757.6 (Joules/Mol)
                                   89.33020 (Kcal/Mol)
 Warning -- explicit consideration of  11 degrees of freedom as
           vibrations may cause significant error
 Vibrational temperatures:    104.80   204.79   271.85   397.88   485.43
          (Kelvin)            541.94   600.09   679.59   752.85   755.90
                              890.57   963.19  1038.45  1058.90  1099.84
                             1122.47  1195.96  1304.03  1347.18  1359.29
                             1396.09  1407.93  1415.85  1468.34  1566.12
                             1654.65  1707.14  1725.68  1835.26  1846.46
                             1874.24  1913.45  2003.53  2048.15  2079.50
                             2142.84  2162.86  2318.07  2478.32  2491.29
                             4369.66  4400.27  4443.54  4522.51  4570.49
                             4597.76  4612.27  4678.16

 Zero-point correction=                           0.142357 (Hartree/Particle)
 Thermal correction to Energy=                    0.150508
 Thermal correction to Enthalpy=                  0.151453
 Thermal correction to Gibbs Free Energy=         0.109006
 Sum of electronic and zero-point Energies=           -779.094203
 Sum of electronic and thermal Energies=              -779.086052
 Sum of electronic and thermal Enthalpies=            -779.085107
 Sum of electronic and thermal Free Energies=         -779.127554

                     E (Thermal)             CV                S
                      KCal/Mol        Cal/Mol-Kelvin    Cal/Mol-Kelvin
 Total                   94.445             32.156             89.337
 Electronic               0.000              0.000              0.000
 Translational            0.889              2.981             40.967
 Rotational               0.889              2.981             29.495
 Vibrational             92.668             26.194             18.875
 Vibration     1          0.599              1.967              4.075
 Vibration     2          0.616              1.911              2.772
 Vibration     3          0.633              1.855              2.238
 Vibration     4          0.678              1.717              1.555
 Vibration     5          0.718              1.601              1.224
 Vibration     6          0.747              1.520              1.053
 Vibration     7          0.780              1.433              0.902
 Vibration     8          0.829              1.311              0.731
 Vibration     9          0.878              1.199              0.602
 Vibration    10          0.880              1.194              0.598
 Vibration    11          0.979              0.992              0.418

 Optimization completed.
    -- Stationary point found.
 Normal termination of Gaussian 16 at Tue Dec  8 10:18:43 2020.

 ----------------------------------------------------------------------
 # B3LYP/6-311++G(d,p) empiricaldispersion=gd3bj scf=xqc pop=npa geom=c
 heck
 ----------------------------------------------------------------------

 ------------------------------------
 CID_67729636_JID_17_Energie_neutraal
 ------------------------------------
 Structure from the checkpoint file:  "JID_17.chk"
 Charge =  0 Multiplicity = 1

 SCF Done:  E(RB3LYP) =  -779.364832488     A.U. after   15 cycles
 Normal termination of Gaussian 16 at Tue Dec  8 10:19:45 2020.

 ----------------------------------------------------------------------
 # B3LYP/6-311++G(d,p) empiricaldispersion=gd3bj scf=xqc pop=npa geom=c
 heck
 ----------------------------------------------------------------------

 ----------------------------------
 CID_67729636_JID_17_Energie_kation
 ----------------------------------
 Structure from the checkpoint file:  "JID_17.chk"
 Charge =  1 Multiplicity = 2

 SCF Done:  E(UB3LYP) =  -779.089287271     A.U. after   24 cycles
 Normal termination of Gaussian 16 at Tue Dec  8 10:21:50 2020.
 Gaussian 16:  ES64L-G16RevA.03 25-Dec-2016

 ----------------------------------------------------------------------
 # B3LYP/6-311++G(d,p) empiricaldispersion=gd3bj scf=xqc pop=npa geom=c
 heck
 ----------------------------------------------------------------------

 ---------------------------------
 CID_67729636_JID_17_Energie_anion
 ---------------------------------
 Structure from the checkpoint file:  "JID_17.chk"
 Charge = -1 Multiplicity = 2

                         Standard orientation:
 ---------------------------------------------------------------------
 Center     Atomic      Atomic             Coordinates (Angstroms)
 Number     Number       Type             X           Y           Z
 ---------------------------------------------------------------------
      1          6           0        2.470207   -0.273750    0.024859
      2          6           0        2.095432    1.174932    0.172604
      3          6           0        0.852741    1.680576    0.172521
      4          7           0       -0.310086    0.905611    0.195843
      5          6           0       -1.475795    1.342580   -0.368121
      6          6           0       -2.567615    0.542208   -0.434148
      7          6           0       -2.443905   -0.776393    0.137956
      8          7           0       -1.367799   -1.270301    0.650077
      9          6           0       -0.167359   -0.502505    0.598935
     10         16           0        1.086482   -1.343580   -0.532646
     11          1           0        3.243407   -0.370227   -0.746124
     12          1           0        2.903193   -0.670565    0.952730
     13          1           0        2.919391    1.881341    0.235699
     14          1           0        0.676867    2.753164    0.178319
     15          1           0       -1.456057    2.361329   -0.744009
     16          1           0       -3.499540    0.890408   -0.859125
     17          1           0       -3.328970   -1.414002    0.176531
     18          1           0        0.320950   -0.507218    1.579238
 ---------------------------------------------------------------------

 SCF Done:  E(UB3LYP) =  -779.362978023     A.U. after   33 cycles
 SCF Done:  E(UB3LYP) =  -779.362978023     a.u. after    1 cycles

 The electronic state is 2-A.
 Alpha  occ. eigenvalues --  -88.69291 -14.21204 -14.12572 -10.11751 -10.07380
 Alpha  occ. eigenvalues --  -10.07239 -10.04779 -10.03925 -10.03597 -10.00604
 Alpha  occ. eigenvalues --   -7.77955  -5.74303  -5.74025  -5.73320  -0.84342
 Alpha  occ. eigenvalues --   -0.75176  -0.68285  -0.62608  -0.61530  -0.52488
 Alpha  occ. eigenvalues --   -0.50951  -0.49085  -0.42699  -0.37815  -0.37068
 Alpha  occ. eigenvalues --   -0.34577  -0.32131  -0.30739  -0.30110  -0.28733
 Alpha  occ. eigenvalues --   -0.26249  -0.25663  -0.23909  -0.21114  -0.18830
 Alpha  occ. eigenvalues --   -0.18002  -0.12518  -0.10131  -0.09024  -0.05385
 Alpha  occ. eigenvalues --    0.05527
 Alpha virt. eigenvalues --    0.07866   0.09089   0.10204   0.10918   0.11295
 Alpha virt. eigenvalues --    0.12045   0.13513   0.13599   0.14858   0.14960
 Alpha virt. eigenvalues --    0.15776   0.17163   0.17568   0.19111   0.19340

  Beta  occ. eigenvalues --  -88.69284 -14.21187 -14.12186 -10.11769 -10.07361
  Beta  occ. eigenvalues --  -10.07199 -10.04307 -10.03689 -10.03483 -10.00638
  Beta  occ. eigenvalues --   -7.77947  -5.74300  -5.74009  -5.73311  -0.84077
  Beta  occ. eigenvalues --   -0.74565  -0.68034  -0.62244  -0.61279  -0.52375
  Beta  occ. eigenvalues --   -0.50653  -0.48495  -0.42518  -0.37509  -0.36786
  Beta  occ. eigenvalues --   -0.34316  -0.31977  -0.30553  -0.29757  -0.28553
  Beta  occ. eigenvalues --   -0.26135  -0.25370  -0.23527  -0.20705  -0.18034
  Beta  occ. eigenvalues --   -0.16925  -0.11470  -0.09688  -0.08827  -0.04509
  Beta virt. eigenvalues --    0.08207   0.09372   0.10328   0.10987   0.11321
  Beta virt. eigenvalues --    0.11405   0.12118   0.13602   0.13698   0.14925
  Beta virt. eigenvalues --    0.15421   0.15907   0.17163   0.17578   0.19160

 Mulliken charges and spin densities:
               1          2
     1  C   -0.264293  -0.314935
     2  C    0.174163  -0.331264
     3  C    0.007772  -0.040658
     4  N    0.221295   0.027846
     5  C    0.059582   0.254149
     6  C   -0.327315   0.054301
     7  C   -0.274880   0.147947
     8  N   -0.113597   0.178441
     9  C   -0.489271  -0.019994
    10  S   -0.062677   0.050751
    11  H    0.048298   0.094855
    12  H    0.139630   0.022485
    13  H   -0.296286   0.449345
    14  H   -0.238058   0.354062
    15  H   -0.025443   0.080339
    16  H    0.092509   0.022171
    17  H    0.123176  -0.020539
    18  H    0.225394  -0.009302
 Sum of Mulliken charges =  -1.00000   1.00000

 Dipole moment (field-independent basis, Debye):
    X=              0.9502    Y=              0.3468    Z=             -0.2521  Tot=              1.0424
 Quadrupole moment (field-independent basis, Debye-Ang):
   XX=            -95.1206   YY=            -95.0601   ZZ=            -79.9869
   XY=             -5.4020   XZ=              1.3070   YZ=             -1.2814

 Summary of Natural Population Analysis:

                                       Natural Population
                Natural  -----------------------------------------------
    Atom  No    Charge         Core      Valence    Rydberg      Total
 -----------------------------------------------------------------------
      C    1   -0.26932      0.99957     2.25533    0.01441     3.26932
      C    2   -0.12769      0.99956     2.11612    0.01201     3.12769
      C    3    0.01129      0.99950     1.97582    0.01339     2.98871
      N    4   -0.23721      0.99962     2.72579    0.01180     3.73721
      C    5    0.12323      0.99955     1.86315    0.01407     2.87677
      C    6   -0.20237      0.99957     2.19390    0.00891     3.20237
      C    7    0.09003      0.99962     1.89449    0.01585     2.90997
      N    8   -0.21905      0.99968     2.70677    0.01260     3.71905
      C    9    0.03848      0.99961     1.94051    0.02141     2.96152
      S   10    0.05806      4.99964     2.92589    0.01640     7.94194
      H   11    0.10699      0.00000     0.39136    0.00165     0.39301
      H   12    0.09674      0.00000     0.40136    0.00190     0.40326
      H   13    0.09656      0.00000     0.40188    0.00156     0.40344
      H   14    0.09333      0.00000     0.40489    0.00178     0.40667
      H   15    0.08430      0.00000     0.41446    0.00123     0.41570
      H   16    0.09627      0.00000     0.40247    0.00126     0.40373
      H   17    0.07287      0.00000     0.42571    0.00142     0.42713
      H   18    0.08750      0.00000     0.40995    0.00255     0.41250
 =======================================================================
   * Total *    0.00000     13.99593    25.84986    0.15421    40.00000

 Normal termination of Gaussian 16 at Tue Dec  8 10:24:54 2020.
