 Gaussian 16, Revision A.03,

 -----------------------------------------------------------
 # opt freq B3LYP/6-31G(d) empiricaldispersion=gd3bj scf=xqc
 -----------------------------------------------------------

 ------------------------------
 CID_62239083_JID_9686_neutraal
 ------------------------------
 Symbolic Z-matrix:
 Charge =  0 Multiplicity = 1

 SCF Done:  E(RB3LYP) =  -825.018659249     A.U. after   15 cycles
 SCF Done:  E(RB3LYP) =  -825.023509699     A.U. after   13 cycles
 SCF Done:  E(RB3LYP) =  -825.021459811     A.U. after   12 cycles
 SCF Done:  E(RB3LYP) =  -825.026302409     A.U. after   12 cycles
 SCF Done:  E(RB3LYP) =  -825.027755991     A.U. after   12 cycles
 SCF Done:  E(RB3LYP) =  -825.029240385     A.U. after   12 cycles
 SCF Done:  E(RB3LYP) =  -825.029908024     A.U. after   14 cycles
 SCF Done:  E(RB3LYP) =  -825.030332179     A.U. after   11 cycles
 SCF Done:  E(RB3LYP) =  -825.030430526     A.U. after   11 cycles
 SCF Done:  E(RB3LYP) =  -825.030474187     A.U. after   10 cycles
 SCF Done:  E(RB3LYP) =  -825.031612566     A.U. after    9 cycles
 SCF Done:  E(RB3LYP) =  -825.031612220     A.U. after   10 cycles
 SCF Done:  E(RB3LYP) =  -825.031613069     A.U. after    9 cycles
 SCF Done:  E(RB3LYP) =  -825.031613080     A.U. after    7 cycles
 SCF Done:  E(RB3LYP) =  -825.031613067     A.U. after    7 cycles
 Optimization completed.
    -- Stationary point found.
 Normal termination of Gaussian 16 at Sat Dec 12 10:53:56 2020.

 --------------------------------------------------------------------
 #N Geom=AllCheck Guess=TCheck SCRF=Check GenChk RB3LYP/6-31G(d) Freq
 --------------------------------------------------------------------

 Structure from the checkpoint file:  "JID_9686.chk"
 ------------------------------
 CID_62239083_JID_9686_neutraal
 ------------------------------
 Charge =  0 Multiplicity = 1

 SCF Done:  E(RB3LYP) =  -825.031613067     A.U. after    1 cycles

  Exact polarizability: 232.356   2.296 172.800   9.731  -1.956 134.644
 Approx polarizability: 293.441   6.082 283.647  22.426   4.271 208.944

                      1                      2                      3
                      A                      A                      A
 Frequencies --     18.3400                34.3260                62.4361
 Red. masses --      4.0531                 3.5674                 3.4607
 Frc consts  --      0.0008                 0.0025                 0.0079
 IR Inten    --      1.2324                 0.7286                 2.1634

                      4                      5                      6
                      A                      A                      A
 Frequencies --     64.9111                71.8979                94.3838
 Red. masses --      4.4548                 2.8921                 2.6103
 Frc consts  --      0.0111                 0.0088                 0.0137
 IR Inten    --      2.3039                 0.1312                 3.1891

                      7                      8                      9
                      A                      A                      A
 Frequencies --    116.5143               142.9564               180.0256
 Red. masses --      3.6855                 2.5316                 2.4768
 Frc consts  --      0.0295                 0.0305                 0.0473
 IR Inten    --      1.7932                 0.0997                 0.3198

                     10                     11                     12
                      A                      A                      A
 Frequencies --    195.8455               215.1172               237.9634
 Red. masses --      2.5997                 3.1999                 1.6502
 Frc consts  --      0.0587                 0.0872                 0.0551
 IR Inten    --      0.6558                 0.9462                 0.4376

                     13                     14                     15
                      A                      A                      A
 Frequencies --    248.4338               269.6049               285.6186
 Red. masses --      2.2090                 1.4643                 3.2457
 Frc consts  --      0.0803                 0.0627                 0.1560
 IR Inten    --      1.1457                 1.0466                 4.5801

                     16                     17                     18
                      A                      A                      A
 Frequencies --    291.3558               332.5294               334.3097
 Red. masses --      2.2698                 2.8240                 2.8330
 Frc consts  --      0.1135                 0.1840                 0.1865
 IR Inten    --      0.5281                 1.1377                 1.2764

                     19                     20                     21
                      A                      A                      A
 Frequencies --    354.0099               369.3484               383.4747
 Red. masses --      1.0697                 3.1759                 3.7428
 Frc consts  --      0.0790                 0.2553                 0.3243
 IR Inten    --      0.7442                 8.6668                16.9615

                     22                     23                     24
                      A                      A                      A
 Frequencies --    398.9288               446.5726               455.7955
 Red. masses --      3.4301                 3.9596                 2.0740
 Frc consts  --      0.3216                 0.4652                 0.2539
 IR Inten    --      2.4644                 4.1512                37.5349

                     25                     26                     27
                      A                      A                      A
 Frequencies --    481.2457               499.1330               522.0362
 Red. masses --      3.5509                 2.8887                 1.8930
 Frc consts  --      0.4845                 0.4240                 0.3039
 IR Inten    --     19.1516                 1.4049                46.9801

                     28                     29                     30
                      A                      A                      A
 Frequencies --    549.5953               631.3395               636.5012
 Red. masses --      2.7952                 3.1200                 3.3828
 Frc consts  --      0.4975                 0.7327                 0.8075
 IR Inten    --     11.5974                 5.6234                18.9656

                     31                     32                     33
                      A                      A                      A
 Frequencies --    638.4182               676.8225               726.0331
 Red. masses --      3.6572                 3.9557                 4.2631
 Frc consts  --      0.8782                 1.0676                 1.3240
 IR Inten    --      8.5061                 9.4939                 3.1843

                     34                     35                     36
                      A                      A                      A
 Frequencies --    753.9857               770.8620               797.4131
 Red. masses --      1.9503                 3.2861                 3.2402
 Frc consts  --      0.6533                 1.1505                 1.2139
 IR Inten    --      1.5883                26.7831                19.3178

                     37                     38                     39
                      A                      A                      A
 Frequencies --    818.7675               835.5322               851.4159
 Red. masses --      2.7187                 1.2019                 2.2443
 Frc consts  --      1.0738                 0.4944                 0.9586
 IR Inten    --     20.6770                 2.3816                 5.1193

                     40                     41                     42
                      A                      A                      A
 Frequencies --    869.9720               875.7179               882.4166
 Red. masses --      1.6988                 2.2350                 1.5217
 Frc consts  --      0.7575                 1.0099                 0.6981
 IR Inten    --      2.9737                 3.1414                 3.5757

                     43                     44                     45
                      A                      A                      A
 Frequencies --    903.6834               928.1084               976.4248
 Red. masses --      2.2987                 2.1857                 1.8074
 Frc consts  --      1.1060                 1.1093                 1.0153
 IR Inten    --      3.1737                 4.5392                 6.5059

                     46                     47                     48
                      A                      A                      A
 Frequencies --    985.0327               985.9070               987.9268
 Red. masses --      1.5885                 1.3417                 1.7085
 Frc consts  --      0.9081                 0.7684                 0.9825
 IR Inten    --      1.1994                 0.5815                 0.7123

                     49                     50                     51
                      A                      A                      A
 Frequencies --    999.5981              1011.0281              1053.3121
 Red. masses --      3.4326                 3.2168                 1.8870
 Frc consts  --      2.0208                 1.9373                 1.2335
 IR Inten    --     10.4506                 5.1886                 2.0941

                     52                     53                     54
                      A                      A                      A
 Frequencies --   1061.2568              1086.7448              1102.1919
 Red. masses --      1.3955                 2.2922                 1.6408
 Frc consts  --      0.9260                 1.5950                 1.1744
 IR Inten    --      2.3001                 4.5810                24.9834

                     55                     56                     57
                      A                      A                      A
 Frequencies --   1119.9512              1132.7374              1144.2790
 Red. masses --      1.6324                 1.8692                 2.3303
 Frc consts  --      1.2063                 1.4131                 1.7977
 IR Inten    --      9.0189                33.7476                44.8467

                     58                     59                     60
                      A                      A                      A
 Frequencies --   1177.7357              1178.7291              1183.7134
 Red. masses --      1.5186                 2.2979                 2.6804
 Frc consts  --      1.2411                 1.8811                 2.2128
 IR Inten    --      5.6399                28.2122                49.8527

                     61                     62                     63
                      A                      A                      A
 Frequencies --   1192.5225              1213.3347              1231.2673
 Red. masses --      1.2716                 2.4016                 2.0255
 Frc consts  --      1.0654                 2.0831                 1.8092
 IR Inten    --     30.3120                16.9497                40.8136

                     64                     65                     66
                      A                      A                      A
 Frequencies --   1236.9705              1267.1644              1306.8536
 Red. masses --      1.6387                 1.8928                 1.6455
 Frc consts  --      1.4773                 1.7907                 1.6558
 IR Inten    --      9.9612                17.6269                13.0564

                     67                     68                     69
                      A                      A                      A
 Frequencies --   1308.4935              1313.8042              1344.0431
 Red. masses --      1.6032                 1.2318                 1.6019
 Frc consts  --      1.6172                 1.2527                 1.7049
 IR Inten    --     26.7670                16.9397                73.2744

                     70                     71                     72
                      A                      A                      A
 Frequencies --   1360.1667              1371.1195              1373.2241
 Red. masses --      1.7338                 1.5057                 1.8763
 Frc consts  --      1.8899                 1.6678                 2.0847
 IR Inten    --     60.8125                45.7635                92.4976

                     73                     74                     75
                      A                      A                      A
 Frequencies --   1386.0289              1402.8000              1406.2093
 Red. masses --      1.4339                 1.4337                 1.4310
 Frc consts  --      1.6230                 1.6623                 1.6672
 IR Inten    --      4.7341                 5.5336                 6.1163

                     76                     77                     78
                      A                      A                      A
 Frequencies --   1408.2909              1421.3583              1434.5213
 Red. masses --      1.7935                 1.3603                 1.6875
 Frc consts  --      2.0957                 1.6192                 2.0460
 IR Inten    --     12.5283                13.5163                14.2168

                     79                     80                     81
                      A                      A                      A
 Frequencies --   1437.4100              1443.7279              1447.7155
 Red. masses --      1.2866                 1.2466                 1.4772
 Frc consts  --      1.5662                 1.5309                 1.8241
 IR Inten    --     12.5499                12.4725                35.3404

                     82                     83                     84
                      A                      A                      A
 Frequencies --   1480.0667              1507.0083              1512.6020
 Red. masses --      1.7669                 1.1006                 1.0944
 Frc consts  --      2.2805                 1.4726                 1.4752
 IR Inten    --    126.9138                 2.0405                10.9429

                     85                     86                     87
                      A                      A                      A
 Frequencies --   1516.7144              1521.4649              1523.4335
 Red. masses --      2.5767                 1.0737                 1.0517
 Frc consts  --      3.4924                 1.4644                 1.4380
 IR Inten    --     89.5604                12.8748                 9.8422

                     88                     89                     90
                      A                      A                      A
 Frequencies --   1527.0096              1531.9200              1532.8176
 Red. masses --      1.0746                 1.0642                 1.0775
 Frc consts  --      1.4763                 1.4714                 1.4916
 IR Inten    --      7.1951                36.6746                 7.0739

                     91                     92                     93
                      A                      A                      A
 Frequencies --   1539.9632              1542.4495              1557.7374
 Red. masses --      1.0610                 1.0659                 1.9536
 Frc consts  --      1.4825                 1.4941                 2.7931
 IR Inten    --     10.9085                13.1442               162.2229

                     94                     95                     96
                      A                      A                      A
 Frequencies --   1560.5286              1637.8647              1652.2495
 Red. masses --      1.1827                 5.2758                 5.9813
 Frc consts  --      1.6969                 8.3387                 9.6205
 IR Inten    --      0.2723                53.1199               300.4890

                     97                     98                     99
                      A                      A                      A
 Frequencies --   1714.0553              2987.0849              3028.3135
 Red. masses --     12.1228                 1.0712                 1.0636
 Frc consts  --     20.9847                 5.6316                 5.7467
 IR Inten    --    231.5031                60.0921                14.8607

                    100                    101                    102
                      A                      A                      A
 Frequencies --   3034.6483              3047.7651              3047.8844
 Red. masses --      1.0645                 1.0853                 1.0601
 Frc consts  --      5.7758                 5.9396                 5.8020
 IR Inten    --     23.1891                24.4684                22.9247

                    103                    104                    105
                      A                      A                      A
 Frequencies --   3054.6415              3055.8114              3062.2599
 Red. masses --      1.0423                 1.0573                 1.0639
 Frc consts  --      5.7299                 5.8168                 5.8779
 IR Inten    --     26.6186                 2.4261                27.0871

                    106                    107                    108
                      A                      A                      A
 Frequencies --   3064.3431              3075.3317              3080.7074
 Red. masses --      1.0455                 1.0922                 1.1006
 Frc consts  --      5.7840                 6.0862                 6.1543
 IR Inten    --     28.5730                56.7762                41.1752

                    109                    110                    111
                      A                      A                      A
 Frequencies --   3093.4474              3118.4842              3120.6518
 Red. masses --      1.1040                 1.0987                 1.1015
 Frc consts  --      6.2242                 6.2953                 6.3202
 IR Inten    --     55.9941                19.2618                34.8115

                    112                    113                    114
                      A                      A                      A
 Frequencies --   3129.8263              3130.8852              3137.5976
 Red. masses --      1.1006                 1.0984                 1.1026
 Frc consts  --      6.3523                 6.3438                 6.3952
 IR Inten    --     11.7075                58.5771                26.7703

                    115                    116                    117
                      A                      A                      A
 Frequencies --   3147.9381              3176.8501              3193.2659
 Red. masses --      1.0885                 1.1009                 1.0886
 Frc consts  --      6.3554                 6.5461                 6.5401
 IR Inten    --     17.5875                 7.7013                15.2421

                    118                    119                    120
                      A                      A                      A
 Frequencies --   3225.2010              3233.5029              3589.0673
 Red. masses --      1.0918                 1.0943                 1.0757
 Frc consts  --      6.6914                 6.7414                 8.1638
 IR Inten    --     16.6645                 3.1730                21.8446

 - Thermochemistry -
 -------------------
 Temperature   298.150 Kelvin.  Pressure   1.00000 Atm.
 Atom     1 has atomic number  6 and mass  12.00000

 Molecular mass:   261.18411 amu.
 Principal axes and moments of inertia in atomic units:
                           1         2         3
     Eigenvalues --  2459.922789156.129469740.88000
           X            0.99999   0.00419  -0.00284
           Y           -0.00432   0.99886  -0.04764
           Z            0.00264   0.04765   0.99886
 This molecule is an asymmetric top.
 Rotational symmetry number  1.
 Warning -- assumption of classical behavior for rotation
           may cause significant error
 Rotational temperatures (Kelvin)      0.03521     0.00946     0.00889
 Rotational constants (GHZ):           0.73366     0.19711     0.18527
 Zero-point vibrational energy     971611.1 (Joules/Mol)
                                  232.22062 (Kcal/Mol)
 Warning -- explicit consideration of  28 degrees of freedom as
           vibrations may cause significant error
 Vibrational temperatures:     26.39    49.39    89.83    93.39   103.45
          (Kelvin)            135.80   167.64   205.68   259.02   281.78
                              309.51   342.38   357.44   387.90   410.94
                              419.20   478.44   481.00   509.34   531.41
                              551.73   573.97   642.52   655.79   692.41
                              718.14   751.09   790.75   908.36   915.78
                              918.54   973.80  1044.60  1084.82  1109.10
                             1147.30  1178.02  1202.14  1225.00  1251.70
                             1259.96  1269.60  1300.20  1335.34  1404.86
                             1417.24  1418.50  1421.41  1438.20  1454.64
                             1515.48  1526.91  1563.58  1585.81  1611.36
                             1629.76  1646.36  1694.50  1695.93  1703.10
                             1715.77  1745.72  1771.52  1779.72  1823.17
                             1880.27  1882.63  1890.27  1933.78  1956.98
                             1972.74  1975.76  1994.19  2018.32  2023.22
                             2026.22  2045.02  2063.96  2068.11  2077.20
                             2082.94  2129.49  2168.25  2176.30  2182.21
                             2189.05  2191.88  2197.03  2204.09  2205.38
                             2215.66  2219.24  2241.24  2245.25  2356.52
                             2377.22  2466.14  4297.75  4357.07  4366.18
                             4385.05  4385.23  4394.95  4396.63  4405.91
                             4408.91  4424.72  4432.45  4450.78  4486.80
                             4489.92  4503.12  4504.65  4514.30  4529.18
                             4570.78  4594.40  4640.34  4652.29  5163.87

 Zero-point correction=                           0.370067 (Hartree/Particle)
 Thermal correction to Energy=                    0.388800
 Thermal correction to Enthalpy=                  0.389744
 Thermal correction to Gibbs Free Energy=         0.322296
 Sum of electronic and zero-point Energies=           -824.661546
 Sum of electronic and thermal Energies=              -824.642813
 Sum of electronic and thermal Enthalpies=            -824.641869
 Sum of electronic and thermal Free Energies=         -824.709317

                     E (Thermal)             CV                S
                      KCal/Mol        Cal/Mol-Kelvin    Cal/Mol-Kelvin
 Total                  243.976             72.392            141.957
 Electronic               0.000              0.000              0.000
 Translational            0.889              2.981             42.580
 Rotational               0.889              2.981             33.750
 Vibrational            242.198             66.430             65.627
 Vibration     1          0.593              1.986              6.806
 Vibration     2          0.594              1.983              5.562
 Vibration     3          0.597              1.972              4.379
 Vibration     4          0.597              1.971              4.302
 Vibration     5          0.598              1.967              4.101
 Vibration     6          0.603              1.953              3.567
 Vibration     7          0.608              1.936              3.157
 Vibration     8          0.616              1.910              2.764
 Vibration     9          0.629              1.867              2.328
 Vibration    10          0.636              1.846              2.172
 Vibration    11          0.645              1.818              2.000
 Vibration    12          0.656              1.783              1.818
 Vibration    13          0.662              1.765              1.742
 Vibration    14          0.674              1.729              1.599
 Vibration    15          0.683              1.700              1.500
 Vibration    16          0.687              1.690              1.466
 Vibration    17          0.714              1.611              1.248
 Vibration    18          0.716              1.607              1.239
 Vibration    19          0.730              1.567              1.148
 Vibration    20          0.742              1.535              1.082
 Vibration    21          0.753              1.505              1.025
 Vibration    22          0.765              1.472              0.967
 Vibration    23          0.806              1.368              0.806
 Vibration    24          0.814              1.348              0.778
 Vibration    25          0.838              1.292              0.707
 Vibration    26          0.855              1.252              0.660
 Vibration    27          0.877              1.201              0.605
 Vibration    28          0.905              1.141              0.545

 Optimization completed.
    -- Stationary point found.
 Normal termination of Gaussian 16 at Sat Dec 12 11:13:42 2020.

 ----------------------------------------------------------------------
 # B3LYP/6-311++G(d,p) empiricaldispersion=gd3bj scf=xqc pop=npa geom=c
 heck
 ----------------------------------------------------------------------

 --------------------------------------
 CID_62239083_JID_9686_Energie_neutraal
 --------------------------------------
 Structure from the checkpoint file:  "JID_9686.chk"
 Charge =  0 Multiplicity = 1

 SCF Done:  E(RB3LYP) =  -825.256939414     A.U. after   16 cycles
 Normal termination of Gaussian 16 at Sat Dec 12 11:22:28 2020.

 ----------------------------------------------------------------------
 # B3LYP/6-311++G(d,p) empiricaldispersion=gd3bj scf=xqc pop=npa geom=c
 heck
 ----------------------------------------------------------------------

 ------------------------------------
 CID_62239083_JID_9686_Energie_kation
 ------------------------------------
 Structure from the checkpoint file:  "JID_9686.chk"
 Charge =  1 Multiplicity = 2

 SCF Done:  E(UB3LYP) =  -824.979746230     A.U. after   27 cycles
 Normal termination of Gaussian 16 at Sat Dec 12 11:42:07 2020.
 Gaussian 16:  ES64L-G16RevA.03 25-Dec-2016

 ----------------------------------------------------------------------
 # B3LYP/6-311++G(d,p) empiricaldispersion=gd3bj scf=xqc pop=npa geom=c
 heck
 ----------------------------------------------------------------------

 -----------------------------------
 CID_62239083_JID_9686_Energie_anion
 -----------------------------------
 Structure from the checkpoint file:  "JID_9686.chk"
 Charge = -1 Multiplicity = 2

                         Standard orientation:
 ---------------------------------------------------------------------
 Center     Atomic      Atomic             Coordinates (Angstroms)
 Number     Number       Type             X           Y           Z
 ---------------------------------------------------------------------
      1          6           0        5.555990    2.075571   -0.090180
      2          6           0        4.889896    0.706724   -0.000695
      3          7           0        3.444338    0.848375   -0.009196
      4          6           0        2.586594   -0.227007   -0.046671
      5          6           0        2.992244   -1.533077    0.296613
      6          6           0        2.046471   -2.549065    0.239324
      7          6           0        0.738584   -2.261057   -0.148701
      8          6           0        0.430090   -0.930068   -0.437246
      9          7           0        1.321759    0.064324   -0.402903
     10          6           0       -0.951059   -0.598916   -0.946137
     11          8           0       -1.324619   -1.187742   -1.962028
     12          7           0       -1.701131    0.382013   -0.337093
     13          6           0       -2.966003    0.712250   -1.041947
     14          6           0       -4.111367   -0.146783   -0.479420
     15          6           0       -4.232796   -0.016603    1.043546
     16          6           0       -2.879279   -0.248430    1.725559
     17          6           0       -1.773243    0.641315    1.124530
     18          6           0       -0.481254    0.535295    1.930946
     19          6           0       -3.248657    2.217728   -1.020534
     20          1           0        5.292182    2.580142   -1.027424
     21          1           0        6.645046    1.974898   -0.059404
     22          1           0        5.243700    2.713753    0.743135
     23          1           0        5.234109    0.062927   -0.827284
     24          1           0        5.194281    0.213627    0.931708
     25          1           0        3.068082    1.659998   -0.483748
     26          1           0        4.013923   -1.739832    0.592856
     27          1           0        2.333139   -3.566886    0.489707
     28          1           0       -0.019797   -3.029387   -0.240021
     29          1           0       -2.798519    0.415720   -2.076725
     30          1           0       -3.900228   -1.189629   -0.745077
     31          1           0       -5.055069    0.127037   -0.967540
     32          1           0       -4.977472   -0.725330    1.425322
     33          1           0       -4.598364    0.985484    1.306684
     34          1           0       -2.571876   -1.297939    1.612551
     35          1           0       -2.956286   -0.050126    2.802088
     36          1           0       -2.098747    1.684008    1.209196
     37          1           0        0.313575    1.144674    1.500575
     38          1           0       -0.697458    0.894276    2.943465
     39          1           0       -0.120854   -0.493545    2.012761
     40          1           0       -2.364526    2.774923   -1.346259
     41          1           0       -4.068166    2.438780   -1.713149
     42          1           0       -3.545730    2.594120   -0.036774
 ---------------------------------------------------------------------

 SCF Done:  E(UB3LYP) =  -825.247482065     A.U. after   33 cycles
 SCF Done:  E(UB3LYP) =  -825.247482065     a.u. after    1 cycles

 The electronic state is 2-A.
 Alpha  occ. eigenvalues --  -18.98124 -14.23265 -14.22133 -14.18756 -10.16054
 Alpha  occ. eigenvalues --  -10.13527 -10.11717 -10.11018 -10.10693 -10.09722
 Alpha  occ. eigenvalues --  -10.07941 -10.07774 -10.07600 -10.07512 -10.07408
 Alpha  occ. eigenvalues --  -10.07055 -10.06272 -10.06252 -10.06028  -0.93245
 Alpha  occ. eigenvalues --   -0.86384  -0.83478  -0.80227  -0.70851  -0.69663
 Alpha  occ. eigenvalues --   -0.69359  -0.67424  -0.63932  -0.62884  -0.59028
 Alpha  occ. eigenvalues --   -0.56418  -0.54166  -0.52673  -0.52074  -0.50770
 Alpha  occ. eigenvalues --   -0.48271  -0.43967  -0.41828  -0.41224  -0.38595
 Alpha  occ. eigenvalues --   -0.38340  -0.37833  -0.37374  -0.36839  -0.35730
 Alpha  occ. eigenvalues --   -0.34605  -0.34051  -0.32361  -0.31678  -0.31475
 Alpha  occ. eigenvalues --   -0.31423  -0.30110  -0.29666  -0.29349  -0.28638
 Alpha  occ. eigenvalues --   -0.28329  -0.27927  -0.27687  -0.27402  -0.26372
 Alpha  occ. eigenvalues --   -0.25726  -0.24576  -0.24174  -0.23133  -0.22413
 Alpha  occ. eigenvalues --   -0.20307  -0.17775  -0.16612  -0.15018  -0.13385
 Alpha  occ. eigenvalues --   -0.10840   0.04090
 Alpha virt. eigenvalues --    0.05408   0.05885   0.07017   0.07225   0.07538
 Alpha virt. eigenvalues --    0.08205   0.08742   0.09272   0.09347   0.09653
 Alpha virt. eigenvalues --    0.09744   0.10258   0.11031   0.11262   0.11773

  Beta  occ. eigenvalues --  -18.98074 -14.23246 -14.22130 -14.18619 -10.16023
  Beta  occ. eigenvalues --  -10.13551 -10.11706 -10.11001 -10.10691 -10.09589
  Beta  occ. eigenvalues --  -10.07928 -10.07765 -10.07509 -10.07491 -10.07367
  Beta  occ. eigenvalues --  -10.07031 -10.06311 -10.06154 -10.06020  -0.93143
  Beta  occ. eigenvalues --   -0.86277  -0.83424  -0.80091  -0.70816  -0.69639
  Beta  occ. eigenvalues --   -0.69151  -0.67324  -0.63883  -0.62765  -0.59006
  Beta  occ. eigenvalues --   -0.56269  -0.54094  -0.52531  -0.52017  -0.50713
  Beta  occ. eigenvalues --   -0.48189  -0.43878  -0.41791  -0.41140  -0.38558
  Beta  occ. eigenvalues --   -0.38292  -0.37775  -0.37327  -0.36762  -0.35692
  Beta  occ. eigenvalues --   -0.34542  -0.33993  -0.32307  -0.31545  -0.31424
  Beta  occ. eigenvalues --   -0.31311  -0.30014  -0.29608  -0.29260  -0.28539
  Beta  occ. eigenvalues --   -0.28285  -0.27883  -0.27611  -0.27334  -0.26276
  Beta  occ. eigenvalues --   -0.25613  -0.24539  -0.24118  -0.23102  -0.22383
  Beta  occ. eigenvalues --   -0.20098  -0.17165  -0.16317  -0.14908  -0.13201
  Beta  occ. eigenvalues --   -0.10557
  Beta virt. eigenvalues --    0.05870   0.06418   0.07093   0.07426   0.07560
  Beta virt. eigenvalues --    0.07746   0.08445   0.09034   0.09490   0.09589
  Beta virt. eigenvalues --    0.09851   0.09897   0.10355   0.11155   0.11282

 Mulliken charges and spin densities:
               1          2
     1  C    1.249479  -1.946157
     2  C   -0.630570   0.652275
     3  N   -0.065653   0.098677
     4  C    0.031017  -0.505443
     5  C    0.267977   0.215856
     6  C   -0.628047   0.152667
     7  C    0.028933   0.159579
     8  C   -0.160641  -0.022824
     9  N   -0.002432   0.053182
    10  C   -0.196283  -0.267116
    11  O   -0.276405   0.019284
    12  N    0.409178  -0.021308
    13  C   -0.785436   0.665031
    14  C   -0.380381   0.097588
    15  C    0.141577  -0.634896
    16  C   -0.401471   0.070531
    17  C    0.077990   0.040377
    18  C   -0.274355  -0.458780
    19  C    0.282285  -0.837805
    20  H   -0.173680   0.307308
    21  H   -0.482169   0.637906
    22  H   -0.155883   0.308006
    23  H    0.060588   0.095605
    24  H   -0.159425   0.300692
    25  H    0.272815   0.003254
    26  H   -0.015657   0.168180
    27  H    0.116143   0.025158
    28  H    0.152854   0.024805
    29  H    0.198353   0.031010
    30  H    0.174805  -0.006241
    31  H    0.022453   0.137031
    32  H   -0.039573   0.208317
    33  H   -0.022276   0.153091
    34  H    0.169617  -0.030397
    35  H    0.007680   0.148792
    36  H   -0.012976   0.171801
    37  H    0.193933   0.003568
    38  H   -0.086027   0.224357
    39  H    0.170042   0.011788
    40  H    0.085142   0.084650
    41  H   -0.103161   0.246645
    42  H   -0.060358   0.213954
 Sum of Mulliken charges =  -1.00000   1.00000

 Dipole moment (field-independent basis, Debye):
    X=             -4.9298    Y=             -2.9265    Z=              1.0185  Tot=              5.8228
 Quadrupole moment (field-independent basis, Debye-Ang):
   XX=           -225.1213   YY=           -150.5066   ZZ=           -151.4397
   XY=             -8.6618   XZ=             -3.3780   YZ=             -6.9303

 Summary of Natural Population Analysis:

                                       Natural Population
                Natural  -----------------------------------------------
    Atom  No    Charge         Core      Valence    Rydberg      Total
 -----------------------------------------------------------------------
      C    1   -0.28848      0.99967     2.28359    0.00522     3.28848
      C    2   -0.08659      0.99964     2.07584    0.01111     3.08659
      N    3   -0.31379      0.99966     2.80374    0.01039     3.81379
      C    4    0.20198      0.99953     1.78391    0.01457     2.79802
      C    5   -0.13934      0.99952     2.13086    0.00896     3.13934
      C    6   -0.06053      0.99958     2.05160    0.00935     3.06053
      C    7   -0.14461      0.99951     2.13667    0.00843     3.14461
      C    8    0.09616      0.99949     1.88844    0.01592     2.90384
      N    9   -0.24297      0.99964     2.73296    0.01036     3.74297
      C   10    0.34462      0.99959     1.63351    0.02228     2.65538
      O   11   -0.31912      0.99988     3.31439    0.00484     4.31912
      N   12   -0.25601      0.99963     2.74529    0.01109     3.75601
      C   13   -0.01183      0.99958     1.99986    0.01239     3.01183
      C   14   -0.19557      0.99960     2.18742    0.00855     3.19557
      C   15   -0.19254      0.99963     2.18440    0.00851     3.19254
      C   16   -0.19225      0.99961     2.18409    0.00855     3.19225
      C   17   -0.00254      0.99957     1.99141    0.01156     3.00254
      C   18   -0.29186      0.99964     2.28579    0.00643     3.29186
      C   19   -0.29197      0.99964     2.28694    0.00539     3.29197
      H   20    0.09589      0.00000     0.40285    0.00125     0.40411
      H   21    0.10431      0.00000     0.39416    0.00152     0.39569
      H   22    0.10093      0.00000     0.39769    0.00138     0.39907
      H   23    0.08505      0.00000     0.41344    0.00152     0.41495
      H   24    0.09304      0.00000     0.40522    0.00174     0.40696
      H   25    0.18934      0.00000     0.30750    0.00315     0.31066
      H   26    0.10179      0.00000     0.39708    0.00113     0.39821
      H   27    0.09524      0.00000     0.40402    0.00074     0.40476
      H   28    0.10512      0.00000     0.39392    0.00095     0.39488
      H   29    0.11511      0.00000     0.38306    0.00183     0.38489
      H   30    0.10343      0.00000     0.39551    0.00106     0.39657
      H   31    0.09786      0.00000     0.40135    0.00079     0.40214
      H   32    0.09776      0.00000     0.40141    0.00083     0.40224
      H   33    0.09428      0.00000     0.40448    0.00125     0.40572
      H   34    0.09546      0.00000     0.40345    0.00109     0.40454
      H   35    0.09915      0.00000     0.39995    0.00090     0.40085
      H   36    0.09334      0.00000     0.40481    0.00185     0.40666
      H   37    0.11584      0.00000     0.38286    0.00130     0.38416
      H   38    0.09832      0.00000     0.40089    0.00079     0.40168
      H   39    0.10357      0.00000     0.39540    0.00103     0.39643
      H   40    0.10557      0.00000     0.39350    0.00092     0.39443
      H   41    0.10052      0.00000     0.39871    0.00077     0.39948
      H   42    0.09633      0.00000     0.40256    0.00111     0.40367
 =======================================================================
   * Total *    0.00000     18.99262    51.78455    0.22283    71.00000

 Normal termination of Gaussian 16 at Sat Dec 12 12:06:34 2020.
