 Gaussian 16, Revision A.03,

 -----------------------------------------------------------
 # opt freq B3LYP/6-31G(d) empiricaldispersion=gd3bj scf=xqc
 -----------------------------------------------------------

 ------------------------------
 CID_63303996_JID_6373_neutraal
 ------------------------------
 Symbolic Z-matrix:
 Charge =  0 Multiplicity = 1

 SCF Done:  E(RB3LYP) =  -684.738863858     A.U. after   15 cycles
 SCF Done:  E(RB3LYP) =  -684.739052354     A.U. after   14 cycles
 SCF Done:  E(RB3LYP) =  -684.742125808     A.U. after   13 cycles
 SCF Done:  E(RB3LYP) =  -684.741847869     A.U. after   15 cycles
 SCF Done:  E(RB3LYP) =  -684.743749067     A.U. after   12 cycles
 SCF Done:  E(RB3LYP) =  -684.743938116     A.U. after   11 cycles
 SCF Done:  E(RB3LYP) =  -684.744023206     A.U. after   11 cycles
 SCF Done:  E(RB3LYP) =  -684.744052901     A.U. after   11 cycles
 SCF Done:  E(RB3LYP) =  -684.744090186     A.U. after   11 cycles
 SCF Done:  E(RB3LYP) =  -684.744182423     A.U. after   12 cycles
 SCF Done:  E(RB3LYP) =  -684.744273411     A.U. after    9 cycles
 SCF Done:  E(RB3LYP) =  -684.744277183     A.U. after   11 cycles
 SCF Done:  E(RB3LYP) =  -684.744277680     A.U. after    8 cycles
 SCF Done:  E(RB3LYP) =  -684.744277806     A.U. after    8 cycles
 SCF Done:  E(RB3LYP) =  -684.744277835     A.U. after    7 cycles
 Optimization completed.
    -- Stationary point found.
 Normal termination of Gaussian 16 at Thu Dec 10 22:31:31 2020.

 --------------------------------------------------------------------
 #N Geom=AllCheck Guess=TCheck SCRF=Check GenChk RB3LYP/6-31G(d) Freq
 --------------------------------------------------------------------

 Structure from the checkpoint file:  "JID_6373.chk"
 ------------------------------
 CID_63303996_JID_6373_neutraal
 ------------------------------
 Charge =  0 Multiplicity = 1

 SCF Done:  E(RB3LYP) =  -684.744277835     A.U. after    1 cycles

  Exact polarizability: 166.103  -1.957 155.792  17.489   0.058 103.788
 Approx polarizability: 244.740   0.138 254.912  34.501   5.692 170.004

                      1                      2                      3
                      A                      A                      A
 Frequencies --     19.2650                40.0637                61.3841
 Red. masses --      5.0052                 4.0041                 4.2325
 Frc consts  --      0.0011                 0.0038                 0.0094
 IR Inten    --      0.1214                 0.6419                 0.9788

                      4                      5                      6
                      A                      A                      A
 Frequencies --     81.0612               107.5460               117.5958
 Red. masses --      4.4752                 3.6252                 1.1696
 Frc consts  --      0.0173                 0.0247                 0.0095
 IR Inten    --      0.8512                 0.3122                 0.4193

                      7                      8                      9
                      A                      A                      A
 Frequencies --    192.1065               197.4417               234.3366
 Red. masses --      3.9404                 3.0267                 4.0767
 Frc consts  --      0.0857                 0.0695                 0.1319
 IR Inten    --      1.3989                 6.2061                 2.2595

                     10                     11                     12
                      A                      A                      A
 Frequencies --    238.8924               295.3728               311.5439
 Red. masses --      4.2514                 2.7517                 3.9212
 Frc consts  --      0.1430                 0.1414                 0.2242
 IR Inten    --      0.2770                 7.9910                 4.1143

                     13                     14                     15
                      A                      A                      A
 Frequencies --    367.4682               416.4911               436.3205
 Red. masses --      3.4779                 2.7508                 2.4898
 Frc consts  --      0.2767                 0.2811                 0.2793
 IR Inten    --     10.8281                 7.3624                22.5072

                     16                     17                     18
                      A                      A                      A
 Frequencies --    460.7361               480.1633               554.6819
 Red. masses --      2.0498                 2.1584                 2.9299
 Frc consts  --      0.2564                 0.2932                 0.5311
 IR Inten    --     34.2246                15.2035                20.3269

                     19                     20                     21
                      A                      A                      A
 Frequencies --    615.8198               633.6085               636.7416
 Red. masses --      1.9101                 5.6771                 5.1537
 Frc consts  --      0.4268                 1.3428                 1.2311
 IR Inten    --    168.4685                 8.6571                 5.1585

                     22                     23                     24
                      A                      A                      A
 Frequencies --    646.8167               659.4367               677.6327
 Red. masses --      3.6374                 5.1194                 4.1847
 Frc consts  --      0.8966                 1.3116                 1.1322
 IR Inten    --     12.4034                 6.0181                 1.9834

                     25                     26                     27
                      A                      A                      A
 Frequencies --    720.3515               735.8940               755.5586
 Red. masses --      1.8926                 2.7893                 4.5939
 Frc consts  --      0.5786                 0.8900                 1.5451
 IR Inten    --     36.4096                85.2254                 3.5307

                     28                     29                     30
                      A                      A                      A
 Frequencies --    791.6003               797.1273               807.8494
 Red. masses --      2.2957                 1.8222                 1.8600
 Frc consts  --      0.8476                 0.6822                 0.7152
 IR Inten    --     43.3817                 3.6495                21.5990

                     31                     32                     33
                      A                      A                      A
 Frequencies --    874.7724               875.8498               949.7154
 Red. masses --      1.2922                 1.2427                 1.3946
 Frc consts  --      0.5826                 0.5616                 0.7411
 IR Inten    --      1.6269                 1.5527                 4.9301

                     34                     35                     36
                      A                      A                      A
 Frequencies --    957.2249               986.5073               994.7393
 Red. masses --      4.5263                 1.3377                 2.2994
 Frc consts  --      2.4435                 0.7670                 1.3406
 IR Inten    --     10.5510                 2.2015                23.0163

                     37                     38                     39
                      A                      A                      A
 Frequencies --   1007.8016              1021.7381              1023.6508
 Red. masses --      1.2515                 4.5147                 2.4971
 Frc consts  --      0.7489                 2.7769                 1.5417
 IR Inten    --      1.8435                 5.1520                12.2360

                     40                     41                     42
                      A                      A                      A
 Frequencies --   1045.7634              1059.0444              1068.6159
 Red. masses --      2.1460                 2.2912                 1.4858
 Frc consts  --      1.3828                 1.5140                 0.9997
 IR Inten    --      2.8558                 2.1196                 3.8426

                     43                     44                     45
                      A                      A                      A
 Frequencies --   1113.1621              1160.3130              1164.1047
 Red. masses --      1.5949                 1.3308                 2.5727
 Frc consts  --      1.1644                 1.0556                 2.0541
 IR Inten    --      2.2565                 1.1699                 3.2210

                     46                     47                     48
                      A                      A                      A
 Frequencies --   1182.6122              1195.4120              1205.6420
 Red. masses --      2.5104                 1.1010                 1.9269
 Frc consts  --      2.0686                 0.9270                 1.6503
 IR Inten    --      2.2385                 0.0661                 0.3377

                     49                     50                     51
                      A                      A                      A
 Frequencies --   1216.4277              1234.6671              1291.8769
 Red. masses --      1.1474                 1.6002                 1.2301
 Frc consts  --      1.0004                 1.4372                 1.2096
 IR Inten    --      1.9661                 7.7432                 7.1170

                     52                     53                     54
                      A                      A                      A
 Frequencies --   1331.1567              1342.6213              1367.0562
 Red. masses --      3.8559                 2.9625                 3.5724
 Frc consts  --      4.0256                 3.1464                 3.9335
 IR Inten    --      8.8802                10.0726                26.3310

                     55                     56                     57
                      A                      A                      A
 Frequencies --   1369.0404              1384.2746              1396.2552
 Red. masses --      1.8287                 2.7273                 2.1886
 Frc consts  --      2.0194                 3.0791                 2.5139
 IR Inten    --      1.0019               111.0295                11.7269

                     58                     59                     60
                      A                      A                      A
 Frequencies --   1442.3478              1474.6036              1492.9609
 Red. masses --      2.6362                 1.4411                 2.2117
 Frc consts  --      3.2312                 1.8463                 2.9045
 IR Inten    --     64.4831                 3.8772                 5.7455

                     61                     62                     63
                      A                      A                      A
 Frequencies --   1514.6233              1521.9529              1529.8425
 Red. masses --      1.0566                 2.4744                 1.1472
 Frc consts  --      1.4281                 3.3769                 1.5819
 IR Inten    --      3.9472                 2.2291                 8.3908

                     64                     65                     66
                      A                      A                      A
 Frequencies --   1538.4433              1544.6876              1593.2157
 Red. masses --      1.2918                 2.1536                 4.7955
 Frc consts  --      1.8014                 3.0276                 7.1719
 IR Inten    --     18.3714                 5.3870                 6.6971

                     67                     68                     69
                      A                      A                      A
 Frequencies --   1637.7715              1649.6756              1664.1822
 Red. masses --      4.6155                 1.3031                 5.4603
 Frc consts  --      7.2942                 2.0895                 8.9097
 IR Inten    --      5.0262                65.6126                 5.3873

                     70                     71                     72
                      A                      A                      A
 Frequencies --   1729.0719              3006.6005              3035.6166
 Red. masses --      6.1466                 1.0586                 1.1013
 Frc consts  --     10.8270                 5.6379                 5.9794
 IR Inten    --    324.1970                37.8400                30.1677

                     73                     74                     75
                      A                      A                      A
 Frequencies --   3056.3050              3116.1160              3184.5213
 Red. masses --      1.0377                 1.1047                 1.1001
 Frc consts  --      5.7108                 6.3200                 6.5731
 IR Inten    --     40.6377                19.2309                 3.0294

                     76                     77                     78
                      A                      A                      A
 Frequencies --   3186.2883              3196.4138              3206.9538
 Red. masses --      1.0854                 1.0890                 1.0928
 Frc consts  --      6.4924                 6.5554                 6.6216
 IR Inten    --      0.1338                11.4905                18.7594

                     79                     80                     81
                      A                      A                      A
 Frequencies --   3215.0315              3222.2834              3252.9789
 Red. masses --      1.0954                 1.0944                 1.0939
 Frc consts  --      6.6708                 6.6950                 6.8200
 IR Inten    --     14.4039                 4.8988                13.7455

                     82                     83                     84
                      A                      A                      A
 Frequencies --   3289.2866              3544.1006              3660.0516
 Red. masses --      1.0993                 1.0466                 1.0998
 Frc consts  --      7.0078                 7.7456                 8.6805
 IR Inten    --      1.3962                20.0299                12.4795

 - Thermochemistry -
 -------------------
 Temperature   298.150 Kelvin.  Pressure   1.00000 Atm.
 Atom     1 has atomic number  6 and mass  12.00000

 Molecular mass:   214.12185 amu.
 Principal axes and moments of inertia in atomic units:
                           1         2         3
     Eigenvalues --  2178.613674467.670805718.99830
           X            1.00000   0.00067  -0.00189
           Y           -0.00071   0.99978  -0.02098
           Z            0.00188   0.02098   0.99978
 This molecule is an asymmetric top.
 Rotational symmetry number  1.
 Warning -- assumption of classical behavior for rotation
           may cause significant error
 Rotational temperatures (Kelvin)      0.03976     0.01939     0.01514
 Rotational constants (GHZ):           0.82839     0.40396     0.31557
 Zero-point vibrational energy     654458.3 (Joules/Mol)
                                  156.41928 (Kcal/Mol)
 Warning -- explicit consideration of  19 degrees of freedom as
           vibrations may cause significant error
 Vibrational temperatures:     27.72    57.64    88.32   116.63   154.73
          (Kelvin)            169.19   276.40   284.07   337.16   343.71
                              424.98   448.24   528.70   599.24   627.77
                              662.90   690.85   798.06   886.03   911.62
                              916.13   930.62   948.78   974.96  1036.43
                             1058.79  1087.08  1138.94  1146.89  1162.32
                             1258.60  1260.15  1366.43  1377.23  1419.36
                             1431.21  1450.00  1470.05  1472.81  1504.62
                             1523.73  1537.50  1601.59  1669.43  1674.89
                             1701.52  1719.93  1734.65  1750.17  1776.41
                             1858.72  1915.24  1931.73  1966.89  1969.74
                             1991.66  2008.90  2075.22  2121.63  2148.04
                             2179.21  2189.75  2201.10  2213.48  2222.46
                             2292.28  2356.39  2373.52  2394.39  2487.75
                             4325.83  4367.58  4397.34  4483.40  4581.82
                             4584.36  4598.93  4614.09  4625.71  4636.15
                             4680.31  4732.55  5099.17  5266.00

 Zero-point correction=                           0.249270 (Hartree/Particle)
 Thermal correction to Energy=                    0.263526
 Thermal correction to Enthalpy=                  0.264470
 Thermal correction to Gibbs Free Energy=         0.206376
 Sum of electronic and zero-point Energies=           -684.495008
 Sum of electronic and thermal Energies=              -684.480752
 Sum of electronic and thermal Enthalpies=            -684.479808
 Sum of electronic and thermal Free Energies=         -684.537902

                     E (Thermal)             CV                S
                      KCal/Mol        Cal/Mol-Kelvin    Cal/Mol-Kelvin
 Total                  165.365             54.478            122.270
 Electronic               0.000              0.000              0.000
 Translational            0.889              2.981             41.988
 Rotational               0.889              2.981             32.387
 Vibrational            163.588             48.517             47.895
 Vibration     1          0.593              1.986              6.709
 Vibration     2          0.594              1.981              5.256
 Vibration     3          0.597              1.973              4.412
 Vibration     4          0.600              1.962              3.865
 Vibration     5          0.606              1.943              3.313
 Vibration     6          0.608              1.935              3.140
 Vibration     7          0.634              1.851              2.207
 Vibration     8          0.637              1.843              2.157
 Vibration     9          0.654              1.788              1.845
 Vibration    10          0.657              1.781              1.811
 Vibration    11          0.690              1.682              1.443
 Vibration    12          0.700              1.652              1.354
 Vibration    13          0.740              1.539              1.090
 Vibration    14          0.780              1.434              0.904
 Vibration    15          0.797              1.391              0.838
 Vibration    16          0.819              1.337              0.764
 Vibration    17          0.837              1.294              0.710
 Vibration    18          0.910              1.129              0.535
 Vibration    19          0.975              0.998              0.423

                           ! Non-Optimized Parameters !
 Normal termination of Gaussian 16 at Thu Dec 10 22:42:46 2020.

 ----------------------------------------------------------------------
 # B3LYP/6-311++G(d,p) empiricaldispersion=gd3bj scf=xqc pop=npa geom=c
 heck
 ----------------------------------------------------------------------

 --------------------------------------
 CID_63303996_JID_6373_Energie_neutraal
 --------------------------------------
 Structure from the checkpoint file:  "JID_6373.chk"
 Charge =  0 Multiplicity = 1

 SCF Done:  E(RB3LYP) =  -684.931252134     A.U. after   16 cycles
 Normal termination of Gaussian 16 at Thu Dec 10 22:48:19 2020.

 ----------------------------------------------------------------------
 # B3LYP/6-311++G(d,p) empiricaldispersion=gd3bj scf=xqc pop=npa geom=c
 heck
 ----------------------------------------------------------------------

 ------------------------------------
 CID_63303996_JID_6373_Energie_kation
 ------------------------------------
 Structure from the checkpoint file:  "JID_6373.chk"
 Charge =  1 Multiplicity = 2

 SCF Done:  E(UB3LYP) =  -684.632754855     A.U. after   32 cycles
 Normal termination of Gaussian 16 at Thu Dec 10 23:03:48 2020.
 Gaussian 16:  ES64L-G16RevA.03 25-Dec-2016

 ----------------------------------------------------------------------
 # B3LYP/6-311++G(d,p) empiricaldispersion=gd3bj scf=xqc pop=npa geom=c
 heck
 ----------------------------------------------------------------------

 -----------------------------------
 CID_63303996_JID_6373_Energie_anion
 -----------------------------------
 Structure from the checkpoint file:  "JID_6373.chk"
 Charge = -1 Multiplicity = 2

                         Standard orientation:
 ---------------------------------------------------------------------
 Center     Atomic      Atomic             Coordinates (Angstroms)
 Number     Number       Type             X           Y           Z
 ---------------------------------------------------------------------
      1          6           0       -2.010897   -1.790499    1.378213
      2          7           0       -2.392893   -0.751322    0.443478
      3          6           0       -1.868949    0.503031    0.325128
      4          6           0       -2.500565    1.084224   -0.762222
      5          6           0       -3.389097    0.094655   -1.234513
      6          7           0       -3.323729   -1.021616   -0.508333
      7          6           0       -0.794378    1.024268    1.238150
      8          7           0        0.008145    2.051682    0.591291
      9          6           0        1.124141    1.725413    0.048931
     10          6           0        1.692343    0.349104   -0.111323
     11          6           0        2.972087    0.058424    0.380442
     12          6           0        3.500882   -1.225448    0.251264
     13          6           0        2.762485   -2.225790   -0.383191
     14          6           0        1.494187   -1.937394   -0.891410
     15          6           0        0.959162   -0.656867   -0.756706
     16          7           0        1.968508    2.732830   -0.395565
     17          1           0       -2.123901   -1.448937    2.412003
     18          1           0       -2.675251   -2.635884    1.200903
     19          1           0       -0.972419   -2.100439    1.214637
     20          1           0       -2.324896    2.078664   -1.143431
     21          1           0       -4.075067    0.145482   -2.070134
     22          1           0       -1.257107    1.480927    2.124582
     23          1           0       -0.191705    0.178926    1.602309
     24          1           0        3.539638    0.841571    0.873531
     25          1           0        4.488895   -1.444746    0.646123
     26          1           0        3.175543   -3.225349   -0.485391
     27          1           0        0.920569   -2.707698   -1.398957
     28          1           0       -0.021541   -0.429020   -1.160365
     29          1           0        1.526097    3.645180   -0.412755
     30          1           0        2.522524    2.521573   -1.215716
 ---------------------------------------------------------------------

 SCF Done:  E(UB3LYP) =  -684.920787503     A.U. after   33 cycles
 SCF Done:  E(UB3LYP) =  -684.920787503     a.u. after    1 cycles

 The electronic state is 2-A.
 Alpha  occ. eigenvalues --  -14.28688 -14.22556 -14.21089 -14.16988 -10.12736
 Alpha  occ. eigenvalues --  -10.11272 -10.10637 -10.09878 -10.08808 -10.06418
 Alpha  occ. eigenvalues --  -10.06312 -10.06272 -10.06175 -10.05982 -10.05855
 Alpha  occ. eigenvalues --  -10.05676  -0.94685  -0.84223  -0.76482  -0.74270
 Alpha  occ. eigenvalues --   -0.74190  -0.68917  -0.64323  -0.63562  -0.60143
 Alpha  occ. eigenvalues --   -0.59087  -0.51862  -0.50061  -0.49554  -0.46031
 Alpha  occ. eigenvalues --   -0.44959  -0.42499  -0.40609  -0.39651  -0.38079
 Alpha  occ. eigenvalues --   -0.36877  -0.35109  -0.34728  -0.33771  -0.32717
 Alpha  occ. eigenvalues --   -0.32038  -0.31309  -0.30676  -0.30141  -0.28981
 Alpha  occ. eigenvalues --   -0.28854  -0.26005  -0.24692  -0.24375  -0.23208
 Alpha  occ. eigenvalues --   -0.19650  -0.15264  -0.15120  -0.14683  -0.14111
 Alpha  occ. eigenvalues --   -0.14006  -0.12886   0.04707
 Alpha virt. eigenvalues --    0.06805   0.07166   0.07345   0.08133   0.08694
 Alpha virt. eigenvalues --    0.09130   0.09459   0.10176   0.10412   0.10859
 Alpha virt. eigenvalues --    0.11355   0.11555   0.12265   0.12789   0.13273

  Beta  occ. eigenvalues --  -14.28684 -14.22554 -14.21053 -14.16900 -10.12668
  Beta  occ. eigenvalues --  -10.11255 -10.10633 -10.09872 -10.08807 -10.06307
  Beta  occ. eigenvalues --  -10.06280 -10.06253 -10.06154 -10.05921 -10.05849
  Beta  occ. eigenvalues --  -10.05518  -0.94678  -0.84073  -0.76384  -0.74181
  Beta  occ. eigenvalues --   -0.74077  -0.68886  -0.64034  -0.63418  -0.60120
  Beta  occ. eigenvalues --   -0.59028  -0.51582  -0.50003  -0.49481  -0.45970
  Beta  occ. eigenvalues --   -0.44838  -0.42427  -0.40559  -0.39559  -0.38049
  Beta  occ. eigenvalues --   -0.36765  -0.35051  -0.34618  -0.33647  -0.32682
  Beta  occ. eigenvalues --   -0.31970  -0.31253  -0.30610  -0.30093  -0.28907
  Beta  occ. eigenvalues --   -0.28823  -0.25622  -0.24561  -0.24123  -0.23099
  Beta  occ. eigenvalues --   -0.19638  -0.15248  -0.14735  -0.14198  -0.13997
  Beta  occ. eigenvalues --   -0.13767  -0.12511
  Beta virt. eigenvalues --    0.06951   0.07550   0.07871   0.08228   0.08505
  Beta virt. eigenvalues --    0.09054   0.09300   0.09645   0.10406   0.10616
  Beta virt. eigenvalues --    0.11157   0.11449   0.11719   0.12516   0.12977

 Mulliken charges and spin densities:
               1          2
     1  C    0.133141  -0.491025
     2  N    0.287743   0.073227
     3  C   -0.961163   0.561150
     4  C    0.416088  -0.141824
     5  C   -0.188150  -0.097263
     6  N   -0.265231   0.029396
     7  C    0.084175  -0.829584
     8  N    0.003602  -0.013403
     9  C   -0.147024  -0.769545
    10  C    0.924676   0.287967
    11  C   -0.241133   0.239439
    12  C   -0.367860   0.070086
    13  C    0.900290  -1.164657
    14  C    0.148346  -0.349157
    15  C   -0.962915   0.510052
    16  N   -0.337330   0.095902
    17  H   -0.154343   0.317734
    18  H   -0.038473   0.188331
    19  H    0.085548   0.111096
    20  H   -0.010033   0.185183
    21  H    0.082448   0.061862
    22  H    0.029749   0.172281
    23  H    0.262319  -0.129240
    24  H    0.028496   0.159977
    25  H   -0.456422   0.611468
    26  H   -0.343618   0.478623
    27  H   -0.104504   0.280060
    28  H    0.203758   0.029657
    29  H    0.134368   0.123743
    30  H   -0.146546   0.398461
 Sum of Mulliken charges =  -1.00000   1.00000

 Dipole moment (field-independent basis, Debye):
    X=             -3.6488    Y=              1.6716    Z=              0.4069  Tot=              4.0340
 Quadrupole moment (field-independent basis, Debye-Ang):
   XX=           -158.5361   YY=           -138.8484   ZZ=           -118.9842
   XY=              2.0142   XZ=              3.8501   YZ=              0.3226

 Summary of Natural Population Analysis:

                                       Natural Population
                Natural  -----------------------------------------------
    Atom  No    Charge         Core      Valence    Rydberg      Total
 -----------------------------------------------------------------------
      C    1   -0.17821      0.99964     2.17066    0.00791     3.17821
      N    2   -0.11405      0.99961     2.60139    0.01304     3.61405
      C    3    0.09179      0.99952     1.89662    0.01207     2.90821
      C    4   -0.16488      0.99949     2.15741    0.00798     3.16488
      C    5   -0.01856      0.99964     2.00422    0.01470     3.01856
      N    6   -0.16245      0.99974     2.65148    0.01123     3.66245
      C    7   -0.11517      0.99956     2.10420    0.01141     3.11517
      N    8   -0.27451      0.99964     2.76365    0.01121     3.77451
      C    9    0.23913      0.99954     1.74357    0.01776     2.76087
      C   10   -0.04318      0.99947     2.03243    0.01128     3.04318
      C   11   -0.08860      0.99952     2.07895    0.01012     3.08860
      C   12   -0.10226      0.99956     2.09251    0.01018     3.10226
      C   13   -0.07474      0.99956     2.06500    0.01018     3.07474
      C   14   -0.10777      0.99956     2.09736    0.01085     3.10777
      C   15   -0.08753      0.99952     2.07811    0.00990     3.08753
      N   16   -0.39661      0.99971     2.88751    0.00939     3.89661
      H   17    0.09729      0.00000     0.40160    0.00112     0.40271
      H   18    0.10890      0.00000     0.38963    0.00146     0.39110
      H   19    0.10533      0.00000     0.39345    0.00122     0.39467
      H   20    0.11362      0.00000     0.38544    0.00094     0.38638
      H   21    0.09412      0.00000     0.40509    0.00079     0.40588
      H   22    0.09946      0.00000     0.39909    0.00145     0.40054
      H   23    0.09873      0.00000     0.39953    0.00174     0.40127
      H   24    0.10328      0.00000     0.39547    0.00125     0.39672
      H   25    0.09836      0.00000     0.40058    0.00106     0.40164
      H   26    0.09735      0.00000     0.40144    0.00121     0.40265
      H   27    0.09936      0.00000     0.39962    0.00102     0.40064
      H   28    0.10557      0.00000     0.39175    0.00268     0.39443
      H   29    0.18680      0.00000     0.31086    0.00234     0.31320
      H   30    0.18941      0.00000     0.30734    0.00326     0.31059
 =======================================================================
   * Total *    0.00000     15.99327    40.80597    0.20076    57.00000

 Normal termination of Gaussian 16 at Thu Dec 10 23:19:58 2020.
