 Gaussian 16, Revision A.03,

 -----------------------------------------------------------
 # opt freq B3LYP/6-31G(d) empiricaldispersion=gd3bj scf=xqc
 -----------------------------------------------------------

 -------------------------------
 CID_113532544_JID_9619_neutraal
 -------------------------------
 Symbolic Z-matrix:
 Charge =  0 Multiplicity = 1

 SCF Done:  E(RB3LYP) =  -940.170000995     A.U. after   14 cycles
 SCF Done:  E(RB3LYP) =  -940.176582979     A.U. after   13 cycles
 SCF Done:  E(RB3LYP) =  -940.175573880     A.U. after   14 cycles
 SCF Done:  E(RB3LYP) =  -940.178437277     A.U. after   12 cycles
 SCF Done:  E(RB3LYP) =  -940.179375124     A.U. after   12 cycles
 SCF Done:  E(RB3LYP) =  -940.179547052     A.U. after   12 cycles
 SCF Done:  E(RB3LYP) =  -940.179238710     A.U. after   12 cycles
 SCF Done:  E(RB3LYP) =  -940.179764298     A.U. after   11 cycles
 SCF Done:  E(RB3LYP) =  -940.180040427     A.U. after   11 cycles
 SCF Done:  E(RB3LYP) =  -940.180055136     A.U. after   11 cycles
 SCF Done:  E(RB3LYP) =  -940.180242705     A.U. after   10 cycles
 SCF Done:  E(RB3LYP) =  -940.180242995     A.U. after    9 cycles
 SCF Done:  E(RB3LYP) =  -940.180242991     A.U. after    8 cycles
 SCF Done:  E(RB3LYP) =  -940.180243050     A.U. after    9 cycles
 SCF Done:  E(RB3LYP) =  -940.180243040     A.U. after    8 cycles
 Optimization completed on the basis of negligible forces.
    -- Stationary point found.
 Normal termination of Gaussian 16 at Sun Dec 13 21:17:03 2020.

 --------------------------------------------------------------------
 #N Geom=AllCheck Guess=TCheck SCRF=Check GenChk RB3LYP/6-31G(d) Freq
 --------------------------------------------------------------------

 Structure from the checkpoint file:  "JID_9619.chk"
 -------------------------------
 CID_113532544_JID_9619_neutraal
 -------------------------------
 Charge =  0 Multiplicity = 1

 SCF Done:  E(RB3LYP) =  -940.180243040     A.U. after    1 cycles

  Exact polarizability: 179.497   7.241 144.029  -2.018  -3.795 138.411
 Approx polarizability: 226.104  16.185 207.900  -7.208  -9.056 209.146

                      1                      2                      3
                      A                      A                      A
 Frequencies --      7.2748                26.4789                41.3657
 Red. masses --      3.5899                 4.2257                 3.3542
 Frc consts  --      0.0001                 0.0017                 0.0034
 IR Inten    --      0.4854                 0.7519                 0.3923

                      4                      5                      6
                      A                      A                      A
 Frequencies --     52.1667                66.2451                74.0207
 Red. masses --      4.6519                 4.0392                 5.8722
 Frc consts  --      0.0075                 0.0104                 0.0190
 IR Inten    --      0.5370                 0.3684                 7.3361

                      7                      8                      9
                      A                      A                      A
 Frequencies --    111.6830               123.2218               137.7827
 Red. masses --      3.4868                 3.9774                 3.7111
 Frc consts  --      0.0256                 0.0356                 0.0415
 IR Inten    --      0.4051                 0.1821                 0.7057

                     10                     11                     12
                      A                      A                      A
 Frequencies --    154.2944               162.4807               166.6419
 Red. masses --      1.2346                 1.9415                 1.7017
 Frc consts  --      0.0173                 0.0302                 0.0278
 IR Inten    --      0.9510                 0.0449                 0.2504

                     13                     14                     15
                      A                      A                      A
 Frequencies --    180.0115               198.1836               214.1851
 Red. masses --      2.6504                 3.9950                 2.7096
 Frc consts  --      0.0506                 0.0924                 0.0732
 IR Inten    --      0.3187                 5.6540                 0.2481

                     16                     17                     18
                      A                      A                      A
 Frequencies --    220.3147               246.6616               252.5654
 Red. masses --      1.1961                 2.8252                 1.3072
 Frc consts  --      0.0342                 0.1013                 0.0491
 IR Inten    --      0.8138                 8.8396                 3.4169

                     19                     20                     21
                      A                      A                      A
 Frequencies --    264.9697               297.2431               313.8185
 Red. masses --      2.8972                 2.9562                 2.2128
 Frc consts  --      0.1198                 0.1539                 0.1284
 IR Inten    --      4.8883                11.2825                 2.1732

                     22                     23                     24
                      A                      A                      A
 Frequencies --    342.3041               357.2480               369.9964
 Red. masses --      3.6737                 3.2510                 2.9204
 Frc consts  --      0.2536                 0.2445                 0.2356
 IR Inten    --     25.7841                 4.8021                 2.8682

                     25                     26                     27
                      A                      A                      A
 Frequencies --    402.8840               422.3142               452.4375
 Red. masses --      2.4364                 2.6199                 2.1857
 Frc consts  --      0.2330                 0.2753                 0.2636
 IR Inten    --      3.1908                 4.7459                 0.2517

                     28                     29                     30
                      A                      A                      A
 Frequencies --    457.3115               487.0619               507.9245
 Red. masses --      2.9064                 2.3754                 3.2376
 Frc consts  --      0.3581                 0.3320                 0.4921
 IR Inten    --      9.4142                 2.0951                 0.6568

                     31                     32                     33
                      A                      A                      A
 Frequencies --    589.0969               594.2005               623.3731
 Red. masses --      3.3361                 3.0185                 4.5769
 Frc consts  --      0.6821                 0.6279                 1.0479
 IR Inten    --      7.7088                 1.4101                 9.1718

                     34                     35                     36
                      A                      A                      A
 Frequencies --    709.6797               739.9088               768.7041
 Red. masses --      3.1027                 5.0200                 3.5861
 Frc consts  --      0.9207                 1.6192                 1.2485
 IR Inten    --      9.9422                15.4019                 2.7299

                     37                     38                     39
                      A                      A                      A
 Frequencies --    792.0930               855.5353               867.1741
 Red. masses --      6.6367                 2.8549                 3.2794
 Frc consts  --      2.4533                 1.2312                 1.4530
 IR Inten    --     16.8833                 0.9481                 4.9393

                     40                     41                     42
                      A                      A                      A
 Frequencies --    871.8473               898.3941               907.3329
 Red. masses --      3.9655                 2.8588                 4.2802
 Frc consts  --      1.7760                 1.3595                 2.0761
 IR Inten    --     10.6460                12.0464                 3.1816

                     43                     44                     45
                      A                      A                      A
 Frequencies --    919.0143               930.7993               962.3178
 Red. masses --      1.8921                 1.7117                 1.4931
 Frc consts  --      0.9416                 0.8737                 0.8147
 IR Inten    --      2.0188                 3.4802                 2.9539

                     46                     47                     48
                      A                      A                      A
 Frequencies --    974.7756               975.2964               999.6524
 Red. masses --      2.0337                 2.4264                 3.0789
 Frc consts  --      1.1385                 1.3598                 1.8128
 IR Inten    --      3.5298                16.3672                16.5833

                     49                     50                     51
                      A                      A                      A
 Frequencies --   1014.4321              1023.6044              1036.5538
 Red. masses --      2.1594                 1.3708                 4.3965
 Frc consts  --      1.3093                 0.8462                 2.7832
 IR Inten    --      2.7177                 0.9037                23.3254

                     52                     53                     54
                      A                      A                      A
 Frequencies --   1057.2850              1068.9284              1086.4270
 Red. masses --      3.9966                 2.5176                 2.6342
 Frc consts  --      2.6323                 1.6949                 1.8319
 IR Inten    --     75.6966                63.5059                68.3490

                     55                     56                     57
                      A                      A                      A
 Frequencies --   1112.0784              1152.8112              1170.7910
 Red. masses --      1.9130                 2.1292                 2.0116
 Frc consts  --      1.3939                 1.6672                 1.6246
 IR Inten    --     12.4558               109.4260                46.7513

                     58                     59                     60
                      A                      A                      A
 Frequencies --   1178.4423              1186.5119              1189.7281
 Red. masses --      2.0718                 1.2877                 1.3022
 Frc consts  --      1.6952                 1.0681                 1.0859
 IR Inten    --     30.2320                 0.7515                 7.4609

                     61                     62                     63
                      A                      A                      A
 Frequencies --   1197.8535              1218.7002              1222.4881
 Red. masses --      1.8633                 1.5354                 1.4792
 Frc consts  --      1.5752                 1.3436                 1.3024
 IR Inten    --     64.6929                11.5405                 1.2862

                     64                     65                     66
                      A                      A                      A
 Frequencies --   1244.1567              1251.2496              1274.4709
 Red. masses --      1.6966                 1.6919                 2.3753
 Frc consts  --      1.5473                 1.5607                 2.2731
 IR Inten    --     56.5586                62.4549               193.7934

                     67                     68                     69
                      A                      A                      A
 Frequencies --   1278.2806              1289.7309              1300.4026
 Red. masses --      1.9726                 2.3507                 1.6996
 Frc consts  --      1.8991                 2.3038                 1.6934
 IR Inten    --     17.0479                25.9745               117.2293

                     70                     71                     72
                      A                      A                      A
 Frequencies --   1337.9508              1350.1258              1365.9540
 Red. masses --      1.5700                 1.3764                 1.4225
 Frc consts  --      1.6559                 1.4782                 1.5638
 IR Inten    --     63.3354                 0.1262                 5.7650

                     73                     74                     75
                      A                      A                      A
 Frequencies --   1367.8726              1382.6916              1386.9463
 Red. masses --      1.5075                 1.3403                 1.4444
 Frc consts  --      1.6619                 1.5097                 1.6370
 IR Inten    --      9.0377                 6.3596                 8.5579

                     76                     77                     78
                      A                      A                      A
 Frequencies --   1399.1755              1410.4275              1426.6464
 Red. masses --      1.5462                 1.4450                 1.3180
 Frc consts  --      1.7834                 1.6936                 1.5805
 IR Inten    --     18.4287                30.8970                13.2644

                     79                     80                     81
                      A                      A                      A
 Frequencies --   1442.4263              1442.9362              1484.4093
 Red. masses --      1.2492                 1.4601                 1.0812
 Frc consts  --      1.5313                 1.7911                 1.4037
 IR Inten    --      5.7095                 0.4911                10.7108

                     82                     83                     84
                      A                      A                      A
 Frequencies --   1488.9585              1489.9420              1495.0552
 Red. masses --      1.2035                 1.2373                 1.1231
 Frc consts  --      1.5720                 1.6183                 1.4791
 IR Inten    --      3.9023                20.0509                18.1277

                     85                     86                     87
                      A                      A                      A
 Frequencies --   1506.1498              1512.6544              1512.8882
 Red. masses --      1.0586                 1.0474                 1.0570
 Frc consts  --      1.4148                 1.4121                 1.4253
 IR Inten    --      0.2092                 7.6091                 0.4073

                     88                     89                     90
                      A                      A                      A
 Frequencies --   1514.0364              1522.9020              1524.9488
 Red. masses --      1.0465                 1.0630                 1.0465
 Frc consts  --      1.4134                 1.4525                 1.4338
 IR Inten    --      2.3629                 5.0733                 7.5995

                     91                     92                     93
                      A                      A                      A
 Frequencies --   1527.2998              1528.6557              1529.2109
 Red. masses --      1.0532                 1.0648                 1.0848
 Frc consts  --      1.4475                 1.4660                 1.4946
 IR Inten    --      4.0835                 5.1420                 4.5719

                     94                     95                     96
                      A                      A                      A
 Frequencies --   1535.2735              1541.4528              1798.8645
 Red. masses --      1.0690                 1.0824                10.3240
 Frc consts  --      1.4846                 1.5153                19.6832
 IR Inten    --      4.3619                 0.3551               104.0616

                     97                     98                     99
                      A                      A                      A
 Frequencies --   1807.2537              3023.0467              3047.9055
 Red. masses --     10.5769                 1.0840                 1.0629
 Frc consts  --     20.3539                 5.8369                 5.8176
 IR Inten    --    321.7978                29.3618                31.8840

                    100                    101                    102
                      A                      A                      A
 Frequencies --   3049.6179              3054.8694              3065.1710
 Red. masses --      1.0360                 1.0377                 1.0617
 Frc consts  --      5.6769                 5.7057                 5.8772
 IR Inten    --     22.6618                16.3964                18.5738

                    103                    104                    105
                      A                      A                      A
 Frequencies --   3067.0301              3072.8933              3073.0814
 Red. masses --      1.0609                 1.0589                 1.0691
 Frc consts  --      5.8798                 5.8913                 5.9484
 IR Inten    --     16.5561                20.7989                34.2032

                    106                    107                    108
                      A                      A                      A
 Frequencies --   3079.9238              3080.9360              3103.2187
 Red. masses --      1.0291                 1.0288                 1.1005
 Frc consts  --      5.7515                 5.7540                 6.2438
 IR Inten    --     23.3150                33.5565                21.1986

                    109                    110                    111
                      A                      A                      A
 Frequencies --   3114.8425              3118.0281              3118.3894
 Red. masses --      1.1015                 1.1020                 1.1019
 Frc consts  --      6.2968                 6.3123                 6.3132
 IR Inten    --     20.5403                17.1800                13.8171

                    112                    113                    114
                      A                      A                      A
 Frequencies --   3123.9576              3129.3836              3130.5837
 Red. masses --      1.1024                 1.1080                 1.1024
 Frc consts  --      6.3387                 6.3931                 6.3657
 IR Inten    --     28.5746                16.3924                41.3311

                    115                    116                    117
                      A                      A                      A
 Frequencies --   3132.3053              3152.9935              3159.5184
 Red. masses --      1.1028                 1.0969                 1.1079
 Frc consts  --      6.3750                 6.4246                 6.5159
 IR Inten    --     39.3514                 7.2428                16.7714

                    118                    119                    120
                      A                      A                      A
 Frequencies --   3162.5684              3186.8146              3187.9937
 Red. masses --      1.1077                 1.1079                 1.1075
 Frc consts  --      6.5273                 6.6290                 6.6317
 IR Inten    --     13.7682                17.1087                16.5411

 - Thermochemistry -
 -------------------
 Temperature   298.150 Kelvin.  Pressure   1.00000 Atm.
 Atom     1 has atomic number  6 and mass  12.00000

 Molecular mass:   273.15762 amu.
 Principal axes and moments of inertia in atomic units:
                           1         2         3
     Eigenvalues --  2937.840138415.668519352.06143
           X            1.00000   0.00106   0.00116
           Y           -0.00104   0.99980  -0.02009
           Z           -0.00118   0.02009   0.99980
 This molecule is an asymmetric top.
 Rotational symmetry number  1.
 Warning -- assumption of classical behavior for rotation
           may cause significant error
 Rotational temperatures (Kelvin)      0.02948     0.01029     0.00926
 Rotational constants (GHZ):           0.61431     0.21445     0.19298
 Zero-point vibrational energy     955298.2 (Joules/Mol)
                                  228.32176 (Kcal/Mol)
 Warning -- explicit consideration of  32 degrees of freedom as
           vibrations may cause significant error
 Vibrational temperatures:     10.47    38.10    59.52    75.06    95.31
          (Kelvin)            106.50   160.69   177.29   198.24   222.00
                              233.77   239.76   259.00   285.14   308.16
                              316.98   354.89   363.39   381.23   427.67
                              451.51   492.50   514.00   532.34   579.66
                              607.62   650.96   657.97   700.77   730.79
                              847.58   854.92   896.89  1021.07  1064.56
                             1105.99  1139.65  1230.92  1247.67  1254.39
                             1292.59  1305.45  1322.26  1339.21  1384.56
                             1402.48  1403.23  1438.28  1459.54  1472.74
                             1491.37  1521.20  1537.95  1563.13  1600.03
                             1658.64  1684.51  1695.52  1707.13  1711.75
                             1723.44  1753.44  1758.89  1790.06  1800.27
                             1833.68  1839.16  1855.64  1870.99  1925.01
                             1942.53  1965.30  1968.06  1989.38  1995.51
                             2013.10  2029.29  2052.63  2075.33  2076.06
                             2135.73  2142.28  2143.69  2151.05  2167.01
                             2176.37  2176.71  2178.36  2191.12  2194.06
                             2197.44  2199.39  2200.19  2208.92  2217.81
                             2588.16  2600.24  4349.49  4385.26  4387.72
                             4395.28  4410.10  4412.77  4421.21  4421.48
                             4431.32  4432.78  4464.84  4481.56  4486.15
                             4486.67  4494.68  4502.48  4504.21  4506.69
                             4536.45  4545.84  4550.23  4585.12  4586.81

 Zero-point correction=                           0.363854 (Hartree/Particle)
 Thermal correction to Energy=                    0.384815
 Thermal correction to Enthalpy=                  0.385759
 Thermal correction to Gibbs Free Energy=         0.311706
 Sum of electronic and zero-point Energies=           -939.816389
 Sum of electronic and thermal Energies=              -939.795428
 Sum of electronic and thermal Enthalpies=            -939.794484
 Sum of electronic and thermal Free Energies=         -939.868537

                     E (Thermal)             CV                S
                      KCal/Mol        Cal/Mol-Kelvin    Cal/Mol-Kelvin
 Total                  241.475             76.430            155.858
 Electronic               0.000              0.000              0.000
 Translational            0.889              2.981             42.713
 Rotational               0.889              2.981             33.802
 Vibrational            239.698             70.468             79.343
 Vibration     1          0.593              1.987              8.643
 Vibration     2          0.593              1.985              6.077
 Vibration     3          0.594              1.981              5.193
 Vibration     4          0.596              1.977              4.734
 Vibration     5          0.598              1.970              4.262
 Vibration     6          0.599              1.966              4.043
 Vibration     7          0.607              1.940              3.239
 Vibration     8          0.610              1.930              3.049
 Vibration     9          0.614              1.916              2.834
 Vibration    10          0.620              1.898              2.619
 Vibration    11          0.623              1.888              2.521
 Vibration    12          0.624              1.883              2.473
 Vibration    13          0.629              1.867              2.328
 Vibration    14          0.637              1.842              2.150
 Vibration    15          0.644              1.819              2.008
 Vibration    16          0.647              1.810              1.957
 Vibration    17          0.661              1.768              1.754
 Vibration    18          0.664              1.758              1.713
 Vibration    19          0.671              1.737              1.629
 Vibration    20          0.691              1.679              1.432
 Vibration    21          0.702              1.647              1.342
 Vibration    22          0.721              1.591              1.201
 Vibration    23          0.732              1.560              1.134
 Vibration    24          0.742              1.534              1.080
 Vibration    25          0.768              1.464              0.952
 Vibration    26          0.785              1.422              0.884
 Vibration    27          0.811              1.356              0.788
 Vibration    28          0.815              1.345              0.774
 Vibration    29          0.843              1.279              0.691
 Vibration    30          0.863              1.232              0.639
 Vibration    31          0.946              1.055              0.469
 Vibration    32          0.952              1.044              0.460

 Optimization completed on the basis of negligible forces.
    -- Stationary point found.
 Normal termination of Gaussian 16 at Sun Dec 13 21:40:22 2020.

 ----------------------------------------------------------------------
 # B3LYP/6-311++G(d,p) empiricaldispersion=gd3bj scf=xqc pop=npa geom=c
 heck
 ----------------------------------------------------------------------

 ---------------------------------------
 CID_113532544_JID_9619_Energie_neutraal
 ---------------------------------------
 Structure from the checkpoint file:  "JID_9619.chk"
 Charge =  0 Multiplicity = 1

 SCF Done:  E(RB3LYP) =  -940.452901181     A.U. after   16 cycles
 Normal termination of Gaussian 16 at Sun Dec 13 21:51:56 2020.

 ----------------------------------------------------------------------
 # B3LYP/6-311++G(d,p) empiricaldispersion=gd3bj scf=xqc pop=npa geom=c
 heck
 ----------------------------------------------------------------------

 -------------------------------------
 CID_113532544_JID_9619_Energie_kation
 -------------------------------------
 Structure from the checkpoint file:  "JID_9619.chk"
 Charge =  1 Multiplicity = 2

 SCF Done:  E(UB3LYP) =  -940.164350355     A.U. after   22 cycles
 Normal termination of Gaussian 16 at Sun Dec 13 22:14:43 2020.
 Gaussian 16:  ES64L-G16RevA.03 25-Dec-2016

 ----------------------------------------------------------------------
 # B3LYP/6-311++G(d,p) empiricaldispersion=gd3bj scf=xqc pop=npa geom=c
 heck
 ----------------------------------------------------------------------

 ------------------------------------
 CID_113532544_JID_9619_Energie_anion
 ------------------------------------
 Structure from the checkpoint file:  "JID_9619.chk"
 Charge = -1 Multiplicity = 2

                         Standard orientation:
 ---------------------------------------------------------------------
 Center     Atomic      Atomic             Coordinates (Angstroms)
 Number     Number       Type             X           Y           Z
 ---------------------------------------------------------------------
      1          6           0        4.909124   -0.740831    0.339630
      2          6           0        3.798817    0.066978   -0.344945
      3          6           0        2.861509   -0.824443   -1.174597
      4          6           0        1.877892   -1.360871   -0.127726
      5          6           0        1.779311   -0.197624    0.886945
      6          8           0        2.932202    0.628963    0.661563
      7          6           0        0.553020    0.709093    0.720158
      8          7           0       -0.593321    0.281149    1.530032
      9          6           0       -1.631061    1.293841    1.697795
     10          6           0       -2.508728    1.475640    0.460787
     11          8           0       -3.572204    0.912911    0.288156
     12          8           0       -1.915211    2.259142   -0.457970
     13          6           0       -2.553778    2.279706   -1.747397
     14          6           0       -1.111715   -1.060768    1.339052
     15          6           0       -1.771109   -1.345467   -0.013384
     16          8           0       -1.398698   -0.891016   -1.078898
     17          8           0       -2.809829   -2.183642    0.118386
     18          6           0       -3.557001   -2.428336   -1.086050
     19          6           0        4.379870    1.235815   -1.134541
     20          1           0        5.452455   -0.102870    1.043870
     21          1           0        4.496354   -1.586400    0.900065
     22          1           0        5.621514   -1.133115   -0.395397
     23          1           0        2.329400   -0.211902   -1.911447
     24          1           0        3.392696   -1.615197   -1.713112
     25          1           0        0.912655   -1.607298   -0.572771
     26          1           0        2.273915   -2.260894    0.354729
     27          1           0        1.803677   -0.561100    1.923638
     28          1           0        0.842930    1.696120    1.093048
     29          1           0        0.314594    0.818299   -0.345747
     30          1           0       -2.291207    0.992501    2.517202
     31          1           0       -1.147297    2.241030    1.953326
     32          1           0       -2.540977    1.274365   -2.174132
     33          1           0       -3.584876    2.630202   -1.658688
     34          1           0       -1.963050    2.965958   -2.354105
     35          1           0       -0.295092   -1.781802    1.460985
     36          1           0       -1.843111   -1.272454    2.124624
     37          1           0       -4.002298   -1.492435   -1.431760
     38          1           0       -2.909230   -2.836501   -1.865687
     39          1           0       -4.330447   -3.144577   -0.809600
     40          1           0        3.573167    1.832550   -1.571594
     41          1           0        4.972202    1.884722   -0.480940
     42          1           0        5.028283    0.875486   -1.940991
 ---------------------------------------------------------------------

 SCF Done:  E(UB3LYP) =  -940.438824235     A.U. after   33 cycles
 SCF Done:  E(UB3LYP) =  -940.438824235     a.u. after    1 cycles

 The electronic state is 2-A.
 Alpha  occ. eigenvalues --  -19.08582 -19.08428 -19.02905 -19.02620 -19.02201
 Alpha  occ. eigenvalues --  -14.23588 -10.21463 -10.21431 -10.13384 -10.13364
 Alpha  occ. eigenvalues --  -10.13339 -10.12783 -10.12706 -10.12504 -10.09713
 Alpha  occ. eigenvalues --  -10.07299 -10.07224 -10.06793 -10.06501  -1.02686
 Alpha  occ. eigenvalues --   -1.02302  -0.94135  -0.93760  -0.93560  -0.85066
 Alpha  occ. eigenvalues --   -0.70768  -0.69293  -0.68535  -0.66152  -0.62905
 Alpha  occ. eigenvalues --   -0.62090  -0.60010  -0.57465  -0.53372  -0.49638
 Alpha  occ. eigenvalues --   -0.48808  -0.47407  -0.45672  -0.43704  -0.42735
 Alpha  occ. eigenvalues --   -0.42369  -0.40503  -0.39954  -0.39587  -0.38935
 Alpha  occ. eigenvalues --   -0.38754  -0.37917  -0.36319  -0.35780  -0.34720
 Alpha  occ. eigenvalues --   -0.34230  -0.33016  -0.32518  -0.31630  -0.31201
 Alpha  occ. eigenvalues --   -0.30871  -0.30373  -0.30255  -0.28474  -0.28112
 Alpha  occ. eigenvalues --   -0.27933  -0.27755  -0.27413  -0.26945  -0.24979
 Alpha  occ. eigenvalues --   -0.23638  -0.23301  -0.22632  -0.22320  -0.22005
 Alpha  occ. eigenvalues --   -0.20985  -0.19707  -0.16189  -0.13408   0.04088
 Alpha virt. eigenvalues --    0.05779   0.06245   0.06612   0.07354   0.07494
 Alpha virt. eigenvalues --    0.08171   0.08325   0.08492   0.08821   0.09386
 Alpha virt. eigenvalues --    0.09839   0.10279   0.10622   0.10687   0.11295

  Beta  occ. eigenvalues --  -19.08579 -19.08424 -19.02894 -19.02611 -19.02197
  Beta  occ. eigenvalues --  -14.23588 -10.21457 -10.21426 -10.13364 -10.13356
  Beta  occ. eigenvalues --  -10.13305 -10.12775 -10.12696 -10.12498 -10.09707
  Beta  occ. eigenvalues --  -10.07283 -10.07207 -10.06776 -10.06472  -1.02673
  Beta  occ. eigenvalues --   -1.02290  -0.94127  -0.93745  -0.93546  -0.85060
  Beta  occ. eigenvalues --   -0.70752  -0.69269  -0.68510  -0.66122  -0.62877
  Beta  occ. eigenvalues --   -0.62051  -0.59965  -0.57432  -0.53336  -0.49607
  Beta  occ. eigenvalues --   -0.48775  -0.47380  -0.45639  -0.43675  -0.42720
  Beta  occ. eigenvalues --   -0.42352  -0.40479  -0.39928  -0.39554  -0.38911
  Beta  occ. eigenvalues --   -0.38727  -0.37891  -0.36299  -0.35760  -0.34692
  Beta  occ. eigenvalues --   -0.34199  -0.32989  -0.32493  -0.31610  -0.31180
  Beta  occ. eigenvalues --   -0.30845  -0.30349  -0.30230  -0.28451  -0.28088
  Beta  occ. eigenvalues --   -0.27912  -0.27733  -0.27387  -0.26920  -0.24954
  Beta  occ. eigenvalues --   -0.23616  -0.23275  -0.22615  -0.22302  -0.21990
  Beta  occ. eigenvalues --   -0.20974  -0.19695  -0.16178  -0.13401
  Beta virt. eigenvalues --    0.05950   0.06562   0.06861   0.06990   0.07487
  Beta virt. eigenvalues --    0.07854   0.08504   0.08583   0.08816   0.09048
  Beta virt. eigenvalues --    0.09813   0.10109   0.10452   0.10840   0.11027

 Mulliken charges and spin densities:
               1          2
     1  C    0.806866  -1.380473
     2  C   -1.117137   1.321568
     3  C    0.392211  -0.936562
     4  C    0.336782  -0.462087
     5  C   -0.122100  -0.253285
     6  O   -0.006217  -0.005292
     7  C   -1.125165   0.463332
     8  N    0.310524   0.079167
     9  C    1.057805  -1.207040
    10  C   -0.910522   0.758495
    11  O   -0.176545   0.006955
    12  O    0.014359   0.016804
    13  C    0.425249  -0.641281
    14  C    0.208831  -0.678920
    15  C   -0.738541   0.204905
    16  O   -0.159995   0.015529
    17  O    0.009679   0.065227
    18  C    0.639417  -0.821442
    19  C   -0.180899  -0.271420
    20  H   -0.025643   0.178380
    21  H   -0.230266   0.369284
    22  H   -0.120323   0.259164
    23  H   -0.027746   0.209558
    24  H   -0.318066   0.511773
    25  H    0.301405  -0.136233
    26  H   -0.191677   0.377354
    27  H    0.163174   0.046025
    28  H    0.027298   0.145573
    29  H    0.746792  -0.489523
    30  H    0.100423   0.083607
    31  H    0.065454   0.123161
    32  H    0.043582   0.158275
    33  H   -0.240293   0.392754
    34  H   -0.165516   0.324633
    35  H   -0.218638   0.442006
    36  H    0.031231   0.196228
    37  H   -0.038518   0.212260
    38  H   -0.236964   0.403910
    39  H   -0.285883   0.441578
    40  H   -0.059760   0.208385
    41  H    0.062936   0.084723
    42  H   -0.047605   0.182944
 Sum of Mulliken charges =  -1.00000   1.00000

 Dipole moment (field-independent basis, Debye):
    X=             -1.3696    Y=              2.7847    Z=              2.3925  Tot=              3.9185
 Quadrupole moment (field-independent basis, Debye-Ang):
   XX=           -210.9286   YY=           -165.7381   ZZ=           -155.0429
   XY=              2.0011   XZ=             -4.0654   YZ=              0.9375

 Summary of Natural Population Analysis:

                                       Natural Population
                Natural  -----------------------------------------------
    Atom  No    Charge         Core      Valence    Rydberg      Total
 -----------------------------------------------------------------------
      C    1   -0.29567      0.99960     2.28922    0.00685     3.29567
      C    2    0.13181      0.99955     1.85231    0.01633     2.86819
      C    3   -0.19946      0.99958     2.19056    0.00932     3.19946
      C    4   -0.20982      0.99961     2.20179    0.00842     3.20982
      C    5    0.06272      0.99955     1.92336    0.01437     2.93728
      O    6   -0.31473      0.99987     3.30579    0.00907     4.31473
      C    7   -0.09184      0.99956     2.08090    0.01138     3.09184
      N    8   -0.26767      0.99973     2.75468    0.01326     3.76767
      C    9   -0.12154      0.99956     2.11168    0.01029     3.12154
      C   10    0.39821      0.99970     1.57739    0.02470     2.60179
      O   11   -0.30774      0.99987     3.30147    0.00640     4.30774
      O   12   -0.27536      0.99986     3.26645    0.00905     4.27536
      C   13   -0.10891      0.99959     2.09966    0.00966     3.10891
      C   14   -0.13236      0.99955     2.12064    0.01216     3.13236
      C   15    0.40336      0.99970     1.57043    0.02651     2.59664
      O   16   -0.31270      0.99987     3.30695    0.00588     4.31270
      O   17   -0.27384      0.99986     3.26433    0.00965     4.27384
      C   18   -0.10614      0.99959     2.09762    0.00893     3.10614
      C   19   -0.28694      0.99960     2.28156    0.00578     3.28694
      H   20    0.10150      0.00000     0.39756    0.00094     0.39850
      H   21    0.10167      0.00000     0.39717    0.00116     0.39833
      H   22    0.09997      0.00000     0.39896    0.00107     0.40003
      H   23    0.10096      0.00000     0.39762    0.00142     0.39904
      H   24    0.10591      0.00000     0.39285    0.00124     0.39409
      H   25    0.11163      0.00000     0.38641    0.00196     0.38837
      H   26    0.09989      0.00000     0.39850    0.00160     0.40011
      H   27    0.08586      0.00000     0.41231    0.00182     0.41414
      H   28    0.10135      0.00000     0.39715    0.00150     0.39865
      H   29    0.09685      0.00000     0.40105    0.00210     0.40315
      H   30    0.10279      0.00000     0.39621    0.00101     0.39721
      H   31    0.10625      0.00000     0.39248    0.00127     0.39375
      H   32    0.10072      0.00000     0.39795    0.00133     0.39928
      H   33    0.09094      0.00000     0.40792    0.00114     0.40906
      H   34    0.09237      0.00000     0.40651    0.00112     0.40763
      H   35    0.11353      0.00000     0.38508    0.00139     0.38647
      H   36    0.10944      0.00000     0.38919    0.00136     0.39056
      H   37    0.09703      0.00000     0.40173    0.00124     0.40297
      H   38    0.09345      0.00000     0.40524    0.00130     0.40655
      H   39    0.09216      0.00000     0.40665    0.00119     0.40784
      H   40    0.10342      0.00000     0.39552    0.00105     0.39658
      H   41    0.10093      0.00000     0.39815    0.00092     0.39907
      H   42    0.09999      0.00000     0.39913    0.00088     0.40001
 =======================================================================
   * Total *   -0.00000     18.99379    54.75815    0.24806    74.00000

 Normal termination of Gaussian 16 at Sun Dec 13 22:49:02 2020.
