 Gaussian 16, Revision A.03,

 -----------------------------------------------------------
 # opt freq B3LYP/6-31G(d) empiricaldispersion=gd3bj scf=xqc
 -----------------------------------------------------------

 -------------------------------
 CID_117094981_JID_8789_neutraal
 -------------------------------
 Symbolic Z-matrix:
 Charge =  0 Multiplicity = 1

 SCF Done:  E(RB3LYP) =  -845.275338974     A.U. after   15 cycles
 SCF Done:  E(RB3LYP) =  -845.278614393     A.U. after   12 cycles
 SCF Done:  E(RB3LYP) =  -845.278699842     A.U. after   12 cycles
 SCF Done:  E(RB3LYP) =  -845.279213065     A.U. after   12 cycles
 SCF Done:  E(RB3LYP) =  -845.280027322     A.U. after   12 cycles
 SCF Done:  E(RB3LYP) =  -845.280819997     A.U. after   13 cycles
 SCF Done:  E(RB3LYP) =  -845.280344998     A.U. after   15 cycles
 SCF Done:  E(RB3LYP) =  -845.281404511     A.U. after   13 cycles
 SCF Done:  E(RB3LYP) =  -845.281450652     A.U. after   10 cycles
 SCF Done:  E(RB3LYP) =  -845.281464091     A.U. after   10 cycles
 SCF Done:  E(RB3LYP) =  -845.281502176     A.U. after    9 cycles
 SCF Done:  E(RB3LYP) =  -845.281503278     A.U. after    9 cycles
 SCF Done:  E(RB3LYP) =  -845.281504300     A.U. after    9 cycles
 SCF Done:  E(RB3LYP) =  -845.281504569     A.U. after    9 cycles
 SCF Done:  E(RB3LYP) =  -845.281504601     A.U. after    6 cycles
 Optimization completed.
    -- Stationary point found.
 Normal termination of Gaussian 16 at Fri Dec 11 21:12:34 2020.

 --------------------------------------------------------------------
 #N Geom=AllCheck Guess=TCheck SCRF=Check GenChk RB3LYP/6-31G(d) Freq
 --------------------------------------------------------------------

 Structure from the checkpoint file:  "JID_8789.chk"
 -------------------------------
 CID_117094981_JID_8789_neutraal
 -------------------------------
 Charge =  0 Multiplicity = 1

 SCF Done:  E(RB3LYP) =  -845.281504601     A.U. after    1 cycles

  Exact polarizability: 211.087  -4.038 132.652  -5.800 -11.614 126.395
 Approx polarizability: 263.353 -12.870 206.849 -12.305 -43.796 207.079

                      1                      2                      3
                      A                      A                      A
 Frequencies --     11.9518                24.7863                28.1453
 Red. masses --      5.0400                 5.3252                 3.5713
 Frc consts  --      0.0004                 0.0019                 0.0017
 IR Inten    --      0.1055                 1.9651                 0.6691

                      4                      5                      6
                      A                      A                      A
 Frequencies --     59.8147                65.0655               100.5430
 Red. masses --      5.1609                 5.1173                 3.3808
 Frc consts  --      0.0109                 0.0128                 0.0201
 IR Inten    --      0.9147                 0.2417                 0.0705

                      7                      8                      9
                      A                      A                      A
 Frequencies --    133.4525               153.1937               171.9263
 Red. masses --      1.2027                 3.5142                 4.1179
 Frc consts  --      0.0126                 0.0486                 0.0717
 IR Inten    --      0.7255                 0.9111                 2.3248

                     10                     11                     12
                      A                      A                      A
 Frequencies --    191.0287               230.7019               255.4053
 Red. masses --      4.7650                 1.7990                 5.0099
 Frc consts  --      0.1024                 0.0564                 0.1925
 IR Inten    --      3.9810                 0.1018                 0.7744

                     13                     14                     15
                      A                      A                      A
 Frequencies --    285.3338               324.6220               333.3428
 Red. masses --      3.5799                 4.8916                 3.7920
 Frc consts  --      0.1717                 0.3037                 0.2483
 IR Inten    --     10.0147                 0.4343                 3.0069

                     16                     17                     18
                      A                      A                      A
 Frequencies --    363.1322               367.6303               424.2278
 Red. masses --      3.6268                 3.2296                 2.6401
 Frc consts  --      0.2818                 0.2572                 0.2799
 IR Inten    --     12.4009                 8.5277                 5.1878

                     19                     20                     21
                      A                      A                      A
 Frequencies --    430.8877               437.5709               470.5734
 Red. masses --      3.0341                 2.2079                 5.4779
 Frc consts  --      0.3319                 0.2491                 0.7147
 IR Inten    --      0.7306                 0.3233                 3.6781

                     22                     23                     24
                      A                      A                      A
 Frequencies --    481.7547               537.0585               554.8872
 Red. masses --      3.1719                 2.7124                 2.4709
 Frc consts  --      0.4337                 0.4609                 0.4482
 IR Inten    --      1.3992                 4.4816                15.1991

                     25                     26                     27
                      A                      A                      A
 Frequencies --    632.1890               641.4953               695.2043
 Red. masses --      4.6349                 5.6857                 5.2645
 Frc consts  --      1.0914                 1.3785                 1.4991
 IR Inten    --     10.0077                 5.3395                 3.8002

                     28                     29                     30
                      A                      A                      A
 Frequencies --    713.3908               730.6943               800.5168
 Red. masses --      4.5347                 3.9462                 3.5132
 Frc consts  --      1.3597                 1.2414                 1.3265
 IR Inten    --      1.2756                 4.1918                23.4484

                     31                     32                     33
                      A                      A                      A
 Frequencies --    828.3143               831.0955               839.2382
 Red. masses --      1.6283                 1.5021                 1.8386
 Frc consts  --      0.6582                 0.6113                 0.7630
 IR Inten    --     16.6636                 0.7610                 9.0318

                     34                     35                     36
                      A                      A                      A
 Frequencies --    847.1522               863.4857               884.1626
 Red. masses --      2.2454                 3.8966                 2.6784
 Frc consts  --      0.9494                 1.7118                 1.2336
 IR Inten    --     13.8584                12.7091                 4.1152

                     37                     38                     39
                      A                      A                      A
 Frequencies --    887.1016               928.3879               947.0245
 Red. masses --      3.0971                 2.0304                 1.3413
 Frc consts  --      1.4360                 1.0311                 0.7088
 IR Inten    --     11.5108                 0.4076                 0.7577

                     40                     41                     42
                      A                      A                      A
 Frequencies --    968.2976               970.3947              1009.8244
 Red. masses --      2.1800                 1.3232                 2.1752
 Frc consts  --      1.2043                 0.7341                 1.3069
 IR Inten    --      2.6379                 0.0974                36.4894

                     43                     44                     45
                      A                      A                      A
 Frequencies --   1010.5085              1021.9700              1036.7379
 Red. masses --      1.3344                 2.7415                 2.6800
 Frc consts  --      0.8028                 1.6870                 1.6972
 IR Inten    --      5.9959                10.6855                 4.4943

                     46                     47                     48
                      A                      A                      A
 Frequencies --   1054.9593              1104.6294              1114.8633
 Red. masses --      4.8687                 4.1633                 3.9908
 Frc consts  --      3.1925                 2.9931                 2.9225
 IR Inten    --     38.3902                72.7508                27.6987

                     49                     50                     51
                      A                      A                      A
 Frequencies --   1146.6214              1172.0349              1173.2421
 Red. masses --      1.3960                 2.3539                 1.4079
 Frc consts  --      1.0814                 1.9051                 1.1418
 IR Inten    --     16.8835                24.2867               135.4337

                     52                     53                     54
                      A                      A                      A
 Frequencies --   1186.2281              1186.4447              1205.6035
 Red. masses --      3.7070                 1.2820                 1.2861
 Frc consts  --      3.0733                 1.0633                 1.1014
 IR Inten    --     83.5130                 2.1946                 4.7810

                     55                     56                     57
                      A                      A                      A
 Frequencies --   1214.5030              1219.8704              1228.7844
 Red. masses --      1.1738                 1.4637                 2.6805
 Frc consts  --      1.0201                 1.2833                 2.3846
 IR Inten    --     45.0047                 5.5184                 6.5947

                     58                     59                     60
                      A                      A                      A
 Frequencies --   1273.4162              1273.6115              1294.0126
 Red. masses --      1.3041                 3.0688                 1.3750
 Frc consts  --      1.2460                 2.9329                 1.3565
 IR Inten    --     20.0537               308.5813                 7.5847

                     61                     62                     63
                      A                      A                      A
 Frequencies --   1304.4188              1328.9474              1333.9749
 Red. masses --      2.2063                 1.5645                 1.7855
 Frc consts  --      2.2118                 1.6279                 1.8720
 IR Inten    --    212.7446                16.9820               117.2372

                     64                     65                     66
                      A                      A                      A
 Frequencies --   1347.5511              1349.0514              1379.9068
 Red. masses --      1.5736                 1.2974                 2.0073
 Frc consts  --      1.6836                 1.3912                 2.2519
 IR Inten    --      8.2805                 1.1692                31.2276

                     67                     68                     69
                      A                      A                      A
 Frequencies --   1390.5272              1396.6490              1416.9712
 Red. masses --      1.5302                 1.2099                 1.3769
 Frc consts  --      1.7433                 1.3905                 1.6288
 IR Inten    --     91.8247                 3.6837                12.4958

                     70                     71                     72
                      A                      A                      A
 Frequencies --   1438.1245              1448.7501              1472.9219
 Red. masses --      1.3259                 1.3279                 2.7228
 Frc consts  --      1.6157                 1.6421                 3.4803
 IR Inten    --     27.6365                 1.9293                 5.9393

                     73                     74                     75
                      A                      A                      A
 Frequencies --   1492.3525              1503.8234              1510.9793
 Red. masses --      1.2160                 1.1155                 1.0943
 Frc consts  --      1.5956                 1.4863                 1.4720
 IR Inten    --     10.4219                10.5820                 1.0024

                     76                     77                     78
                      A                      A                      A
 Frequencies --   1512.9056              1523.4073              1523.9887
 Red. masses --      1.0480                 1.0836                 1.1079
 Frc consts  --      1.4132                 1.4817                 1.5160
 IR Inten    --      6.0620                 0.3846                 2.5351

                     79                     80                     81
                      A                      A                      A
 Frequencies --   1524.7914              1536.7283              1561.7654
 Red. masses --      1.0495                 1.1088                 2.4856
 Frc consts  --      1.4376                 1.5427                 3.5720
 IR Inten    --      9.2612                 9.4917               167.0904

                     82                     83                     84
                      A                      A                      A
 Frequencies --   1634.2029              1676.3728              1822.5102
 Red. masses --      6.4277                 5.9124                10.8194
 Frc consts  --     10.1139                 9.7893                21.1734
 IR Inten    --     19.6604                55.5405               200.9651

                     85                     86                     87
                      A                      A                      A
 Frequencies --   2973.1573              2979.4780              3045.5915
 Red. masses --      1.0727                 1.0723                 1.0852
 Frc consts  --      5.5867                 5.6087                 5.9307
 IR Inten    --     17.5246               114.9092                39.8505

                     88                     89                     90
                      A                      A                      A
 Frequencies --   3074.5501              3075.5898              3075.7621
 Red. masses --      1.0648                 1.0664                 1.0296
 Frc consts  --      5.9304                 5.9431                 5.7387
 IR Inten    --     28.3285                 7.8852                33.1962

                     91                     92                     93
                      A                      A                      A
 Frequencies --   3078.7660              3115.3307              3117.7265
 Red. masses --      1.0600                 1.0914                 1.0930
 Frc consts  --      5.9198                 6.2411                 6.2594
 IR Inten    --     16.5811                52.0612                23.7791

                     94                     95                     96
                      A                      A                      A
 Frequencies --   3134.8819              3135.4943              3138.5742
 Red. masses --      1.1048                 1.0983                 1.0979
 Frc consts  --      6.3973                 6.3620                 6.3719
 IR Inten    --      6.9639                 0.6079                54.6809

                     97                     98                     99
                      A                      A                      A
 Frequencies --   3150.2687              3182.6685              3185.6608
 Red. masses --      1.1075                 1.1071                 1.0899
 Frc consts  --      6.4755                 6.6074                 6.5171
 IR Inten    --     22.5522                16.4933                14.8755

                    100                    101                    102
                      A                      A                      A
 Frequencies --   3198.8821              3217.8852              3260.6673
 Red. masses --      1.0883                 1.0941                 1.0902
 Frc consts  --      6.5612                 6.6747                 6.8289
 IR Inten    --      4.9118                 6.5892                14.1318

 - Thermochemistry -
 -------------------
 Temperature   298.150 Kelvin.  Pressure   1.00000 Atm.
 Atom     1 has atomic number  6 and mass  12.00000

 Molecular mass:   250.12051 amu.
 Principal axes and moments of inertia in atomic units:
                           1         2         3
     Eigenvalues --  1713.96614********************
           X            0.99999   0.00509   0.00029
           Y           -0.00510   0.99828   0.05839
           Z            0.00000  -0.05839   0.99829
 This molecule is an asymmetric top.
 Rotational symmetry number  1.
 Warning -- assumption of classical behavior for rotation
           may cause significant error
 Rotational temperatures (Kelvin)      0.05053     0.00744     0.00714
 Rotational constants (GHZ):           1.05296     0.15506     0.14885
 Zero-point vibrational energy     801172.6 (Joules/Mol)
                                  191.48485 (Kcal/Mol)
 Warning -- explicit consideration of  24 degrees of freedom as
           vibrations may cause significant error
 Vibrational temperatures:     17.20    35.66    40.49    86.06    93.61
          (Kelvin)            144.66   192.01   220.41   247.36   274.85
                              331.93   367.47   410.53   467.06   479.61
                              522.47   528.94   610.37   619.95   629.57
                              677.05   693.14   772.71   798.36   909.58
                              922.97  1000.24  1026.41  1051.31  1151.77
                             1191.76  1195.76  1207.48  1218.86  1242.36
                             1272.11  1276.34  1335.74  1362.56  1393.16
                             1396.18  1452.91  1453.90  1470.39  1491.63
                             1517.85  1589.32  1604.04  1649.73  1686.30
                             1688.03  1706.72  1707.03  1734.59  1747.40
                             1755.12  1767.95  1832.16  1832.44  1861.80
                             1876.77  1912.06  1919.29  1938.83  1940.98
                             1985.38  2000.66  2009.47  2038.71  2069.14
                             2084.43  2119.21  2147.16  2163.67  2173.96
                             2176.73  2191.84  2192.68  2193.83  2211.01
                             2247.03  2351.25  2411.93  2622.19  4277.71
                             4286.80  4381.93  4423.59  4425.09  4425.34
                             4429.66  4482.27  4485.71  4510.40  4511.28
                             4515.71  4532.53  4579.15  4583.46  4602.48
                             4629.82  4691.37

 Zero-point correction=                           0.305151 (Hartree/Particle)
 Thermal correction to Energy=                    0.321977
 Thermal correction to Enthalpy=                  0.322921
 Thermal correction to Gibbs Free Energy=         0.257235
 Sum of electronic and zero-point Energies=           -844.976354
 Sum of electronic and thermal Energies=              -844.959528
 Sum of electronic and thermal Enthalpies=            -844.958583
 Sum of electronic and thermal Free Energies=         -845.024270

                     E (Thermal)             CV                S
                      KCal/Mol        Cal/Mol-Kelvin    Cal/Mol-Kelvin
 Total                  202.044             63.456            138.248
 Electronic               0.000              0.000              0.000
 Translational            0.889              2.981             42.451
 Rotational               0.889              2.981             33.847
 Vibrational            200.266             57.495             61.950
 Vibration     1          0.593              1.987              7.657
 Vibration     2          0.593              1.985              6.208
 Vibration     3          0.593              1.984              5.956
 Vibration     4          0.597              1.973              4.463
 Vibration     5          0.597              1.971              4.297
 Vibration     6          0.604              1.949              3.444
 Vibration     7          0.613              1.920              2.896
 Vibration     8          0.619              1.899              2.632
 Vibration     9          0.626              1.877              2.414
 Vibration    10          0.634              1.852              2.218
 Vibration    11          0.652              1.794              1.873
 Vibration    12          0.666              1.754              1.693
 Vibration    13          0.683              1.701              1.501
 Vibration    14          0.709              1.626              1.287
 Vibration    15          0.715              1.609              1.244
 Vibration    16          0.737              1.548              1.109
 Vibration    17          0.740              1.539              1.090
 Vibration    18          0.786              1.418              0.878
 Vibration    19          0.792              1.403              0.856
 Vibration    20          0.798              1.388              0.834
 Vibration    21          0.828              1.315              0.736
 Vibration    22          0.838              1.291              0.705
 Vibration    23          0.892              1.168              0.572
 Vibration    24          0.910              1.129              0.534

                           ! Non-Optimized Parameters !
 Normal termination of Gaussian 16 at Fri Dec 11 21:26:28 2020.

 ----------------------------------------------------------------------
 # B3LYP/6-311++G(d,p) empiricaldispersion=gd3bj scf=xqc pop=npa geom=c
 heck
 ----------------------------------------------------------------------

 ---------------------------------------
 CID_117094981_JID_8789_Energie_neutraal
 ---------------------------------------
 Structure from the checkpoint file:  "JID_8789.chk"
 Charge =  0 Multiplicity = 1

 SCF Done:  E(RB3LYP) =  -845.519116197     A.U. after   16 cycles
 Normal termination of Gaussian 16 at Fri Dec 11 21:33:22 2020.

 ----------------------------------------------------------------------
 # B3LYP/6-311++G(d,p) empiricaldispersion=gd3bj scf=xqc pop=npa geom=c
 heck
 ----------------------------------------------------------------------

 -------------------------------------
 CID_117094981_JID_8789_Energie_kation
 -------------------------------------
 Structure from the checkpoint file:  "JID_8789.chk"
 Charge =  1 Multiplicity = 2

 SCF Done:  E(UB3LYP) =  -845.231564486     A.U. after   22 cycles
 Normal termination of Gaussian 16 at Fri Dec 11 21:47:11 2020.
 Gaussian 16:  ES64L-G16RevA.03 25-Dec-2016

 ----------------------------------------------------------------------
 # B3LYP/6-311++G(d,p) empiricaldispersion=gd3bj scf=xqc pop=npa geom=c
 heck
 ----------------------------------------------------------------------

 ------------------------------------
 CID_117094981_JID_8789_Energie_anion
 ------------------------------------
 Structure from the checkpoint file:  "JID_8789.chk"
 Charge = -1 Multiplicity = 2

                         Standard orientation:
 ---------------------------------------------------------------------
 Center     Atomic      Atomic             Coordinates (Angstroms)
 Number     Number       Type             X           Y           Z
 ---------------------------------------------------------------------
      1          6           0        5.204531    1.973441    0.741090
      2          8           0        4.396279    1.371271   -0.282181
      3          6           0        4.327108    0.023736   -0.236405
      4          8           0        4.917410   -0.652598    0.578659
      5          6           0        3.374382   -0.516065   -1.285840
      6          6           0        1.979891   -0.648601   -0.701710
      7          6           0        1.733316   -1.532516    0.359122
      8          6           0        0.464161   -1.651466    0.905171
      9          6           0       -0.604870   -0.886525    0.410483
     10          6           0       -0.368075    0.003724   -0.643196
     11          6           0        0.917190    0.113202   -1.181703
     12          8           0       -1.792390   -1.113925    1.047721
     13          6           0       -3.026646   -0.472136    0.706607
     14          6           0       -3.549039   -0.811078   -0.693841
     15          6           0       -4.909221   -0.132919   -0.893684
     16          8           0       -4.829319    1.270037   -0.686017
     17          6           0       -4.444069    1.579279    0.645755
     18          6           0       -3.046621    1.037975    0.968609
     19          1           0        5.153093    3.047396    0.561013
     20          1           0        6.236531    1.619569    0.673190
     21          1           0        4.810646    1.728738    1.731050
     22          1           0        3.360667    0.151072   -2.151236
     23          1           0        3.757493   -1.492591   -1.598540
     24          1           0        2.551946   -2.121160    0.763318
     25          1           0        0.267525   -2.335279    1.724504
     26          1           0       -1.156815    0.616204   -1.055626
     27          1           0        1.083801    0.812426   -1.997191
     28          1           0       -3.719293   -0.929163    1.424610
     29          1           0       -2.863665   -0.463321   -1.470200
     30          1           0       -3.644269   -1.898008   -0.799247
     31          1           0       -5.270339   -0.272113   -1.916136
     32          1           0       -5.654376   -0.570559   -0.206214
     33          1           0       -5.182782    1.164890    1.354281
     34          1           0       -4.471315    2.669060    0.728419
     35          1           0       -2.792953    1.234052    2.016843
     36          1           0       -2.313965    1.560201    0.348963
 ---------------------------------------------------------------------

 SCF Done:  E(UB3LYP) =  -845.506331248     A.U. after   33 cycles
 SCF Done:  E(UB3LYP) =  -845.506331248     a.u. after    1 cycles

 The electronic state is 2-A.
 Alpha  occ. eigenvalues --  -19.08594 -19.06262 -19.04092 -19.02756 -10.21604
 Alpha  occ. eigenvalues --  -10.14988 -10.14774 -10.13913 -10.13339 -10.13231
 Alpha  occ. eigenvalues --  -10.10270 -10.09621 -10.08988 -10.08863 -10.08696
 Alpha  occ. eigenvalues --  -10.08581 -10.08493 -10.08454  -1.02506  -0.97772
 Alpha  occ. eigenvalues --   -0.95593  -0.93732  -0.77600  -0.72572  -0.70133
 Alpha  occ. eigenvalues --   -0.68473  -0.66442  -0.65196  -0.61218  -0.56703
 Alpha  occ. eigenvalues --   -0.56168  -0.53065  -0.51156  -0.49025  -0.48353
 Alpha  occ. eigenvalues --   -0.44513  -0.42542  -0.41265  -0.40580  -0.39582
 Alpha  occ. eigenvalues --   -0.39405  -0.38683  -0.37976  -0.37088  -0.36736
 Alpha  occ. eigenvalues --   -0.35987  -0.35097  -0.34065  -0.33463  -0.32310
 Alpha  occ. eigenvalues --   -0.31991  -0.31086  -0.30379  -0.29294  -0.28037
 Alpha  occ. eigenvalues --   -0.27561  -0.27344  -0.26525  -0.25393  -0.24430
 Alpha  occ. eigenvalues --   -0.22736  -0.22603  -0.22199  -0.19734  -0.17820
 Alpha  occ. eigenvalues --   -0.17154  -0.13444   0.03928
 Alpha virt. eigenvalues --    0.05201   0.06019   0.06699   0.06919   0.06941
 Alpha virt. eigenvalues --    0.07652   0.07906   0.08198   0.09205   0.09400
 Alpha virt. eigenvalues --    0.09482   0.09822   0.10196   0.10456   0.10698

  Beta  occ. eigenvalues --  -19.08584 -19.06253 -19.04082 -19.02737 -10.21579
  Beta  occ. eigenvalues --  -10.14974 -10.14763 -10.13879 -10.13314 -10.13203
  Beta  occ. eigenvalues --  -10.10262 -10.09615 -10.08966 -10.08859 -10.08695
  Beta  occ. eigenvalues --  -10.08570 -10.08479 -10.08451  -1.02475  -0.97747
  Beta  occ. eigenvalues --   -0.95574  -0.93702  -0.77578  -0.72543  -0.70101
  Beta  occ. eigenvalues --   -0.68437  -0.66420  -0.65152  -0.61177  -0.56663
  Beta  occ. eigenvalues --   -0.56122  -0.53039  -0.51097  -0.48978  -0.48310
  Beta  occ. eigenvalues --   -0.44484  -0.42510  -0.41205  -0.40545  -0.39536
  Beta  occ. eigenvalues --   -0.39369  -0.38646  -0.37947  -0.37052  -0.36712
  Beta  occ. eigenvalues --   -0.35958  -0.35070  -0.34044  -0.33425  -0.32275
  Beta  occ. eigenvalues --   -0.31952  -0.31036  -0.30340  -0.29262  -0.28001
  Beta  occ. eigenvalues --   -0.27518  -0.27311  -0.26491  -0.25371  -0.24401
  Beta  occ. eigenvalues --   -0.22681  -0.22565  -0.22163  -0.19712  -0.17768
  Beta  occ. eigenvalues --   -0.17121  -0.13398
  Beta virt. eigenvalues --    0.05827   0.06226   0.06453   0.06937   0.07315
  Beta virt. eigenvalues --    0.07439   0.07793   0.08188   0.08573   0.09451
  Beta virt. eigenvalues --    0.09668   0.09917   0.10331   0.10451   0.10678

 Mulliken charges and spin densities:
               1          2
     1  C    0.577635  -0.801522
     2  O   -0.108358   0.065642
     3  C   -0.182756   0.096114
     4  O   -0.267035   0.025913
     5  C    1.287739  -1.794055
     6  C    0.487334   0.613313
     7  C   -1.250620   1.006176
     8  C   -0.567522   0.465206
     9  C   -0.898989   0.366566
    10  C    0.400035  -0.633815
    11  C    0.626102  -1.050387
    12  O   -0.062961   0.009357
    13  C    0.615103  -1.004666
    14  C   -0.798487   0.798412
    15  C    1.122437  -1.635980
    16  O   -0.165543   0.070074
    17  C    0.824757  -1.334688
    18  C   -0.755808   0.751000
    19  H   -0.340469   0.496248
    20  H   -0.114926   0.283020
    21  H   -0.062757   0.237091
    22  H   -0.084063   0.261297
    23  H    0.025223   0.159292
    24  H    0.098317   0.094499
    25  H    0.060209   0.116705
    26  H    0.384380  -0.174654
    27  H   -0.433048   0.616713
    28  H   -0.187429   0.381211
    29  H   -0.041167   0.179754
    30  H   -0.231061   0.403481
    31  H   -0.278008   0.469670
    32  H   -0.179695   0.323974
    33  H   -0.129741   0.272409
    34  H   -0.195218   0.385941
    35  H   -0.138648   0.308977
    36  H   -0.034960   0.171711
 Sum of Mulliken charges =  -1.00000   1.00000

 Dipole moment (field-independent basis, Debye):
    X=              1.6042    Y=             -1.8998    Z=              0.1571  Tot=              2.4915
 Quadrupole moment (field-independent basis, Debye-Ang):
   XX=           -235.9490   YY=           -150.0757   ZZ=           -142.9206
   XY=             -6.8292   XZ=             -3.5717   YZ=              0.3409

 Summary of Natural Population Analysis:

                                       Natural Population
                Natural  -----------------------------------------------
    Atom  No    Charge         Core      Valence    Rydberg      Total
 -----------------------------------------------------------------------
      C    1   -0.10298      0.99960     2.09520    0.00818     3.10298
      O    2   -0.27594      0.99986     3.26717    0.00890     4.27594
      C    3    0.41434      0.99969     1.55913    0.02683     2.58566
      O    4   -0.30835      0.99987     3.30277    0.00571     4.30835
      C    5   -0.23746      0.99955     2.22841    0.00949     3.23746
      C    6   -0.03364      0.99949     2.02401    0.01015     3.03364
      C    7   -0.09215      0.99952     2.08475    0.00789     3.09215
      C    8   -0.11527      0.99953     2.10705    0.00868     3.11527
      C    9    0.16516      0.99937     1.82290    0.01257     2.83484
      C   10   -0.14195      0.99952     2.13457    0.00786     3.14195
      C   11   -0.08479      0.99952     2.07548    0.00980     3.08479
      O   12   -0.27949      0.99985     3.26940    0.01023     4.27949
      C   13    0.06873      0.99949     1.91748    0.01429     2.93127
      C   14   -0.21787      0.99960     2.20960    0.00867     3.21787
      C   15   -0.00890      0.99958     1.99617    0.01315     3.00890
      O   16   -0.29832      0.99989     3.28898    0.00945     4.29832
      C   17   -0.00883      0.99958     1.99646    0.01279     3.00883
      C   18   -0.21740      0.99960     2.20954    0.00825     3.21740
      H   19    0.09352      0.00000     0.40476    0.00172     0.40648
      H   20    0.09031      0.00000     0.40820    0.00149     0.40969
      H   21    0.09218      0.00000     0.40645    0.00137     0.40782
      H   22    0.11360      0.00000     0.38475    0.00165     0.38640
      H   23    0.11213      0.00000     0.38682    0.00105     0.38787
      H   24    0.10651      0.00000     0.39231    0.00119     0.39349
      H   25    0.10511      0.00000     0.39361    0.00128     0.39489
      H   26    0.10470      0.00000     0.39329    0.00201     0.39530
      H   27    0.10223      0.00000     0.39660    0.00117     0.39777
      H   28    0.09305      0.00000     0.40480    0.00215     0.40695
      H   29    0.10171      0.00000     0.39642    0.00187     0.39829
      H   30    0.10695      0.00000     0.39177    0.00128     0.39305
      H   31    0.09440      0.00000     0.40426    0.00135     0.40560
      H   32    0.07847      0.00000     0.41959    0.00193     0.42153
      H   33    0.07824      0.00000     0.42004    0.00172     0.42176
      H   34    0.09401      0.00000     0.40475    0.00125     0.40599
      H   35    0.10645      0.00000     0.39243    0.00113     0.39355
      H   36    0.10153      0.00000     0.39666    0.00182     0.39847
 =======================================================================
   * Total *    0.00000     17.99312    48.78659    0.22029    67.00000

 Normal termination of Gaussian 16 at Fri Dec 11 22:07:54 2020.
