 Gaussian 16, Revision A.03,

 -----------------------------------------------------------
 # opt freq B3LYP/6-31G(d) empiricaldispersion=gd3bj scf=xqc
 -----------------------------------------------------------

 -------------------------------
 CID_150075814_JID_1235_neutraal
 -------------------------------
 Symbolic Z-matrix:
 Charge =  0 Multiplicity = 1

 SCF Done:  E(RB3LYP) =  -512.795920643     A.U. after   15 cycles
 SCF Done:  E(RB3LYP) =  -512.796701295     A.U. after   15 cycles
 SCF Done:  E(RB3LYP) =  -512.798307050     A.U. after   13 cycles
 SCF Done:  E(RB3LYP) =  -512.797895037     A.U. after   13 cycles
 SCF Done:  E(RB3LYP) =  -512.798474191     A.U. after   13 cycles
 SCF Done:  E(RB3LYP) =  -512.798492066     A.U. after   13 cycles
 SCF Done:  E(RB3LYP) =  -512.798523437     A.U. after   12 cycles
 SCF Done:  E(RB3LYP) =  -512.798542775     A.U. after   13 cycles
 SCF Done:  E(RB3LYP) =  -512.798551039     A.U. after   12 cycles
 SCF Done:  E(RB3LYP) =  -512.798558692     A.U. after   11 cycles
 SCF Done:  E(RB3LYP) =  -512.798561464     A.U. after   11 cycles
 SCF Done:  E(RB3LYP) =  -512.798563723     A.U. after   11 cycles
 SCF Done:  E(RB3LYP) =  -512.798566278     A.U. after   11 cycles
 SCF Done:  E(RB3LYP) =  -512.798566633     A.U. after   10 cycles
 SCF Done:  E(RB3LYP) =  -512.798566732     A.U. after    8 cycles
 SCF Done:  E(RB3LYP) =  -512.798566755     A.U. after    7 cycles
 Optimization completed.
    -- Stationary point found.
 Normal termination of Gaussian 16 at Tue Dec  8 19:30:49 2020.

 --------------------------------------------------------------------
 #N Geom=AllCheck Guess=TCheck SCRF=Check GenChk RB3LYP/6-31G(d) Freq
 --------------------------------------------------------------------

 Structure from the checkpoint file:  "JID_1235.chk"
 -------------------------------
 CID_150075814_JID_1235_neutraal
 -------------------------------
 Charge =  0 Multiplicity = 1

 SCF Done:  E(RB3LYP) =  -512.798566755     A.U. after    1 cycles

  Exact polarizability: 101.698  17.922 109.074  -8.047  -1.744  69.146
 Approx polarizability: 152.891  57.904 185.785 -17.579  -2.156 113.371

                      1                      2                      3
                      A                      A                      A
 Frequencies --     10.2984                36.0748                55.0498
 Red. masses --      7.5204                 6.3058                 3.6681
 Frc consts  --      0.0005                 0.0048                 0.0065
 IR Inten    --      0.2482                 3.9890                 0.3791

                      4                      5                      6
                      A                      A                      A
 Frequencies --     98.7791               148.6597               162.4618
 Red. masses --      3.8368                 6.3449                 1.6361
 Frc consts  --      0.0221                 0.0826                 0.0254
 IR Inten    --      2.7735                 0.7626                 7.3478

                      7                      8                      9
                      A                      A                      A
 Frequencies --    168.6733               213.4898               297.6608
 Red. masses --      1.5661                 4.0904                 3.1240
 Frc consts  --      0.0263                 0.1098                 0.1631
 IR Inten    --      2.4068                 1.6608                 5.5119

                     10                     11                     12
                      A                      A                      A
 Frequencies --    312.8408               379.8326               401.3374
 Red. masses --      2.6247                 2.8675                 2.8514
 Frc consts  --      0.1513                 0.2437                 0.2706
 IR Inten    --      4.3353                 1.3152                 4.7059

                     13                     14                     15
                      A                      A                      A
 Frequencies --    460.7865               473.0715               572.4042
 Red. masses --      2.3036                 2.5697                 3.8249
 Frc consts  --      0.2882                 0.3388                 0.7384
 IR Inten    --      2.2672                 2.9924                 5.8112

                     16                     17                     18
                      A                      A                      A
 Frequencies --    573.7452               634.6101               650.0689
 Red. masses --     11.2347                 6.1839                 1.5874
 Frc consts  --      2.1790                 1.4673                 0.3952
 IR Inten    --     14.3408                 8.0752                 4.9101

                     19                     20                     21
                      A                      A                      A
 Frequencies --    710.2419               775.1709               836.4827
 Red. masses --      2.3069                 1.6236                 2.2930
 Frc consts  --      0.6856                 0.5748                 0.9453
 IR Inten    --      1.1015                 1.5927                 2.5089

                     22                     23                     24
                      A                      A                      A
 Frequencies --    884.9297               925.1796               941.9886
 Red. masses --      3.3755                 2.7337                 2.2967
 Frc consts  --      1.5574                 1.3787                 1.2007
 IR Inten    --      7.7541                 8.8729                 2.2081

                     25                     26                     27
                      A                      A                      A
 Frequencies --    973.6131              1012.4020              1047.7264
 Red. masses --      1.3350                 1.4549                 1.6448
 Frc consts  --      0.7456                 0.8786                 1.0638
 IR Inten    --     44.3060                 8.2364                 3.6193

                     28                     29                     30
                      A                      A                      A
 Frequencies --   1056.0236              1083.5876              1102.8564
 Red. masses --      1.9206                 1.5004                 2.1228
 Frc consts  --      1.2619                 1.0380                 1.5213
 IR Inten    --     11.2194                 0.7068                 5.3600

                     31                     32                     33
                      A                      A                      A
 Frequencies --   1130.1181              1219.4788              1223.5457
 Red. masses --      2.5748                 1.3027                 1.1402
 Frc consts  --      1.9375                 1.1414                 1.0057
 IR Inten    --     50.1371                14.1922                 0.0806

                     34                     35                     36
                      A                      A                      A
 Frequencies --   1311.1279              1332.5552              1344.5098
 Red. masses --      1.2861                 2.0470                 6.8909
 Frc consts  --      1.3026                 2.1416                 7.3393
 IR Inten    --     13.4639                 4.1243               141.8083

                     37                     38                     39
                      A                      A                      A
 Frequencies --   1385.2943              1393.2383              1416.9610
 Red. masses --      1.8944                 1.3460                 1.4009
 Frc consts  --      2.1420                 1.5394                 1.6572
 IR Inten    --     33.3240                39.7003                21.9067

                     40                     41                     42
                      A                      A                      A
 Frequencies --   1440.0689              1468.9812              1502.4436
 Red. masses --      1.2502                 1.2330                 1.0450
 Frc consts  --      1.5275                 1.5676                 1.3899
 IR Inten    --      5.9147                 5.3926                 6.4348

                     43                     44                     45
                      A                      A                      A
 Frequencies --   1507.4799              1515.7822              1525.4951
 Red. masses --      1.0862                 1.0841                 1.0879
 Frc consts  --      1.4544                 1.4675                 1.4917
 IR Inten    --      4.9742                21.0725                10.5025

                     46                     47                     48
                      A                      A                      A
 Frequencies --   1528.6689              1710.3273              1757.1253
 Red. masses --      1.1026                 4.4106                11.2222
 Frc consts  --      1.5180                 7.6016                20.4143
 IR Inten    --      8.9520                 8.4485               141.9895

                     49                     50                     51
                      A                      A                      A
 Frequencies --   2265.6680              3036.0430              3061.2540
 Red. masses --     13.4680                 1.0567                 1.0355
 Frc consts  --     40.7329                 5.7389                 5.7175
 IR Inten    --    485.5608                25.0625                15.3423

                     52                     53                     54
                      A                      A                      A
 Frequencies --   3064.6886              3080.6188              3085.6378
 Red. masses --      1.0711                 1.0958                 1.0664
 Frc consts  --      5.9274                 6.1273                 5.9825
 IR Inten    --      4.0562                45.7391                13.2801

                     55                     56                     57
                      A                      A                      A
 Frequencies --   3113.5314              3118.7344              3143.4551
 Red. masses --      1.1050                 1.0998                 1.1043
 Frc consts  --      6.3114                 6.3026                 6.4291
 IR Inten    --     15.6321                11.5713                13.4421

                     58                     59                     60
                      A                      A                      A
 Frequencies --   3150.0224              3177.7534              3266.2565
 Red. masses --      1.0970                 1.0634                 1.1125
 Frc consts  --      6.4132                 6.3268                 6.9927
 IR Inten    --     15.3661                 8.5096                 5.1967

 - Thermochemistry -
 -------------------
 Temperature   298.150 Kelvin.  Pressure   1.00000 Atm.
 Atom     1 has atomic number  6 and mass  12.00000

 Molecular mass:   153.09021 amu.
 Principal axes and moments of inertia in atomic units:
                           1         2         3
     Eigenvalues --  1146.632722469.275113239.54450
           X            0.99851  -0.05456  -0.00154
           Y            0.05457   0.99850   0.00479
           Z            0.00128  -0.00487   0.99999
 This molecule is an asymmetric top.
 Rotational symmetry number  1.
 Warning -- assumption of classical behavior for rotation
           may cause significant error
 Rotational temperatures (Kelvin)      0.07554     0.03508     0.02674
 Rotational constants (GHZ):           1.57395     0.73088     0.55710
 Zero-point vibrational energy     474181.2 (Joules/Mol)
                                  113.33204 (Kcal/Mol)
 Warning -- explicit consideration of  16 degrees of freedom as
           vibrations may cause significant error
 Vibrational temperatures:     14.82    51.90    79.20   142.12   213.89
          (Kelvin)            233.75   242.68   307.16   428.27   450.11
                              546.49   577.44   662.97   680.64   823.56
                              825.49   913.06   935.30  1021.88  1115.30
                             1203.51  1273.22  1331.13  1355.31  1400.81
                             1456.62  1507.44  1519.38  1559.04  1586.76
                             1625.99  1754.56  1760.41  1886.42  1917.25
                             1934.45  1993.13  2004.56  2038.69  2071.94
                             2113.54  2161.68  2168.93  2180.87  2194.85
                             2199.41  2460.78  2528.11  3259.79  4368.19
                             4404.46  4409.40  4432.32  4439.54  4479.68
                             4487.16  4522.73  4532.18  4572.08  4699.41

 Zero-point correction=                           0.180606 (Hartree/Particle)
 Thermal correction to Energy=                    0.192543
 Thermal correction to Enthalpy=                  0.193487
 Thermal correction to Gibbs Free Energy=         0.139927
 Sum of electronic and zero-point Energies=           -512.617961
 Sum of electronic and thermal Energies=              -512.606024
 Sum of electronic and thermal Enthalpies=            -512.605080
 Sum of electronic and thermal Free Energies=         -512.658640

                     E (Thermal)             CV                S
                      KCal/Mol        Cal/Mol-Kelvin    Cal/Mol-Kelvin
 Total                  120.822             41.849            112.727
 Electronic               0.000              0.000              0.000
 Translational            0.889              2.981             40.987
 Rotational               0.889              2.981             30.596
 Vibrational            119.045             35.888             41.144
 Vibration     1          0.593              1.987              7.953
 Vibration     2          0.594              1.982              5.464
 Vibration     3          0.596              1.976              4.627
 Vibration     4          0.604              1.950              3.478
 Vibration     5          0.618              1.904              2.689
 Vibration     6          0.623              1.888              2.521
 Vibration     7          0.625              1.881              2.450
 Vibration     8          0.644              1.820              2.014
 Vibration     9          0.691              1.678              1.430
 Vibration    10          0.701              1.649              1.347
 Vibration    11          0.750              1.513              1.040
 Vibration    12          0.767              1.467              0.958
 Vibration    13          0.819              1.337              0.764
 Vibration    14          0.830              1.310              0.729
 Vibration    15          0.929              1.091              0.500
 Vibration    16          0.930              1.088              0.497

 Optimization completed.
    -- Stationary point found.
 Normal termination of Gaussian 16 at Tue Dec  8 19:34:50 2020.

 ----------------------------------------------------------------------
 # B3LYP/6-311++G(d,p) empiricaldispersion=gd3bj scf=xqc pop=npa geom=c
 heck
 ----------------------------------------------------------------------

 ---------------------------------------
 CID_150075814_JID_1235_Energie_neutraal
 ---------------------------------------
 Structure from the checkpoint file:  "JID_1235.chk"
 Charge =  0 Multiplicity = 1

 SCF Done:  E(RB3LYP) =  -512.945192728     A.U. after   15 cycles
 Normal termination of Gaussian 16 at Tue Dec  8 19:36:18 2020.

 ----------------------------------------------------------------------
 # B3LYP/6-311++G(d,p) empiricaldispersion=gd3bj scf=xqc pop=npa geom=c
 heck
 ----------------------------------------------------------------------

 -------------------------------------
 CID_150075814_JID_1235_Energie_kation
 -------------------------------------
 Structure from the checkpoint file:  "JID_1235.chk"
 Charge =  1 Multiplicity = 2

 SCF Done:  E(UB3LYP) =  -512.611713460     A.U. after   26 cycles
 Normal termination of Gaussian 16 at Tue Dec  8 19:39:38 2020.
 Gaussian 16:  ES64L-G16RevA.03 25-Dec-2016

 ----------------------------------------------------------------------
 # B3LYP/6-311++G(d,p) empiricaldispersion=gd3bj scf=xqc pop=npa geom=c
 heck
 ----------------------------------------------------------------------

 ------------------------------------
 CID_150075814_JID_1235_Energie_anion
 ------------------------------------
 Structure from the checkpoint file:  "JID_1235.chk"
 Charge = -1 Multiplicity = 2

                         Standard orientation:
 ---------------------------------------------------------------------
 Center     Atomic      Atomic             Coordinates (Angstroms)
 Number     Number       Type             X           Y           Z
 ---------------------------------------------------------------------
      1          6           0        2.681164   -1.667608   -0.535630
      2          6           0        1.569378   -0.977991    0.210335
      3          6           0        0.599232   -1.649279    0.850196
      4          6           0        1.596517    0.516226    0.147991
      5          8           0        2.415705    1.072434   -0.572759
      6          6           0        0.600418    1.369945    0.927713
      7          6           0       -0.414068    2.031378   -0.021941
      8          6           0       -1.335752    1.036923   -0.718813
      9          7           0       -2.146697    0.337613    0.310857
     10          7           0       -2.765545   -0.653653   -0.085927
     11          7           0       -3.375373   -1.587399   -0.333934
     12          1           0        2.592971   -2.754655   -0.458887
     13          1           0        3.658102   -1.361910   -0.145350
     14          1           0        2.671863   -1.381138   -1.592438
     15          1           0       -0.214564   -1.155252    1.367883
     16          1           0        0.582620   -2.736029    0.852922
     17          1           0        0.077644    0.812915    1.706572
     18          1           0        1.185756    2.156460    1.415367
     19          1           0       -1.023234    2.748018    0.539851
     20          1           0        0.132910    2.589562   -0.789614
     21          1           0       -2.003242    1.562480   -1.413709
     22          1           0       -0.754488    0.306580   -1.296605
 ---------------------------------------------------------------------

 SCF Done:  E(UB3LYP) =  -512.953413548     A.U. after   30 cycles

 The electronic state is 2-A.
 Alpha  occ. eigenvalues --  -18.91765 -14.34811 -14.24948 -14.23223 -10.09245
 Alpha  occ. eigenvalues --  -10.06072 -10.04599 -10.02485 -10.02478 -10.01748
 Alpha  occ. eigenvalues --   -9.99905  -1.01212  -0.85934  -0.85313  -0.67624
 Alpha  occ. eigenvalues --   -0.64466  -0.58785  -0.54161  -0.49442  -0.44532
 Alpha  occ. eigenvalues --   -0.41680  -0.39111  -0.38383  -0.34551  -0.33738
 Alpha  occ. eigenvalues --   -0.33207  -0.32478  -0.29377  -0.28276  -0.27857
 Alpha  occ. eigenvalues --   -0.26132  -0.24577  -0.23771  -0.22789  -0.20920
 Alpha  occ. eigenvalues --   -0.20502  -0.19483  -0.17985  -0.13091  -0.11707
 Alpha  occ. eigenvalues --   -0.07961   0.05067
 Alpha virt. eigenvalues --    0.07692   0.08963   0.09820   0.10481   0.11577
 Alpha virt. eigenvalues --    0.12016   0.12246   0.13125   0.13630   0.13766
 Alpha virt. eigenvalues --    0.14754   0.15541   0.16306   0.17683   0.17798

  Beta  occ. eigenvalues --  -18.91267 -14.34646 -14.24781 -14.23258 -10.09200
  Beta  occ. eigenvalues --  -10.05751 -10.04563 -10.02503 -10.02489 -10.01727
  Beta  occ. eigenvalues --   -9.99523  -1.00927  -0.85232  -0.84990  -0.67497
  Beta  occ. eigenvalues --   -0.64097  -0.58619  -0.53828  -0.49056  -0.43839
  Beta  occ. eigenvalues --   -0.41528  -0.38997  -0.37716  -0.34214  -0.33481
  Beta  occ. eigenvalues --   -0.32937  -0.32197  -0.29117  -0.28036  -0.27550
  Beta  occ. eigenvalues --   -0.25964  -0.24075  -0.23679  -0.22391  -0.20727
  Beta  occ. eigenvalues --   -0.20326  -0.18161  -0.17233  -0.13046  -0.09746
  Beta  occ. eigenvalues --   -0.07534
  Beta virt. eigenvalues --    0.08372   0.09637   0.09762   0.10166   0.11495
  Beta virt. eigenvalues --    0.11836   0.12076   0.12207   0.13192   0.13675
  Beta virt. eigenvalues --    0.13969   0.14797   0.15477   0.16270   0.17590

 Mulliken charges and spin densities:
               1          2
     1  C   -0.628433   0.030604
     2  C    0.762315   0.045743
     3  C   -0.948546   0.261921
     4  C   -0.189455   0.062014
     5  O   -0.397410   0.177564
     6  C   -0.068180   0.188135
     7  C    0.214109  -0.458081
     8  C   -0.540611   0.000127
     9  N   -0.219525   0.050913
    10  N    0.441642  -0.023420
    11  N   -0.325691   0.115060
    12  H    0.102284  -0.001909
    13  H    0.128830   0.013459
    14  H    0.149502  -0.000376
    15  H    0.012382   0.041065
    16  H    0.099134  -0.030997
    17  H    0.086857   0.054720
    18  H    0.043425   0.131956
    19  H   -0.125163   0.269376
    20  H    0.195622  -0.022957
    21  H    0.035805   0.115339
    22  H    0.171107  -0.020258
 Sum of Mulliken charges =  -1.00000   1.00000

 Dipole moment (field-independent basis, Debye):
    X=             -2.0789    Y=              0.2047    Z=             -1.0223  Tot=              2.3257
 Quadrupole moment (field-independent basis, Debye-Ang):
   XX=           -106.3485   YY=            -89.8542   ZZ=            -78.1827
   XY=             -9.0288   XZ=              3.1263   YZ=              0.5383

 Summary of Natural Population Analysis:

                                       Natural Population
                Natural  -----------------------------------------------
    Atom  No    Charge         Core      Valence    Rydberg      Total
 -----------------------------------------------------------------------
      C    1   -0.29201      0.99964     2.28674    0.00564     3.29201
      C    2   -0.06303      0.99949     2.05252    0.01102     3.06303
      C    3   -0.10407      0.99953     2.09637    0.00817     3.10407
      C    4    0.29846      0.99960     1.67810    0.02383     2.70154
      O    5   -0.26653      0.99988     3.26071    0.00595     4.26653
      C    6   -0.23235      0.99960     2.22258    0.01017     3.23235
      C    7   -0.18743      0.99962     2.17761    0.01020     3.18743
      C    8   -0.09252      0.99959     2.08079    0.01214     3.09252
      N    9   -0.19472      0.99969     2.68103    0.01400     3.69472
      N   10    0.13152      0.99971     2.35257    0.01620     3.36848
      N   11   -0.04664      0.99982     2.53461    0.01221     3.54664
      H   12    0.08950      0.00000     0.40960    0.00091     0.41050
      H   13    0.10010      0.00000     0.39879    0.00111     0.39990
      H   14    0.10217      0.00000     0.39671    0.00112     0.39783
      H   15    0.08852      0.00000     0.41008    0.00140     0.41148
      H   16    0.07840      0.00000     0.42044    0.00116     0.42160
      H   17    0.10208      0.00000     0.39639    0.00154     0.39792
      H   18    0.10498      0.00000     0.39360    0.00143     0.39502
      H   19    0.09405      0.00000     0.40426    0.00169     0.40595
      H   20    0.10332      0.00000     0.39560    0.00108     0.39668
      H   21    0.08663      0.00000     0.41225    0.00112     0.41337
      H   22    0.09958      0.00000     0.39933    0.00109     0.40042
 =======================================================================
   * Total *    0.00000     10.99616    29.86066    0.14318    41.00000

 Normal termination of Gaussian 16 at Tue Dec  8 19:43:24 2020.
