 Gaussian 16, Revision A.03,

 -----------------------------------------------------------
 # opt freq B3LYP/6-31G(d) empiricaldispersion=gd3bj scf=xqc
 -----------------------------------------------------------

 -------------------------------
 CID_130745292_JID_3893_neutraal
 -------------------------------
 Symbolic Z-matrix:
 Charge =  0 Multiplicity = 1

 SCF Done:  E(RB3LYP) =  -541.897012379     A.U. after   13 cycles
 SCF Done:  E(RB3LYP) =  -541.912547089     A.U. after   11 cycles
 SCF Done:  E(RB3LYP) =  -541.909114678     A.U. after   11 cycles
 SCF Done:  E(RB3LYP) =  -541.915142660     A.U. after   10 cycles
 SCF Done:  E(RB3LYP) =  -541.915063845     A.U. after   11 cycles
 SCF Done:  E(RB3LYP) =  -541.912981143     A.U. after   11 cycles
 SCF Done:  E(RB3LYP) =  -541.912813712     A.U. after   10 cycles
 SCF Done:  E(RB3LYP) =  -541.915479467     A.U. after    9 cycles
 SCF Done:  E(RB3LYP) =  -541.915618259     A.U. after   11 cycles
 SCF Done:  E(RB3LYP) =  -541.916379086     A.U. after   10 cycles
 SCF Done:  E(RB3LYP) =  -541.916941239     A.U. after    9 cycles
 SCF Done:  E(RB3LYP) =  -541.916954794     A.U. after    9 cycles
 SCF Done:  E(RB3LYP) =  -541.916960577     A.U. after    8 cycles
 SCF Done:  E(RB3LYP) =  -541.916961569     A.U. after    7 cycles
 SCF Done:  E(RB3LYP) =  -541.916961773     A.U. after    7 cycles
 SCF Done:  E(RB3LYP) =  -541.916961897     A.U. after    7 cycles
 Optimization completed.
    -- Stationary point found.
 Normal termination of Gaussian 16 at Mon Dec 14 13:19:54 2020.

 --------------------------------------------------------------------
 #N Geom=AllCheck Guess=TCheck SCRF=Check GenChk RB3LYP/6-31G(d) Freq
 --------------------------------------------------------------------

 Structure from the checkpoint file:  "JID_3893.chk"
 -------------------------------
 CID_130745292_JID_3893_neutraal
 -------------------------------
 Charge =  0 Multiplicity = 1

 SCF Done:  E(RB3LYP) =  -541.916961897     A.U. after    1 cycles

  Exact polarizability: 132.895  -0.477 126.302  -0.270  -1.515 108.843
 Approx polarizability: 177.285  -2.974 172.167  -1.912  -0.622 165.644

                      1                      2                      3
                      A                      A                      A
 Frequencies --     98.3391               115.0228               128.0246
 Red. masses --      2.7713                 2.7147                 2.9155
 Frc consts  --      0.0158                 0.0212                 0.0282
 IR Inten    --      1.1952                10.9439                 0.4342

                      4                      5                      6
                      A                      A                      A
 Frequencies --    139.4195               155.4813               166.4480
 Red. masses --      2.1275                 2.3427                 2.1067
 Frc consts  --      0.0244                 0.0334                 0.0344
 IR Inten    --      2.6303                 1.2376                 0.9650

                      7                      8                      9
                      A                      A                      A
 Frequencies --    213.5283               218.3192               264.1843
 Red. masses --      1.6453                 1.8875                 1.9601
 Frc consts  --      0.0442                 0.0530                 0.0806
 IR Inten    --      0.8873                 1.5009                 0.5190

                     10                     11                     12
                      A                      A                      A
 Frequencies --    273.1036               289.1421               315.0861
 Red. masses --      1.3821                 1.8560                 1.1891
 Frc consts  --      0.0607                 0.0914                 0.0696
 IR Inten    --      0.3815                 1.1231                 0.1413

                     13                     14                     15
                      A                      A                      A
 Frequencies --    326.0808               353.8237               390.5922
 Red. masses --      2.5879                 2.3991                 2.2791
 Frc consts  --      0.1621                 0.1770                 0.2049
 IR Inten    --      0.3929                 1.0493                 0.7722

                     16                     17                     18
                      A                      A                      A
 Frequencies --    433.4832               454.2842               477.6642
 Red. masses --      2.6757                 2.4776                 2.8189
 Frc consts  --      0.2962                 0.3013                 0.3789
 IR Inten    --      0.8536                 1.0388                 1.8813

                     19                     20                     21
                      A                      A                      A
 Frequencies --    558.0175               621.3788               645.7571
 Red. masses --      2.6654                 2.8256                 2.6154
 Frc consts  --      0.4890                 0.6428                 0.6426
 IR Inten    --      0.2629                 8.3651                 4.2365

                     22                     23                     24
                      A                      A                      A
 Frequencies --    652.8869               731.4274               797.2990
 Red. masses --      2.5434                 1.8505                 2.7473
 Frc consts  --      0.6388                 0.5833                 1.0290
 IR Inten    --      8.6154                76.9782                 4.5515

                     25                     26                     27
                      A                      A                      A
 Frequencies --    834.0101               853.1995               884.3238
 Red. masses --      1.6167                 2.1112                 1.2809
 Frc consts  --      0.6626                 0.9055                 0.5902
 IR Inten    --      3.4458                 3.6369                 1.2833

                     28                     29                     30
                      A                      A                      A
 Frequencies --    906.1548               914.6348               928.9498
 Red. masses --      1.9971                 2.3479                 1.8729
 Frc consts  --      0.9662                 1.1573                 0.9523
 IR Inten    --      3.6678                 4.6115                 1.3932

                     31                     32                     33
                      A                      A                      A
 Frequencies --    942.4687               951.0348               957.9407
 Red. masses --      1.7950                 1.8547                 2.6853
 Frc consts  --      0.9394                 0.9883                 1.4518
 IR Inten    --      0.2859                 1.3968                 7.3222

                     34                     35                     36
                      A                      A                      A
 Frequencies --    976.4043               995.5635              1012.5779
 Red. masses --      1.2165                 2.5926                 3.3911
 Frc consts  --      0.6833                 1.5140                 2.0485
 IR Inten    --      0.5100                 5.2060                12.2140

                     37                     38                     39
                      A                      A                      A
 Frequencies --   1025.9770              1029.2897              1036.7123
 Red. masses --      2.0790                 2.5549                 2.6103
 Frc consts  --      1.2894                 1.5948                 1.6530
 IR Inten    --      0.6167                 5.1298                 3.7286

                     40                     41                     42
                      A                      A                      A
 Frequencies --   1052.5176              1077.3233              1079.3163
 Red. masses --      1.8482                 1.6403                 2.1024
 Frc consts  --      1.2063                 1.1217                 1.4430
 IR Inten    --     13.5481                 3.0462                22.4267

                     43                     44                     45
                      A                      A                      A
 Frequencies --   1114.8706              1123.5905              1160.5666
 Red. masses --      1.8932                 1.2995                 1.9133
 Frc consts  --      1.3864                 0.9666                 1.5183
 IR Inten    --      7.4226                13.5742                54.7292

                     46                     47                     48
                      A                      A                      A
 Frequencies --   1167.1370              1218.8204              1230.9883
 Red. masses --      2.5249                 1.7032                 1.2966
 Frc consts  --      2.0265                 1.4907                 1.1576
 IR Inten    --      4.1510                11.6500                 2.1551

                     49                     50                     51
                      A                      A                      A
 Frequencies --   1242.1548              1250.1688              1268.4433
 Red. masses --      1.7128                 2.2257                 1.3354
 Frc consts  --      1.5571                 2.0495                 1.2659
 IR Inten    --      8.1620                 0.8989                 2.4877

                     52                     53                     54
                      A                      A                      A
 Frequencies --   1283.6449              1286.0755              1300.7159
 Red. masses --      1.3725                 1.6291                 1.2050
 Frc consts  --      1.3325                 1.5875                 1.2011
 IR Inten    --      7.5131                14.3904                 2.8070

                     55                     56                     57
                      A                      A                      A
 Frequencies --   1308.4919              1318.7314              1341.1516
 Red. masses --      2.0427                 1.6797                 1.4073
 Frc consts  --      2.0607                 1.7210                 1.4914
 IR Inten    --     12.2401                 3.6012                 4.3406

                     58                     59                     60
                      A                      A                      A
 Frequencies --   1359.9868              1371.8163              1393.1504
 Red. masses --      1.4317                 1.3077                 1.2213
 Frc consts  --      1.5602                 1.4499                 1.3966
 IR Inten    --      6.8195                 8.2141                10.6902

                     61                     62                     63
                      A                      A                      A
 Frequencies --   1395.0255              1428.5094              1437.6713
 Red. masses --      1.2425                 1.2214                 1.2180
 Frc consts  --      1.4246                 1.4685                 1.4833
 IR Inten    --      0.0186                 4.1196                 9.0287

                     64                     65                     66
                      A                      A                      A
 Frequencies --   1446.7458              1464.8013              1480.1060
 Red. masses --      1.2019                 1.2249                 1.2388
 Frc consts  --      1.4822                 1.5485                 1.5989
 IR Inten    --      2.5622                 6.2444                10.1139

                     67                     68                     69
                      A                      A                      A
 Frequencies --   1512.6343              1517.2408              1519.9602
 Red. masses --      1.0524                 1.0540                 1.0790
 Frc consts  --      1.4188                 1.4295                 1.4687
 IR Inten    --      0.6761                 1.6424                 0.8144

                     70                     71                     72
                      A                      A                      A
 Frequencies --   1522.1357              1532.0751              1534.8264
 Red. masses --      1.0518                 1.0657                 1.0841
 Frc consts  --      1.4358                 1.4738                 1.5046
 IR Inten    --      2.9066                 2.2802                 4.1626

                     73                     74                     75
                      A                      A                      A
 Frequencies --   1540.0661              1546.9180              1548.7273
 Red. masses --      1.0709                 1.0985                 1.0759
 Frc consts  --      1.4965                 1.5487                 1.5205
 IR Inten    --      0.8281                 4.8899                 4.5671

                     76                     77                     78
                      A                      A                      A
 Frequencies --   1562.4941              1565.3750              2994.6023
 Red. masses --      1.0767                 1.0776                 1.0836
 Frc consts  --      1.5487                 1.5557                 5.7251
 IR Inten    --      8.9099                 8.5122                23.6229

                     79                     80                     81
                      A                      A                      A
 Frequencies --   3040.2442              3041.1603              3042.4330
 Red. masses --      1.0695                 1.0702                 1.0366
 Frc consts  --      5.8241                 5.8314                 5.6534
 IR Inten    --     43.5114                51.7857                16.8458

                     82                     83                     84
                      A                      A                      A
 Frequencies --   3047.3688              3048.2833              3055.0979
 Red. masses --      1.0721                 1.0422                 1.0436
 Frc consts  --      5.8660                 5.7056                 5.7392
 IR Inten    --     52.4258                45.0148                27.6435

                     85                     86                     87
                      A                      A                      A
 Frequencies --   3062.9323              3075.4879              3079.7101
 Red. masses --      1.0606                 1.0826                 1.0621
 Frc consts  --      5.8626                 6.0332                 5.9353
 IR Inten    --     42.0472                19.6439                27.5912

                     88                     89                     90
                      A                      A                      A
 Frequencies --   3099.0479              3102.0369              3103.5541
 Red. masses --      1.1023                 1.1009                 1.1018
 Frc consts  --      6.2376                 6.2416                 6.2526
 IR Inten    --      5.6619                22.1834                10.4983

                     91                     92                     93
                      A                      A                      A
 Frequencies --   3111.0903              3113.6995              3120.4372
 Red. masses --      1.1010                 1.0992                 1.1005
 Frc consts  --      6.2789                 6.2787                 6.3137
 IR Inten    --     66.8948                29.5962                47.0253

                     94                     95                     96
                      A                      A                      A
 Frequencies --   3121.8458              3127.5401              3132.2809
 Red. masses --      1.0974                 1.1029                 1.0960
 Frc consts  --      6.3012                 6.3559                 6.3357
 IR Inten    --     61.6306                45.2393                80.9451

                     97                     98                     99
                      A                      A                      A
 Frequencies --   3164.4384              3177.9036              3523.4995
 Red. masses --      1.0936                 1.0946                 1.0763
 Frc consts  --      6.4520                 6.5130                 7.8729
 IR Inten    --     13.3787                 3.1587                 1.2401

 - Thermochemistry -
 -------------------
 Temperature   298.150 Kelvin.  Pressure   1.00000 Atm.
 Atom     1 has atomic number  6 and mass  12.00000

 Molecular mass:   182.17830 amu.
 Principal axes and moments of inertia in atomic units:
                           1         2         3
     Eigenvalues --  1906.710032320.193713205.98888
           X            0.99859   0.05304   0.00230
           Y           -0.05300   0.99848  -0.01484
           Z           -0.00308   0.01469   0.99989
 This molecule is an asymmetric top.
 Rotational symmetry number  1.
 Warning -- assumption of classical behavior for rotation
           may cause significant error
 Rotational temperatures (Kelvin)      0.04543     0.03733     0.02702
 Rotational constants (GHZ):           0.94652     0.77784     0.56293
 Zero-point vibrational energy     855077.0 (Joules/Mol)
                                  204.36830 (Kcal/Mol)
 Warning -- explicit consideration of  19 degrees of freedom as
           vibrations may cause significant error
 Vibrational temperatures:    141.49   165.49   184.20   200.59   223.70
          (Kelvin)            239.48   307.22   314.11   380.10   392.94
                              416.01   453.34   469.16   509.07   561.98
                              623.69   653.61   687.25   802.86   894.03
                              929.10   939.36  1052.36  1147.14  1199.95
                             1227.56  1272.34  1303.75  1315.96  1336.55
                             1356.00  1368.33  1378.26  1404.83  1432.39
                             1456.87  1476.15  1480.92  1491.60  1514.34
                             1550.03  1552.90  1604.05  1616.60  1669.80
                             1679.25  1753.61  1771.12  1787.18  1798.71
                             1825.01  1846.88  1850.38  1871.44  1882.63
                             1897.36  1929.62  1956.72  1973.74  2004.43
                             2007.13  2055.31  2068.49  2081.54  2107.52
                             2129.54  2176.34  2182.97  2186.88  2190.01
                             2204.31  2208.27  2215.81  2225.67  2228.27
                             2248.08  2252.23  4308.56  4374.23  4375.55
                             4377.38  4384.48  4385.80  4395.60  4406.88
                             4424.94  4431.02  4458.84  4463.14  4465.32
                             4476.16  4479.92  4489.61  4491.64  4499.83
                             4506.65  4552.92  4572.29  5069.53

 Zero-point correction=                           0.325682 (Hartree/Particle)
 Thermal correction to Energy=                    0.339110
 Thermal correction to Enthalpy=                  0.340055
 Thermal correction to Gibbs Free Energy=         0.287406
 Sum of electronic and zero-point Energies=           -541.591280
 Sum of electronic and thermal Energies=              -541.577852
 Sum of electronic and thermal Enthalpies=            -541.576907
 Sum of electronic and thermal Free Energies=         -541.629556

                     E (Thermal)             CV                S
                      KCal/Mol        Cal/Mol-Kelvin    Cal/Mol-Kelvin
 Total                  212.795             53.934            110.809
 Electronic               0.000              0.000              0.000
 Translational            0.889              2.981             41.506
 Rotational               0.889              2.981             31.029
 Vibrational            211.017             47.972             38.274
 Vibration     1          0.604              1.950              3.487
 Vibration     2          0.608              1.937              3.182
 Vibration     3          0.611              1.925              2.976
 Vibration     4          0.615              1.914              2.812
 Vibration     5          0.620              1.897              2.604
 Vibration     6          0.624              1.884              2.475
 Vibration     7          0.644              1.820              2.013
 Vibration     8          0.646              1.813              1.973
 Vibration     9          0.671              1.739              1.634
 Vibration    10          0.676              1.723              1.576
 Vibration    11          0.686              1.694              1.479
 Vibration    12          0.702              1.645              1.335
 Vibration    13          0.710              1.623              1.279
 Vibration    14          0.730              1.567              1.149
 Vibration    15          0.758              1.490              0.998
 Vibration    16          0.794              1.397              0.847
 Vibration    17          0.813              1.351              0.783
 Vibration    18          0.834              1.300              0.716
 Vibration    19          0.914              1.122              0.528

 Optimization completed.
    -- Stationary point found.
 Normal termination of Gaussian 16 at Mon Dec 14 13:31:33 2020.

 ----------------------------------------------------------------------
 # B3LYP/6-311++G(d,p) empiricaldispersion=gd3bj scf=xqc pop=npa geom=c
 heck
 ----------------------------------------------------------------------

 ---------------------------------------
 CID_130745292_JID_3893_Energie_neutraal
 ---------------------------------------
 Structure from the checkpoint file:  "JID_3893.chk"
 Charge =  0 Multiplicity = 1

 SCF Done:  E(RB3LYP) =  -542.067588919     A.U. after   14 cycles
 Normal termination of Gaussian 16 at Mon Dec 14 13:37:04 2020.

 ----------------------------------------------------------------------
 # B3LYP/6-311++G(d,p) empiricaldispersion=gd3bj scf=xqc pop=npa geom=c
 heck
 ----------------------------------------------------------------------

 -------------------------------------
 CID_130745292_JID_3893_Energie_kation
 -------------------------------------
 Structure from the checkpoint file:  "JID_3893.chk"
 Charge =  1 Multiplicity = 2

 SCF Done:  E(UB3LYP) =  -541.785279784     A.U. after   20 cycles
 Normal termination of Gaussian 16 at Mon Dec 14 13:48:20 2020.
 Gaussian 16:  ES64L-G16RevA.03 25-Dec-2016

 ----------------------------------------------------------------------
 # B3LYP/6-311++G(d,p) empiricaldispersion=gd3bj scf=xqc pop=npa geom=c
 heck
 ----------------------------------------------------------------------

 ------------------------------------
 CID_130745292_JID_3893_Energie_anion
 ------------------------------------
 Structure from the checkpoint file:  "JID_3893.chk"
 Charge = -1 Multiplicity = 2

                         Standard orientation:
 ---------------------------------------------------------------------
 Center     Atomic      Atomic             Coordinates (Angstroms)
 Number     Number       Type             X           Y           Z
 ---------------------------------------------------------------------
      1          6           0       -1.753380   -1.401688    1.359991
      2          6           0       -1.611670   -0.645255    0.026112
      3          6           0       -1.054758   -1.567075   -1.074290
      4          6           0       -3.034001   -0.231742   -0.421310
      5          6           0       -0.833386    0.672842    0.270816
      6          6           0       -0.704935    1.663280   -0.924685
      7          6           0        0.415825    2.634059   -0.476237
      8          6           0        0.757847    2.144782    0.952874
      9          7           0        0.492247    0.694373    0.962327
     10          6           0        1.655911   -0.042533    0.489374
     11          6           0        1.827705   -1.564481    0.741479
     12          7           0        2.248456   -1.772354   -0.672969
     13          6           0        2.027206   -0.337913   -1.003742
     14          1           0       -2.314085   -2.332600    1.214886
     15          1           0       -2.298083   -0.791374    2.090431
     16          1           0       -0.786848   -1.646823    1.802648
     17          1           0       -1.741256   -2.411114   -1.213067
     18          1           0       -0.998101   -1.042186   -2.034501
     19          1           0       -0.068364   -1.982238   -0.866579
     20          1           0       -3.495329    0.460855    0.293045
     21          1           0       -3.026112    0.248773   -1.405204
     22          1           0       -3.675731   -1.117318   -0.490425
     23          1           0       -1.466986    1.195951    1.001994
     24          1           0       -0.443628    1.150092   -1.854347
     25          1           0       -1.650974    2.183452   -1.100604
     26          1           0        1.293346    2.546094   -1.126056
     27          1           0        0.102324    3.682820   -0.493293
     28          1           0        1.786412    2.356885    1.255411
     29          1           0        0.091947    2.624882    1.681686
     30          1           0        2.507338    0.461365    0.955100
     31          1           0        2.580672   -1.813474    1.499767
     32          1           0        0.916493   -2.115392    0.980850
     33          1           0        3.222023   -2.050617   -0.756928
     34          1           0        1.218393   -0.210415   -1.727475
     35          1           0        2.907444    0.202597   -1.375144
 ---------------------------------------------------------------------

 SCF Done:  E(UB3LYP) =  -542.052863780     A.U. after   27 cycles

 The electronic state is 2-A.
 Alpha  occ. eigenvalues --  -14.20070 -14.18867 -10.09509 -10.09269 -10.08760
 Alpha  occ. eigenvalues --  -10.08532 -10.08182 -10.08072 -10.06234 -10.06181
 Alpha  occ. eigenvalues --  -10.06042 -10.05617 -10.05142  -0.83660  -0.80627
 Alpha  occ. eigenvalues --   -0.72030  -0.66861  -0.60751  -0.59868  -0.58617
 Alpha  occ. eigenvalues --   -0.58436  -0.57012  -0.51053  -0.47872  -0.46871
 Alpha  occ. eigenvalues --   -0.42130  -0.40602  -0.39125  -0.37309  -0.35229
 Alpha  occ. eigenvalues --   -0.34188  -0.33468  -0.32664  -0.31932  -0.29869
 Alpha  occ. eigenvalues --   -0.29523  -0.29063  -0.28615  -0.28217  -0.26576
 Alpha  occ. eigenvalues --   -0.26162  -0.24602  -0.24515  -0.24039  -0.23062
 Alpha  occ. eigenvalues --   -0.22090  -0.21849  -0.21159  -0.20790  -0.12254
 Alpha  occ. eigenvalues --   -0.11133   0.04488
 Alpha virt. eigenvalues --    0.06303   0.07212   0.07931   0.08684   0.09142
 Alpha virt. eigenvalues --    0.09270   0.09749   0.09974   0.11351   0.11674
 Alpha virt. eigenvalues --    0.11848   0.12146   0.12744   0.13432   0.14007

  Beta  occ. eigenvalues --  -14.20071 -14.18847 -10.09499 -10.09254 -10.08759
  Beta  occ. eigenvalues --  -10.08512 -10.08163 -10.08048 -10.06218 -10.06168
  Beta  occ. eigenvalues --  -10.06021 -10.05605 -10.05129  -0.83640  -0.80600
  Beta  occ. eigenvalues --   -0.72018  -0.66832  -0.60718  -0.59823  -0.58586
  Beta  occ. eigenvalues --   -0.58401  -0.56957  -0.51007  -0.47827  -0.46824
  Beta  occ. eigenvalues --   -0.42092  -0.40510  -0.39098  -0.37281  -0.35208
  Beta  occ. eigenvalues --   -0.34162  -0.33441  -0.32639  -0.31901  -0.29835
  Beta  occ. eigenvalues --   -0.29498  -0.29033  -0.28590  -0.28192  -0.26558
  Beta  occ. eigenvalues --   -0.26135  -0.24567  -0.24487  -0.24010  -0.23034
  Beta  occ. eigenvalues --   -0.22063  -0.21819  -0.21138  -0.20769  -0.12226
  Beta  occ. eigenvalues --   -0.11111
  Beta virt. eigenvalues --    0.06567   0.07611   0.07820   0.08275   0.09221
  Beta virt. eigenvalues --    0.09610   0.09895   0.09946   0.10178   0.11726
  Beta virt. eigenvalues --    0.12046   0.12192   0.12546   0.12927   0.13622

 Mulliken charges and spin densities:
               1          2
     1  C   -0.463490   0.075723
     2  C   -1.169250   1.713246
     3  C   -0.008559  -0.714658
     4  C    0.602097  -1.220077
     5  C    0.438954  -1.126277
     6  C   -0.173993  -0.010240
     7  C    0.529592  -1.106347
     8  C   -0.186413   0.329397
     9  N    0.298084   0.070552
    10  C   -0.807354   0.487029
    11  C    1.054447  -1.564581
    12  N   -0.036565  -0.089375
    13  C    0.458825  -0.878447
    14  H   -0.060847   0.204020
    15  H   -0.043446   0.176734
    16  H    0.045780   0.073940
    17  H    0.121520   0.020760
    18  H   -0.081795   0.235964
    19  H    0.335105  -0.178694
    20  H   -0.326902   0.468496
    21  H    0.030699   0.120815
    22  H   -0.064705   0.218437
    23  H    0.403182  -0.191962
    24  H   -0.004488   0.150109
    25  H   -0.115588   0.252680
    26  H    0.197102  -0.056367
    27  H   -0.382378   0.552737
    28  H   -0.221254   0.393840
    29  H   -0.215786   0.342657
    30  H   -0.222491   0.379157
    31  H   -0.766704   0.912968
    32  H    0.370709  -0.192187
    33  H   -0.011948   0.287323
    34  H    0.370888  -0.182060
    35  H   -0.893028   1.044688
 Sum of Mulliken charges =  -1.00000   1.00000

 Dipole moment (field-independent basis, Debye):
    X=             -4.1101    Y=             -1.0658    Z=             -0.6977  Tot=              4.3029
 Quadrupole moment (field-independent basis, Debye-Ang):
   XX=           -155.5211   YY=           -130.2751   ZZ=           -118.1541
   XY=              4.6882   XZ=             -1.0535   YZ=             -0.7448

 Summary of Natural Population Analysis:

                                       Natural Population
                Natural  -----------------------------------------------
    Atom  No    Charge         Core      Valence    Rydberg      Total
 -----------------------------------------------------------------------
      C    1   -0.28140      0.99963     2.27441    0.00737     3.28140
      C    2   -0.05009      0.99955     2.03975    0.01078     3.05009
      C    3   -0.29110      0.99962     2.28510    0.00639     3.29110
      C    4   -0.28100      0.99964     2.27399    0.00737     3.28100
      C    5   -0.00033      0.99953     1.98490    0.01590     3.00033
      C    6   -0.20103      0.99961     2.19379    0.00763     3.20103
      C    7   -0.20194      0.99964     2.19501    0.00730     3.20194
      C    8   -0.08208      0.99962     2.07180    0.01067     3.08208
      N    9   -0.27563      0.99971     2.76264    0.01328     3.77563
      C   10   -0.01865      0.99955     2.00143    0.01767     3.01865
      C   11   -0.08499      0.99963     2.07447    0.01088     3.08499
      N   12   -0.34936      0.99977     2.83682    0.01277     3.84936
      C   13   -0.09472      0.99963     2.08425    0.01085     3.09472
      H   14    0.09553      0.00000     0.40376    0.00071     0.40447
      H   15    0.09887      0.00000     0.40035    0.00079     0.40113
      H   16    0.10367      0.00000     0.39514    0.00119     0.39633
      H   17    0.09664      0.00000     0.40260    0.00076     0.40336
      H   18    0.09768      0.00000     0.40146    0.00087     0.40232
      H   19    0.11277      0.00000     0.38479    0.00243     0.38723
      H   20    0.09922      0.00000     0.39979    0.00099     0.40078
      H   21    0.10001      0.00000     0.39909    0.00090     0.39999
      H   22    0.09842      0.00000     0.40074    0.00084     0.40158
      H   23    0.09371      0.00000     0.40448    0.00180     0.40629
      H   24    0.09638      0.00000     0.40225    0.00137     0.40362
      H   25    0.10035      0.00000     0.39841    0.00124     0.39965
      H   26    0.09696      0.00000     0.40165    0.00139     0.40304
      H   27    0.09888      0.00000     0.39981    0.00131     0.40112
      H   28    0.09920      0.00000     0.39941    0.00139     0.40080
      H   29    0.08984      0.00000     0.40895    0.00121     0.41016
      H   30    0.09997      0.00000     0.39712    0.00290     0.40003
      H   31    0.09032      0.00000     0.40759    0.00208     0.40968
      H   32    0.08657      0.00000     0.41135    0.00208     0.41343
      H   33    0.17800      0.00000     0.31865    0.00335     0.32200
      H   34    0.08768      0.00000     0.41022    0.00210     0.41232
      H   35    0.09162      0.00000     0.40595    0.00243     0.40838
 =======================================================================
   * Total *   -0.00000     12.99511    37.83193    0.17296    51.00000

 Normal termination of Gaussian 16 at Mon Dec 14 14:03:23 2020.
