 Gaussian 16, Revision A.03,

 -----------------------------------------------------------
 # opt freq B3LYP/6-31G(d) empiricaldispersion=gd3bj scf=xqc
 -----------------------------------------------------------

 ------------------------------
 CID_10241250_JID_2874_neutraal
 ------------------------------
 Symbolic Z-matrix:
 Charge =  0 Multiplicity = 1

 SCF Done:  E(RB3LYP) =  -523.721491273     A.U. after   13 cycles
 SCF Done:  E(RB3LYP) =  -523.724072809     A.U. after   11 cycles
 SCF Done:  E(RB3LYP) =  -523.724118353     A.U. after   10 cycles
 SCF Done:  E(RB3LYP) =  -523.724809966     A.U. after   10 cycles
 SCF Done:  E(RB3LYP) =  -523.725168898     A.U. after   10 cycles
 SCF Done:  E(RB3LYP) =  -523.724612486     A.U. after   13 cycles
 SCF Done:  E(RB3LYP) =  -523.725619212     A.U. after   12 cycles
 SCF Done:  E(RB3LYP) =  -523.725577295     A.U. after    9 cycles
 SCF Done:  E(RB3LYP) =  -523.725685824     A.U. after   10 cycles
 SCF Done:  E(RB3LYP) =  -523.725699802     A.U. after   10 cycles
 SCF Done:  E(RB3LYP) =  -523.725710349     A.U. after    8 cycles
 SCF Done:  E(RB3LYP) =  -523.725721932     A.U. after    9 cycles
 SCF Done:  E(RB3LYP) =  -523.725722309     A.U. after    8 cycles
 SCF Done:  E(RB3LYP) =  -523.725722590     A.U. after    7 cycles
 SCF Done:  E(RB3LYP) =  -523.725722587     A.U. after    6 cycles
 Optimization completed.
    -- Stationary point found.
 Normal termination of Gaussian 16 at Wed Dec  9 18:11:23 2020.

 --------------------------------------------------------------------
 #N Geom=AllCheck Guess=TCheck SCRF=Check GenChk RB3LYP/6-31G(d) Freq
 --------------------------------------------------------------------

 Structure from the checkpoint file:  "JID_2874.chk"
 ------------------------------
 CID_10241250_JID_2874_neutraal
 ------------------------------
 Charge =  0 Multiplicity = 1

 SCF Done:  E(RB3LYP) =  -523.725722587     A.U. after    1 cycles

  Exact polarizability: 139.546   0.799 109.372  -0.014  -0.364  97.357
 Approx polarizability: 157.703   1.220 156.711   2.521  -1.441 153.268

                      1                      2                      3
                      A                      A                      A
 Frequencies --     38.7231                63.5596                92.6315
 Red. masses --      3.8387                 2.8275                 3.0180
 Frc consts  --      0.0034                 0.0067                 0.0153
 IR Inten    --      0.1644                 0.0515                 0.8867

                      4                      5                      6
                      A                      A                      A
 Frequencies --     94.2967               120.7000               181.8671
 Red. masses --      2.3465                 2.3602                 3.1946
 Frc consts  --      0.0123                 0.0203                 0.0623
 IR Inten    --      0.8203                 4.1311                 0.2832

                      7                      8                      9
                      A                      A                      A
 Frequencies --    190.8672               228.6699               246.6275
 Red. masses --      2.5311                 1.5309                 1.5753
 Frc consts  --      0.0543                 0.0472                 0.0565
 IR Inten    --      3.3343                 0.3368                 0.3206

                     10                     11                     12
                      A                      A                      A
 Frequencies --    255.7386               302.3278               323.4601
 Red. masses --      2.1487                 2.2548                 1.1802
 Frc consts  --      0.0828                 0.1214                 0.0728
 IR Inten    --      4.1722                 1.2888               139.0246

                     13                     14                     15
                      A                      A                      A
 Frequencies --    352.6738               376.4569               414.9027
 Red. masses --      3.6296                 1.7988                 1.8998
 Frc consts  --      0.2660                 0.1502                 0.1927
 IR Inten    --      2.9863                10.4943                 0.3206

                     16                     17                     18
                      A                      A                      A
 Frequencies --    448.1679               455.6119               480.1156
 Red. masses --      1.8594                 2.7047                 3.0145
 Frc consts  --      0.2200                 0.3308                 0.4094
 IR Inten    --      0.2661                 1.3876                 3.0114

                     19                     20                     21
                      A                      A                      A
 Frequencies --    524.4595               600.6848               760.9671
 Red. masses --      3.2160                 2.1073                 1.7526
 Frc consts  --      0.5212                 0.4480                 0.5979
 IR Inten    --      5.9820                 1.9506                 7.1963

                     22                     23                     24
                      A                      A                      A
 Frequencies --    790.0787               821.9955               835.6531
 Red. masses --      1.7478                 1.8870                 1.5319
 Frc consts  --      0.6428                 0.7512                 0.6303
 IR Inten    --      4.0792                 3.7554                 0.1743

                     25                     26                     27
                      A                      A                      A
 Frequencies --    855.3355               888.5110               938.5097
 Red. masses --      2.5710                 1.6127                 1.9219
 Frc consts  --      1.1082                 0.7501                 0.9974
 IR Inten    --      0.6041                 6.6570                 4.1613

                     28                     29                     30
                      A                      A                      A
 Frequencies --    958.7932               987.1370               997.4396
 Red. masses --      1.5221                 1.6664                 2.1137
 Frc consts  --      0.8244                 0.9567                 1.2390
 IR Inten    --      8.9313                 8.7165                 5.1759

                     31                     32                     33
                      A                      A                      A
 Frequencies --   1000.8404              1020.9507              1036.4440
 Red. masses --      1.4029                 1.7651                 2.4072
 Frc consts  --      0.8279                 1.0840                 1.5236
 IR Inten    --      1.3706                 5.5429                 6.2538

                     34                     35                     36
                      A                      A                      A
 Frequencies --   1074.5026              1084.1785              1105.3543
 Red. masses --      3.8821                 2.1310                 2.2035
 Frc consts  --      2.6408                 1.4758                 1.5862
 IR Inten    --    106.3149                 9.1481                19.2154

                     37                     38                     39
                      A                      A                      A
 Frequencies --   1119.0802              1131.6052              1139.1184
 Red. masses --      1.9554                 2.4748                 1.8191
 Frc consts  --      1.4428                 1.8671                 1.3907
 IR Inten    --     11.3215                 4.6901                 2.1661

                     40                     41                     42
                      A                      A                      A
 Frequencies --   1159.3012              1174.0850              1190.8712
 Red. masses --      2.1139                 2.0292                 1.6545
 Frc consts  --      1.6739                 1.6480                 1.3825
 IR Inten    --      4.8068                44.5516                 8.5331

                     43                     44                     45
                      A                      A                      A
 Frequencies --   1208.3252              1237.0292              1268.3307
 Red. masses --      1.4951                 1.5786                 1.2251
 Frc consts  --      1.2861                 1.4232                 1.1612
 IR Inten    --      0.4761                 6.6299                 3.8344

                     46                     47                     48
                      A                      A                      A
 Frequencies --   1276.6806              1304.2948              1315.8948
 Red. masses --      1.2528                 1.3435                 1.3229
 Frc consts  --      1.2030                 1.3466                 1.3497
 IR Inten    --      5.5316                13.5923                 9.5446

                     49                     50                     51
                      A                      A                      A
 Frequencies --   1316.9769              1338.2111              1357.0255
 Red. masses --      1.2450                 1.1836                 1.3681
 Frc consts  --      1.2723                 1.2488                 1.4843
 IR Inten    --      3.9264                 5.4502                 9.7028

                     52                     53                     54
                      A                      A                      A
 Frequencies --   1366.2482              1381.0020              1396.1955
 Red. masses --      1.2911                 1.3288                 1.3242
 Frc consts  --      1.4199                 1.4931                 1.5209
 IR Inten    --     10.5055                20.1940                11.9645

                     55                     56                     57
                      A                      A                      A
 Frequencies --   1403.3090              1407.3883              1408.7640
 Red. masses --      1.4024                 1.3443                 1.2884
 Frc consts  --      1.6272                 1.5688                 1.5065
 IR Inten    --      0.3256                19.8469                 0.0518

                     58                     59                     60
                      A                      A                      A
 Frequencies --   1424.4504              1428.9959              1440.8433
 Red. masses --      1.5895                 1.4279                 1.3152
 Frc consts  --      1.9002                 1.7179                 1.6087
 IR Inten    --      2.1111                20.5357                49.2359

                     61                     62                     63
                      A                      A                      A
 Frequencies --   1442.4053              1458.2868              1504.7341
 Red. masses --      1.2654                 1.4214                 1.0918
 Frc consts  --      1.5511                 1.7810                 1.4565
 IR Inten    --      5.4936                 3.0798                 0.4205

                     64                     65                     66
                      A                      A                      A
 Frequencies --   1514.4953              1517.0401              1518.2246
 Red. masses --      1.0762                 1.0782                 1.0845
 Frc consts  --      1.4544                 1.4620                 1.4729
 IR Inten    --      4.3829                 2.2638                 3.4065

                     67                     68                     69
                      A                      A                      A
 Frequencies --   1523.2019              1529.3106              1532.6847
 Red. masses --      1.0861                 1.0612                 1.0884
 Frc consts  --      1.4846                 1.4624                 1.5064
 IR Inten    --      0.7705                 0.9755                 2.0517

                     70                     71                     72
                      A                      A                      A
 Frequencies --   1535.9374              1538.7578              1544.4922
 Red. masses --      1.0690                 1.0700                 1.1045
 Frc consts  --      1.4859                 1.4927                 1.5524
 IR Inten    --     10.5401                 4.5820                 3.2258

                     73                     74                     75
                      A                      A                      A
 Frequencies --   2893.7276              2902.1687              2920.2681
 Red. masses --      1.0741                 1.0732                 1.0730
 Frc consts  --      5.2992                 5.3257                 5.3913
 IR Inten    --     28.1634                45.8794               132.3338

                     76                     77                     78
                      A                      A                      A
 Frequencies --   2981.5913              3020.0987              3028.6043
 Red. masses --      1.0713                 1.0802                 1.0612
 Frc consts  --      5.6110                 5.8047                 5.7348
 IR Inten    --     43.1279                11.9423                30.9344

                     79                     80                     81
                      A                      A                      A
 Frequencies --   3037.7843              3038.2860              3039.9924
 Red. masses --      1.0649                 1.0609                 1.0625
 Frc consts  --      5.7900                 5.7703                 5.7855
 IR Inten    --     14.6594                51.6185                20.7181

                     82                     83                     84
                      A                      A                      A
 Frequencies --   3043.9417              3067.9939              3072.7586
 Red. masses --      1.0378                 1.0883                 1.0963
 Frc consts  --      5.6653                 6.0351                 6.0988
 IR Inten    --     25.6236                 2.9237                38.3457

                     85                     86                     87
                      A                      A                      A
 Frequencies --   3074.3538              3075.4343              3079.2649
 Red. masses --      1.1031                 1.0878                 1.1026
 Frc consts  --      6.1429                 6.0618                 6.1598
 IR Inten    --     34.1915                56.8633                38.0755

                     88                     89                     90
                      A                      A                      A
 Frequencies --   3084.8893              3094.0673              3109.0988
 Red. masses --      1.0982                 1.0941                 1.0969
 Frc consts  --      6.1574                 6.1710                 6.2471
 IR Inten    --     60.0261                58.6811                70.9973

                     91                     92                     93
                      A                      A                      A
 Frequencies --   3112.5894              3114.1166              3755.8085
 Red. masses --      1.0914                 1.1018                 1.0660
 Frc consts  --      6.2299                 6.2956                 8.8594
 IR Inten    --     22.7205                50.3176                 9.3817

 - Thermochemistry -
 -------------------
 Temperature   298.150 Kelvin.  Pressure   1.00000 Atm.
 Atom     1 has atomic number  6 and mass  12.00000

 Molecular mass:   171.16231 amu.
 Principal axes and moments of inertia in atomic units:
                           1         2         3
     Eigenvalues --   685.318765210.837785541.17413
           X            0.99997   0.00213  -0.00708
           Y           -0.00204   0.99992   0.01218
           Z            0.00710  -0.01217   0.99990
 This molecule is an asymmetric top.
 Rotational symmetry number  1.
 Warning -- assumption of classical behavior for rotation
           may cause significant error
 Rotational temperatures (Kelvin)      0.12638     0.01662     0.01563
 Rotational constants (GHZ):           2.63343     0.34634     0.32570
 Zero-point vibrational energy     806580.1 (Joules/Mol)
                                  192.77728 (Kcal/Mol)
 Warning -- explicit consideration of  20 degrees of freedom as
           vibrations may cause significant error
 Vibrational temperatures:     55.71    91.45   133.28   135.67   173.66
          (Kelvin)            261.67   274.62   329.01   354.84   367.95
                              434.98   465.39   507.42   541.64   596.95
                              644.81   655.52   690.78   754.58   864.25
                             1094.86  1136.75  1182.67  1202.32  1230.64
                             1278.37  1350.31  1379.49  1420.27  1435.09
                             1439.99  1468.92  1491.21  1545.97  1559.89
                             1590.36  1610.11  1628.13  1638.94  1667.98
                             1689.25  1713.40  1738.51  1779.81  1824.85
                             1836.86  1876.59  1893.28  1894.84  1925.39
                             1952.46  1965.73  1986.95  2008.81  2019.05
                             2024.92  2026.90  2049.47  2056.01  2073.05
                             2075.30  2098.15  2164.98  2179.02  2182.68
                             2184.39  2191.55  2200.34  2205.19  2209.87
                             2213.93  2222.18  4163.43  4175.57  4201.61
                             4289.84  4345.25  4357.49  4370.69  4371.42
                             4373.87  4379.55  4414.16  4421.01  4423.31
                             4424.86  4430.38  4438.47  4451.67  4473.30
                             4478.32  4480.52  5403.77

 Zero-point correction=                           0.307210 (Hartree/Particle)
 Thermal correction to Energy=                    0.320605
 Thermal correction to Enthalpy=                  0.321550
 Thermal correction to Gibbs Free Energy=         0.267147
 Sum of electronic and zero-point Energies=           -523.418512
 Sum of electronic and thermal Energies=              -523.405117
 Sum of electronic and thermal Enthalpies=            -523.404173
 Sum of electronic and thermal Free Energies=         -523.458575

                     E (Thermal)             CV                S
                      KCal/Mol        Cal/Mol-Kelvin    Cal/Mol-Kelvin
 Total                  201.183             50.728            114.499
 Electronic               0.000              0.000              0.000
 Translational            0.889              2.981             41.320
 Rotational               0.889              2.981             31.360
 Vibrational            199.405             44.767             41.819
 Vibration     1          0.594              1.981              5.323
 Vibration     2          0.597              1.972              4.344
 Vibration     3          0.602              1.954              3.604
 Vibration     4          0.603              1.953              3.569
 Vibration     5          0.609              1.932              3.089
 Vibration     6          0.630              1.864              2.309
 Vibration     7          0.634              1.852              2.219
 Vibration     8          0.651              1.797              1.889
 Vibration     9          0.661              1.768              1.755
 Vibration    10          0.666              1.753              1.691
 Vibration    11          0.694              1.669              1.404
 Vibration    12          0.708              1.629              1.293
 Vibration    13          0.729              1.570              1.154
 Vibration    14          0.747              1.520              1.053
 Vibration    15          0.778              1.438              0.909
 Vibration    16          0.807              1.365              0.801
 Vibration    17          0.814              1.348              0.779
 Vibration    18          0.836              1.294              0.710
 Vibration    19          0.879              1.196              0.600
 Vibration    20          0.959              1.030              0.448

 Optimization completed.
    -- Stationary point found.
 Normal termination of Gaussian 16 at Wed Dec  9 18:19:26 2020.

 ----------------------------------------------------------------------
 # B3LYP/6-311++G(d,p) empiricaldispersion=gd3bj scf=xqc pop=npa geom=c
 heck
 ----------------------------------------------------------------------

 --------------------------------------
 CID_10241250_JID_2874_Energie_neutraal
 --------------------------------------
 Structure from the checkpoint file:  "JID_2874.chk"
 Charge =  0 Multiplicity = 1

 SCF Done:  E(RB3LYP) =  -523.883080189     A.U. after   13 cycles
 Normal termination of Gaussian 16 at Wed Dec  9 18:22:59 2020.

 ----------------------------------------------------------------------
 # B3LYP/6-311++G(d,p) empiricaldispersion=gd3bj scf=xqc pop=npa geom=c
 heck
 ----------------------------------------------------------------------

 ------------------------------------
 CID_10241250_JID_2874_Energie_kation
 ------------------------------------
 Structure from the checkpoint file:  "JID_2874.chk"
 Charge =  1 Multiplicity = 2

 SCF Done:  E(UB3LYP) =  -523.585515208     A.U. after   21 cycles
 Normal termination of Gaussian 16 at Wed Dec  9 18:29:47 2020.
 Gaussian 16:  ES64L-G16RevA.03 25-Dec-2016

 ----------------------------------------------------------------------
 # B3LYP/6-311++G(d,p) empiricaldispersion=gd3bj scf=xqc pop=npa geom=c
 heck
 ----------------------------------------------------------------------

 -----------------------------------
 CID_10241250_JID_2874_Energie_anion
 -----------------------------------
 Structure from the checkpoint file:  "JID_2874.chk"
 Charge = -1 Multiplicity = 2

                         Standard orientation:
 ---------------------------------------------------------------------
 Center     Atomic      Atomic             Coordinates (Angstroms)
 Number     Number       Type             X           Y           Z
 ---------------------------------------------------------------------
      1          6           0       -4.687185   -0.210780    0.879300
      2          6           0       -3.691348   -0.850733   -0.093093
      3          6           0       -2.902184    0.178549   -0.919286
      4          6           0       -1.845501    0.985137   -0.136881
      5          7           0       -0.472149    0.539004   -0.378333
      6          6           0        0.485988    1.469364    0.215106
      7          6           0        1.922451    1.094188   -0.147966
      8          6           0        2.250763   -0.339236    0.288913
      9          6           0        1.183684   -1.287772   -0.269632
     10          6           0       -0.228366   -0.823376    0.091497
     11          6           0        3.655312   -0.771556   -0.137387
     12          8           0        4.690898    0.029034    0.421629
     13          1           0       -4.183677    0.443464    1.600362
     14          1           0       -5.232463   -0.971720    1.448779
     15          1           0       -5.424060    0.397339    0.340193
     16          1           0       -3.000136   -1.493247    0.467051
     17          1           0       -4.237099   -1.511945   -0.778974
     18          1           0       -2.395687   -0.310502   -1.759984
     19          1           0       -3.621999    0.875932   -1.367523
     20          1           0       -1.888470    2.036707   -0.441827
     21          1           0       -2.081755    0.970131    0.946756
     22          1           0        0.386096    1.500594    1.320730
     23          1           0        0.257735    2.476285   -0.153239
     24          1           0        2.607717    1.808034    0.326772
     25          1           0        2.045581    1.181886   -1.236811
     26          1           0        2.213303   -0.376927    1.387910
     27          1           0        1.267992   -1.328488   -1.364068
     28          1           0        1.339607   -2.306336    0.108155
     29          1           0       -0.957267   -1.491528   -0.374440
     30          1           0       -0.374800   -0.898930    1.190240
     31          1           0        3.851729   -1.790999    0.211763
     32          1           0        3.716798   -0.785765   -1.239128
     33          1           0        4.627027    0.908000    0.019169
 ---------------------------------------------------------------------

 SCF Done:  E(UB3LYP) =  -523.867012225     A.U. after   28 cycles

 The electronic state is 2-A.
 Alpha  occ. eigenvalues --  -19.02700 -14.20629 -10.11999 -10.09582 -10.09308
 Alpha  occ. eigenvalues --  -10.09194 -10.07700 -10.07399 -10.06801 -10.06766
 Alpha  occ. eigenvalues --  -10.06612 -10.06019  -0.92780  -0.83338  -0.71959
 Alpha  occ. eigenvalues --   -0.69076  -0.65933  -0.62763  -0.59079  -0.54528
 Alpha  occ. eigenvalues --   -0.53255  -0.50287  -0.47208  -0.46156  -0.41620
 Alpha  occ. eigenvalues --   -0.40176  -0.37723  -0.36012  -0.35554  -0.35271
 Alpha  occ. eigenvalues --   -0.34498  -0.33182  -0.31963  -0.30656  -0.30232
 Alpha  occ. eigenvalues --   -0.29099  -0.27688  -0.27205  -0.25744  -0.25499
 Alpha  occ. eigenvalues --   -0.24422  -0.23672  -0.23168  -0.22609  -0.21784
 Alpha  occ. eigenvalues --   -0.21550  -0.17962  -0.12445   0.04460
 Alpha virt. eigenvalues --    0.05935   0.06988   0.07583   0.07896   0.08359
 Alpha virt. eigenvalues --    0.08977   0.10104   0.10163   0.10529   0.10815
 Alpha virt. eigenvalues --    0.11336   0.11771   0.12390   0.13276   0.13701

  Beta  occ. eigenvalues --  -19.02668 -14.20617 -10.11983 -10.09573 -10.09294
  Beta  occ. eigenvalues --  -10.09183 -10.07698 -10.07392 -10.06771 -10.06747
  Beta  occ. eigenvalues --  -10.06599 -10.05987  -0.92710  -0.83313  -0.71931
  Beta  occ. eigenvalues --   -0.69043  -0.65903  -0.62724  -0.59027  -0.54476
  Beta  occ. eigenvalues --   -0.53205  -0.50236  -0.47145  -0.46113  -0.41558
  Beta  occ. eigenvalues --   -0.40135  -0.37693  -0.35975  -0.35526  -0.35229
  Beta  occ. eigenvalues --   -0.34469  -0.33151  -0.31922  -0.30630  -0.30190
  Beta  occ. eigenvalues --   -0.29058  -0.27654  -0.27167  -0.25710  -0.25459
  Beta  occ. eigenvalues --   -0.24388  -0.23643  -0.23133  -0.22568  -0.21755
  Beta  occ. eigenvalues --   -0.21521  -0.17924  -0.12377
  Beta virt. eigenvalues --    0.06577   0.07100   0.07533   0.07839   0.08560
  Beta virt. eigenvalues --    0.08817   0.09375   0.10404   0.10568   0.10907
  Beta virt. eigenvalues --    0.11073   0.11680   0.12228   0.12627   0.13537

 Mulliken charges and spin densities:
               1          2
     1  C    1.171873  -1.764389
     2  C   -0.665114   0.607321
     3  C   -0.157165  -0.170694
     4  C    0.143713  -0.364634
     5  N    0.094562   0.137381
     6  C    0.186910  -0.514095
     7  C    0.603380  -1.029042
     8  C   -1.264623   1.757441
     9  C    0.737857  -1.382860
    10  C   -0.524491   0.181969
    11  C    0.839308  -1.439971
    12  O   -0.232067  -0.004774
    13  H   -0.256854   0.388945
    14  H   -0.374092   0.510719
    15  H   -0.092210   0.222272
    16  H   -0.054383   0.154732
    17  H   -0.482030   0.638763
    18  H    0.128525   0.029647
    19  H   -0.280816   0.431519
    20  H   -0.103393   0.248101
    21  H    0.265542  -0.201069
    22  H    0.075449   0.032388
    23  H   -0.434553   0.601406
    24  H   -0.146922   0.266599
    25  H   -0.125558   0.297931
    26  H    0.089857   0.079299
    27  H    0.066527   0.097611
    28  H    0.045529   0.088320
    29  H    0.001478   0.166389
    30  H   -0.039304   0.154753
    31  H    0.008213   0.152813
    32  H   -0.063276   0.213499
    33  H   -0.161872   0.411708
 Sum of Mulliken charges =  -1.00000   1.00000

 Dipole moment (field-independent basis, Debye):
    X=              1.7768    Y=             -1.9862    Z=              0.4111  Tot=              2.6965
 Quadrupole moment (field-independent basis, Debye-Ang):
   XX=           -193.0643   YY=           -117.0990   ZZ=           -108.3709
   XY=            -12.4200   XZ=              0.9335   YZ=              3.0206

 Summary of Natural Population Analysis:

                                       Natural Population
                Natural  -----------------------------------------------
    Atom  No    Charge         Core      Valence    Rydberg      Total
 -----------------------------------------------------------------------
      C    1   -0.28590      0.99967     2.28105    0.00519     3.28590
      C    2   -0.19149      0.99964     2.18336    0.00849     3.19149
      C    3   -0.19964      0.99962     2.19105    0.00896     3.19964
      C    4   -0.08273      0.99961     2.07158    0.01154     3.08273
      N    5   -0.27725      0.99970     2.76643    0.01112     3.77725
      C    6   -0.08106      0.99961     2.06913    0.01231     3.08106
      C    7   -0.19857      0.99961     2.18685    0.01211     3.19857
      C    8   -0.12419      0.99958     2.11457    0.01004     3.12419
      C    9   -0.19101      0.99960     2.18370    0.00771     3.19101
      C   10   -0.08255      0.99961     2.07344    0.00950     3.08255
      C   11   -0.00286      0.99956     1.98983    0.01347     3.00286
      O   12   -0.36957      0.99990     3.36311    0.00656     4.36957
      H   13    0.09492      0.00000     0.40392    0.00116     0.40508
      H   14    0.09926      0.00000     0.39952    0.00122     0.40074
      H   15    0.09581      0.00000     0.40290    0.00130     0.40419
      H   16    0.09271      0.00000     0.40578    0.00151     0.40729
      H   17    0.09611      0.00000     0.40255    0.00135     0.40389
      H   18    0.10264      0.00000     0.39581    0.00155     0.39736
      H   19    0.09833      0.00000     0.40050    0.00116     0.40167
      H   20    0.09672      0.00000     0.40183    0.00145     0.40328
      H   21    0.07823      0.00000     0.42029    0.00148     0.42177
      H   22    0.07691      0.00000     0.42154    0.00154     0.42309
      H   23    0.09903      0.00000     0.39941    0.00156     0.40097
      H   24    0.10149      0.00000     0.39684    0.00167     0.39851
      H   25    0.09829      0.00000     0.39963    0.00208     0.40171
      H   26    0.09485      0.00000     0.40317    0.00198     0.40515
      H   27    0.09811      0.00000     0.40024    0.00165     0.40189
      H   28    0.09810      0.00000     0.40083    0.00107     0.40190
      H   29    0.09841      0.00000     0.39983    0.00176     0.40159
      H   30    0.07731      0.00000     0.42103    0.00166     0.42269
      H   31    0.08382      0.00000     0.41504    0.00115     0.41618
      H   32    0.07511      0.00000     0.42356    0.00134     0.42489
      H   33    0.23066      0.00000     0.26453    0.00482     0.26934
 =======================================================================
   * Total *    0.00000     11.99571    35.85285    0.15144    48.00000

 Normal termination of Gaussian 16 at Wed Dec  9 18:38:32 2020.
