 Gaussian 16, Revision A.03,

 -----------------------------------------------------------
 # opt freq B3LYP/6-31G(d) empiricaldispersion=gd3bj scf=xqc
 -----------------------------------------------------------

 ------------------------------
 CID_68605903_JID_7632_neutraal
 ------------------------------
 Symbolic Z-matrix:
 Charge =  0 Multiplicity = 1

 SCF Done:  E(RB3LYP) =  -761.150129109     A.U. after   15 cycles
 SCF Done:  E(RB3LYP) =  -761.157418270     A.U. after   13 cycles
 SCF Done:  E(RB3LYP) =  -761.158600594     A.U. after   13 cycles
 SCF Done:  E(RB3LYP) =  -761.159561642     A.U. after   11 cycles
 SCF Done:  E(RB3LYP) =  -761.160412647     A.U. after   13 cycles
 SCF Done:  E(RB3LYP) =  -761.160899142     A.U. after   13 cycles
 SCF Done:  E(RB3LYP) =  -761.161403277     A.U. after   12 cycles
 SCF Done:  E(RB3LYP) =  -761.162036896     A.U. after   13 cycles
 SCF Done:  E(RB3LYP) =  -761.162238197     A.U. after   12 cycles
 SCF Done:  E(RB3LYP) =  -761.162502798     A.U. after   12 cycles
 SCF Done:  E(RB3LYP) =  -761.163446880     A.U. after   10 cycles
 SCF Done:  E(RB3LYP) =  -761.163447526     A.U. after    8 cycles
 SCF Done:  E(RB3LYP) =  -761.163447714     A.U. after    8 cycles
 SCF Done:  E(RB3LYP) =  -761.163447809     A.U. after    7 cycles
 SCF Done:  E(RB3LYP) =  -761.163447885     A.U. after    7 cycles
 SCF Done:  E(RB3LYP) =  -761.163447903     A.U. after    7 cycles
 Optimization completed.
    -- Stationary point found.
 Normal termination of Gaussian 16 at Fri Dec 11 13:31:19 2020.

 --------------------------------------------------------------------
 #N Geom=AllCheck Guess=TCheck SCRF=Check GenChk RB3LYP/6-31G(d) Freq
 --------------------------------------------------------------------

 Structure from the checkpoint file:  "JID_7632.chk"
 ------------------------------
 CID_68605903_JID_7632_neutraal
 ------------------------------
 Charge =  0 Multiplicity = 1

 SCF Done:  E(RB3LYP) =  -761.163447903     A.U. after    1 cycles

  Exact polarizability: 190.721  15.249 158.509   6.948   8.311 110.739
 Approx polarizability: 266.762  29.991 255.540  16.898  26.251 170.720

                      1                      2                      3
                      A                      A                      A
 Frequencies --     20.7604                40.3584                65.6483
 Red. masses --      4.5196                 4.3269                 3.3330
 Frc consts  --      0.0011                 0.0042                 0.0085
 IR Inten    --      1.1210                 3.1115                 3.0371

                      4                      5                      6
                      A                      A                      A
 Frequencies --     92.3421               101.6359               123.1066
 Red. masses --      1.7681                 2.3670                 2.2021
 Frc consts  --      0.0089                 0.0144                 0.0197
 IR Inten    --      0.8683                 1.6389                 1.4492

                      7                      8                      9
                      A                      A                      A
 Frequencies --    185.1039               215.5105               232.5905
 Red. masses --      3.3354                 1.8723                 3.1717
 Frc consts  --      0.0673                 0.0512                 0.1011
 IR Inten    --      4.9385                 0.1739                 5.5950

                     10                     11                     12
                      A                      A                      A
 Frequencies --    256.9056               266.4284               282.0045
 Red. masses --      3.0541                 2.1125                 1.7066
 Frc consts  --      0.1188                 0.0884                 0.0800
 IR Inten    --      9.6839                23.8507                 1.0363

                     13                     14                     15
                      A                      A                      A
 Frequencies --    296.3175               301.4168               315.5340
 Red. masses --      1.6940                 2.3432                 1.8550
 Frc consts  --      0.0876                 0.1254                 0.1088
 IR Inten    --      6.1164                22.0376                14.4875

                     16                     17                     18
                      A                      A                      A
 Frequencies --    334.8570               353.3977               358.1303
 Red. masses --      2.9124                 3.7907                 2.2489
 Frc consts  --      0.1924                 0.2789                 0.1699
 IR Inten    --     49.7203                 5.8306                17.8495

                     19                     20                     21
                      A                      A                      A
 Frequencies --    402.3713               447.1090               466.4782
 Red. masses --      1.2544                 3.5342                 4.0285
 Frc consts  --      0.1197                 0.4163                 0.5165
 IR Inten    --    109.0547                 0.4043                 0.2189

                     22                     23                     24
                      A                      A                      A
 Frequencies --    486.2429               504.8730               511.0429
 Red. masses --      4.6333                 3.6997                 3.6949
 Frc consts  --      0.6454                 0.5556                 0.5685
 IR Inten    --     11.4922                 1.9287                 8.3876

                     25                     26                     27
                      A                      A                      A
 Frequencies --    579.0068               610.9212               628.4277
 Red. masses --      4.6937                 4.4368                 4.3266
 Frc consts  --      0.9271                 0.9756                 1.0067
 IR Inten    --      3.5229                10.2738                16.4850

                     28                     29                     30
                      A                      A                      A
 Frequencies --    640.0874               672.5770               705.4535
 Red. masses --      4.3749                 4.7794                 5.1085
 Frc consts  --      1.0561                 1.2738                 1.4979
 IR Inten    --      3.3877                 3.2676                10.2193

                     31                     32                     33
                      A                      A                      A
 Frequencies --    713.8708               772.3512               775.6827
 Red. masses --      2.4326                 2.1300                 1.5891
 Frc consts  --      0.7304                 0.7486                 0.5633
 IR Inten    --      6.9312                55.1695                 6.8821

                     34                     35                     36
                      A                      A                      A
 Frequencies --    796.1027               815.7556               823.8875
 Red. masses --      1.8200                 2.8396                 1.6139
 Frc consts  --      0.6796                 1.1133                 0.6455
 IR Inten    --     36.5751                14.3965               188.8571

                     37                     38                     39
                      A                      A                      A
 Frequencies --    877.7408               883.6016               892.8928
 Red. masses --      2.5593                 1.4431                 1.4996
 Frc consts  --      1.1617                 0.6638                 0.7044
 IR Inten    --    172.6172                29.1434                14.7054

                     40                     41                     42
                      A                      A                      A
 Frequencies --    936.2346               961.1781               989.9093
 Red. masses --      2.1679                 1.2655                 2.6261
 Frc consts  --      1.1196                 0.6888                 1.5162
 IR Inten    --     60.8395                 1.6738                28.4041

                     43                     44                     45
                      A                      A                      A
 Frequencies --   1007.9187              1019.1859              1061.7163
 Red. masses --      2.4231                 5.7833                 2.0873
 Frc consts  --      1.4503                 3.5395                 1.3863
 IR Inten    --     88.1556                 1.7571                29.5212

                     46                     47                     48
                      A                      A                      A
 Frequencies --   1075.7563              1094.8767              1120.5211
 Red. masses --      1.9754                 2.6162                 1.9088
 Frc consts  --      1.3469                 1.8478                 1.4120
 IR Inten    --     14.1781                46.6067                10.4454

                     49                     50                     51
                      A                      A                      A
 Frequencies --   1131.8110              1167.0040              1186.4794
 Red. masses --      1.8656                 2.6042                 1.2722
 Frc consts  --      1.4080                 2.0896                 1.0551
 IR Inten    --     11.1829                 2.7542                 0.7508

                     52                     53                     54
                      A                      A                      A
 Frequencies --   1194.0432              1205.7994              1210.1771
 Red. masses --      2.0160                 1.6562                 1.3774
 Frc consts  --      1.6935                 1.4187                 1.1886
 IR Inten    --     38.4773                42.7773                21.2579

                     55                     56                     57
                      A                      A                      A
 Frequencies --   1223.2710              1266.2371              1288.4746
 Red. masses --      1.4497                 1.9259                 2.9613
 Frc consts  --      1.2781                 1.8193                 2.8966
 IR Inten    --     13.2996                10.3502                79.8048

                     58                     59                     60
                      A                      A                      A
 Frequencies --   1300.0550              1329.5409              1330.1700
 Red. masses --      3.7790                 1.7818                 1.5952
 Frc consts  --      3.7632                 1.8557                 1.6629
 IR Inten    --    172.3201                46.6696                58.3308

                     61                     62                     63
                      A                      A                      A
 Frequencies --   1374.7275              1424.6726              1427.8027
 Red. masses --      5.6232                 1.9083                 1.3450
 Frc consts  --      6.2613                 2.2821                 1.6155
 IR Inten    --     16.1658                 1.0210                 7.5559

                     64                     65                     66
                      A                      A                      A
 Frequencies --   1484.9378              1501.2457              1502.1024
 Red. masses --      2.4810                 1.3523                 1.1914
 Frc consts  --      3.2233                 1.7957                 1.5839
 IR Inten    --     59.1216                10.8121                44.1745

                     67                     68                     69
                      A                      A                      A
 Frequencies --   1514.2910              1520.8799              1536.2908
 Red. masses --      1.0461                 1.0480                 1.3251
 Frc consts  --      1.4133                 1.4283                 1.8427
 IR Inten    --      7.5730                 4.9599                68.2433

                     70                     71                     72
                      A                      A                      A
 Frequencies --   1537.8409              1538.7461              1640.1329
 Red. masses --      1.8882                 1.5893                 5.5975
 Frc consts  --      2.6309                 2.2172                 8.8716
 IR Inten    --     85.4756                29.4442                47.2808

                     73                     74                     75
                      A                      A                      A
 Frequencies --   1660.0620              1667.3833              1676.3797
 Red. masses --      1.1047                 5.7154                 1.1366
 Frc consts  --      1.7937                 9.3620                 1.8820
 IR Inten    --     17.3706                85.0612                41.5032

                     76                     77                     78
                      A                      A                      A
 Frequencies --   1725.5109              1774.6374              3022.0708
 Red. masses --      7.1151                 6.5982                 1.0351
 Frc consts  --     12.4816                12.2433                 5.5696
 IR Inten    --    180.3497                18.1972                62.3119

                     79                     80                     81
                      A                      A                      A
 Frequencies --   3046.2057              3079.1924              3100.5706
 Red. masses --      1.0414                 1.1063                 1.0998
 Frc consts  --      5.6935                 6.1804                 6.2292
 IR Inten    --     25.4362                45.4029                17.1561

                     82                     83                     84
                      A                      A                      A
 Frequencies --   3155.7316              3179.8483              3185.6195
 Red. masses --      1.0994                 1.0981                 1.0874
 Frc consts  --      6.4505                 6.5419                 6.5018
 IR Inten    --     28.0769                 5.1197                13.9547

                     85                     86                     87
                      A                      A                      A
 Frequencies --   3209.6245              3212.8230              3228.8762
 Red. masses --      1.0924                 1.0909                 1.0915
 Frc consts  --      6.6302                 6.6344                 6.7049
 IR Inten    --     22.0730                15.9836                12.3851

                     88                     89                     90
                      A                      A                      A
 Frequencies --   3229.5460              3464.0510              3488.1011
 Red. masses --      1.0900                 1.0484                 1.0484
 Frc consts  --      6.6984                 7.4119                 7.5153
 IR Inten    --      4.8257                 3.6537                 8.5592

                     91                     92                     93
                      A                      A                      A
 Frequencies --   3568.6809              3586.0600              3627.9281
 Red. masses --      1.0931                 1.0951                 1.0776
 Frc consts  --      8.2024                 8.2976                 8.3567
 IR Inten    --      0.9807                 5.0696                26.2036

 - Thermochemistry -
 -------------------
 Temperature   298.150 Kelvin.  Pressure   1.00000 Atm.
 Atom     1 has atomic number  6 and mass  12.00000

 Molecular mass:   232.13241 amu.
 Principal axes and moments of inertia in atomic units:
                           1         2         3
     Eigenvalues --  2409.670655686.888176713.24927
           X            0.99996   0.00859  -0.00247
           Y           -0.00861   0.99995  -0.00459
           Z            0.00243   0.00461   0.99999
 This molecule is an asymmetric top.
 Rotational symmetry number  1.
 Warning -- assumption of classical behavior for rotation
           may cause significant error
 Rotational temperatures (Kelvin)      0.03594     0.01523     0.01290
 Rotational constants (GHZ):           0.74896     0.31735     0.26883
 Zero-point vibrational energy     722792.4 (Joules/Mol)
                                  172.75154 (Kcal/Mol)
 Warning -- explicit consideration of  26 degrees of freedom as
           vibrations may cause significant error
 Vibrational temperatures:     29.87    58.07    94.45   132.86   146.23
          (Kelvin)            177.12   266.32   310.07   334.65   369.63
                              383.33   405.74   426.33   433.67   453.98
                              481.78   508.46   515.27   578.92   643.29
                              671.16   699.60   726.40   735.28   833.06
                              878.98   904.17   920.94   967.69  1014.99
                             1027.10  1111.24  1116.03  1145.41  1173.69
                             1185.39  1262.87  1271.31  1284.67  1347.03
                             1382.92  1424.26  1450.17  1466.38  1527.57
                             1547.77  1575.28  1612.18  1628.42  1679.06
                             1707.08  1717.96  1734.88  1741.17  1760.01
                             1821.83  1853.83  1870.49  1912.91  1913.82
                             1977.93  2049.79  2054.29  2136.49  2159.96
                             2161.19  2178.73  2188.21  2210.38  2212.61
                             2213.91  2359.79  2388.46  2398.99  2411.94
                             2482.63  2553.31  4348.09  4382.81  4430.27
                             4461.03  4540.39  4575.09  4583.40  4617.93
                             4622.54  4645.63  4646.60  4984.00  5018.60
                             5134.54  5159.54  5219.78

 Zero-point correction=                           0.275297 (Hartree/Particle)
 Thermal correction to Energy=                    0.291776
 Thermal correction to Enthalpy=                  0.292720
 Thermal correction to Gibbs Free Energy=         0.230989
 Sum of electronic and zero-point Energies=           -760.888151
 Sum of electronic and thermal Energies=              -760.871672
 Sum of electronic and thermal Enthalpies=            -760.870728
 Sum of electronic and thermal Free Energies=         -760.932459

                     E (Thermal)             CV                S
                      KCal/Mol        Cal/Mol-Kelvin    Cal/Mol-Kelvin
 Total                  183.092             63.866            129.925
 Electronic               0.000              0.000              0.000
 Translational            0.889              2.981             42.228
 Rotational               0.889              2.981             32.886
 Vibrational            181.315             57.904             54.811
 Vibration     1          0.593              1.986              6.560
 Vibration     2          0.594              1.981              5.241
 Vibration     3          0.597              1.971              4.280
 Vibration     4          0.602              1.955              3.610
 Vibration     5          0.604              1.948              3.423
 Vibration     6          0.610              1.930              3.051
 Vibration     7          0.631              1.860              2.276
 Vibration     8          0.645              1.817              1.996
 Vibration     9          0.653              1.791              1.859
 Vibration    10          0.666              1.751              1.683
 Vibration    11          0.672              1.735              1.619
 Vibration    12          0.681              1.707              1.521
 Vibration    13          0.690              1.681              1.438
 Vibration    14          0.693              1.671              1.409
 Vibration    15          0.703              1.644              1.333
 Vibration    16          0.716              1.606              1.237
 Vibration    17          0.730              1.568              1.151
 Vibration    18          0.733              1.559              1.130
 Vibration    19          0.768              1.465              0.954
 Vibration    20          0.806              1.367              0.805
 Vibration    21          0.824              1.324              0.747
 Vibration    22          0.842              1.281              0.693
 Vibration    23          0.860              1.239              0.646
 Vibration    24          0.866              1.226              0.631
 Vibration    25          0.936              1.077              0.487
 Vibration    26          0.970              1.009              0.431

                           ! Non-Optimized Parameters !
 Normal termination of Gaussian 16 at Fri Dec 11 13:44:48 2020.

 ----------------------------------------------------------------------
 # B3LYP/6-311++G(d,p) empiricaldispersion=gd3bj scf=xqc pop=npa geom=c
 heck
 ----------------------------------------------------------------------

 --------------------------------------
 CID_68605903_JID_7632_Energie_neutraal
 --------------------------------------
 Structure from the checkpoint file:  "JID_7632.chk"
 Charge =  0 Multiplicity = 1

 SCF Done:  E(RB3LYP) =  -761.387686607     A.U. after   15 cycles
 Normal termination of Gaussian 16 at Fri Dec 11 13:51:25 2020.

 ----------------------------------------------------------------------
 # B3LYP/6-311++G(d,p) empiricaldispersion=gd3bj scf=xqc pop=npa geom=c
 heck
 ----------------------------------------------------------------------

 ------------------------------------
 CID_68605903_JID_7632_Energie_kation
 ------------------------------------
 Structure from the checkpoint file:  "JID_7632.chk"
 Charge =  1 Multiplicity = 2

 SCF Done:  E(UB3LYP) =  -761.131864017     A.U. after   25 cycles
 Normal termination of Gaussian 16 at Fri Dec 11 14:06:26 2020.
 Gaussian 16:  ES64L-G16RevA.03 25-Dec-2016

 ----------------------------------------------------------------------
 # B3LYP/6-311++G(d,p) empiricaldispersion=gd3bj scf=xqc pop=npa geom=c
 heck
 ----------------------------------------------------------------------

 -----------------------------------
 CID_68605903_JID_7632_Energie_anion
 -----------------------------------
 Structure from the checkpoint file:  "JID_7632.chk"
 Charge = -1 Multiplicity = 2

                         Standard orientation:
 ---------------------------------------------------------------------
 Center     Atomic      Atomic             Coordinates (Angstroms)
 Number     Number       Type             X           Y           Z
 ---------------------------------------------------------------------
      1          6           0        3.046219    2.556727   -0.977992
      2          6           0        2.535511    1.267968   -0.387459
      3          7           0        1.575053    0.639959   -0.959965
      4          6           0        1.137041   -0.659957   -0.443101
      5          6           0        1.618602   -0.945833    0.977426
      6          6           0        2.590129   -0.193619    1.508845
      7          7           0        3.171044    0.849052    0.762457
      8          7           0        1.080312   -2.097833    1.584817
      9          6           0       -0.410174   -0.652913   -0.436551
     10          6           0       -1.077968    0.487787    0.002911
     11          6           0       -2.474548    0.520866    0.072867
     12          6           0       -3.221965   -0.605781   -0.291402
     13          6           0       -2.549559   -1.749367   -0.725641
     14          6           0       -1.158546   -1.780820   -0.799833
     15          8           0       -3.016248    1.696930    0.511358
     16          6           0       -4.427617    1.790579    0.581410
     17          7           0        1.735895   -1.680737   -1.318036
     18          1           0        2.484710    2.776082   -1.886178
     19          1           0        4.111396    2.473908   -1.225329
     20          1           0        2.929899    3.391867   -0.275160
     21          1           0        3.006705   -0.360087    2.496552
     22          1           0        3.735152    1.522893    1.258667
     23          1           0        1.350290   -2.193720    2.559582
     24          1           0        0.066534   -2.128235    1.506350
     25          1           0       -0.519902    1.375176    0.278200
     26          1           0       -4.304433   -0.601998   -0.245398
     27          1           0       -3.125409   -2.624984   -1.013517
     28          1           0       -0.655246   -2.674248   -1.153165
     29          1           0       -4.891439    1.648188   -0.403809
     30          1           0       -4.847846    1.057635    1.283435
     31          1           0       -4.645021    2.798260    0.940115
     32          1           0        1.545045   -2.607589   -0.942656
     33          1           0        1.310677   -1.615494   -2.242335
 ---------------------------------------------------------------------

 SCF Done:  E(UB3LYP) =  -761.377381042     A.U. after   32 cycles

 The electronic state is 2-A.
 Alpha  occ. eigenvalues --  -19.06305 -14.24303 -14.21999 -14.19516 -14.18337
 Alpha  occ. eigenvalues --  -10.14646 -10.14591 -10.14299 -10.13265 -10.10232
 Alpha  occ. eigenvalues --  -10.09479 -10.08802 -10.08628 -10.08177 -10.07833
 Alpha  occ. eigenvalues --  -10.07767 -10.07286  -0.97898  -0.88466  -0.82526
 Alpha  occ. eigenvalues --   -0.80295  -0.76130  -0.75358  -0.67775  -0.66745
 Alpha  occ. eigenvalues --   -0.65745  -0.61372  -0.60620  -0.56729  -0.52143
 Alpha  occ. eigenvalues --   -0.51751  -0.48960  -0.45326  -0.44567  -0.44446
 Alpha  occ. eigenvalues --   -0.40288  -0.39477  -0.38732  -0.38213  -0.38020
 Alpha  occ. eigenvalues --   -0.37132  -0.36430  -0.35351  -0.34284  -0.33667
 Alpha  occ. eigenvalues --   -0.32553  -0.30966  -0.29974  -0.29618  -0.28633
 Alpha  occ. eigenvalues --   -0.28009  -0.27160  -0.26489  -0.24119  -0.23607
 Alpha  occ. eigenvalues --   -0.22940  -0.17419  -0.16150  -0.15728  -0.15235
 Alpha  occ. eigenvalues --   -0.13519  -0.09163   0.03850
 Alpha virt. eigenvalues --    0.05127   0.06467   0.06979   0.07433   0.07875
 Alpha virt. eigenvalues --    0.08350   0.08658   0.09082   0.09382   0.09803
 Alpha virt. eigenvalues --    0.10519   0.10824   0.11055   0.11701   0.12471

  Beta  occ. eigenvalues --  -19.06297 -14.24266 -14.21982 -14.19513 -14.18331
  Beta  occ. eigenvalues --  -10.14647 -10.14587 -10.14301 -10.13226 -10.10234
  Beta  occ. eigenvalues --  -10.09454 -10.08795 -10.08619 -10.08157 -10.07810
  Beta  occ. eigenvalues --  -10.07765 -10.07280  -0.97882  -0.88433  -0.82499
  Beta  occ. eigenvalues --   -0.80271  -0.76113  -0.75338  -0.67749  -0.66722
  Beta  occ. eigenvalues --   -0.65713  -0.61326  -0.60573  -0.56693  -0.52099
  Beta  occ. eigenvalues --   -0.51729  -0.48923  -0.45266  -0.44524  -0.44413
  Beta  occ. eigenvalues --   -0.40259  -0.39455  -0.38713  -0.38168  -0.37992
  Beta  occ. eigenvalues --   -0.37102  -0.36400  -0.35312  -0.34261  -0.33643
  Beta  occ. eigenvalues --   -0.32521  -0.30935  -0.29944  -0.29590  -0.28608
  Beta  occ. eigenvalues --   -0.27984  -0.27138  -0.26461  -0.24091  -0.23586
  Beta  occ. eigenvalues --   -0.22922  -0.17400  -0.16116  -0.15713  -0.15220
  Beta  occ. eigenvalues --   -0.13498  -0.09139
  Beta virt. eigenvalues --    0.05918   0.06634   0.06927   0.07424   0.07574
  Beta virt. eigenvalues --    0.08178   0.08553   0.09136   0.09370   0.09861
  Beta virt. eigenvalues --    0.10027   0.10789   0.11091   0.11183   0.11905

 Mulliken charges and spin densities:
               1          2
     1  C    1.145825  -1.818345
     2  C   -0.831059   0.729762
     3  N   -0.126836   0.092831
     4  C    1.338481  -1.120338
     5  C   -0.806992  -0.045280
     6  C    0.836193  -0.554513
     7  N   -0.159846   0.076551
     8  N   -0.543939   0.170738
     9  C    1.432008  -0.279531
    10  C   -1.083972   0.018586
    11  C   -0.715476   0.289553
    12  C   -0.576322   0.665518
    13  C    0.475491  -0.723309
    14  C   -0.207423  -0.178320
    15  O   -0.173212   0.036913
    16  C    0.691247  -1.025004
    17  N   -0.195272   0.012728
    18  H    0.138607   0.021307
    19  H   -0.044896   0.199464
    20  H   -0.112259   0.278760
    21  H   -0.952665   1.119330
    22  H   -0.447912   0.749116
    23  H    0.051842   0.199531
    24  H    0.208031   0.058005
    25  H    0.226750   0.025165
    26  H   -0.333078   0.512959
    27  H   -0.129145   0.302438
    28  H    0.124574  -0.009157
    29  H   -0.165960   0.316628
    30  H   -0.227421   0.381472
    31  H   -0.272505   0.439609
    32  H    0.196873   0.048538
    33  H    0.240270   0.008300
 Sum of Mulliken charges =  -1.00000   1.00000

 Dipole moment (field-independent basis, Debye):
    X=             -1.2549    Y=             -2.8330    Z=             -3.6400  Tot=              4.7802
 Quadrupole moment (field-independent basis, Debye-Ang):
   XX=           -196.8251   YY=           -137.4136   ZZ=           -139.3285
   XY=              0.6023   XZ=            -10.3605   YZ=             -3.3070

 Summary of Natural Population Analysis:

                                       Natural Population
                Natural  -----------------------------------------------
    Atom  No    Charge         Core      Valence    Rydberg      Total
 -----------------------------------------------------------------------
      C    1   -0.30469      0.99963     2.29940    0.00566     3.30469
      C    2    0.23534      0.99960     1.74931    0.01575     2.76466
      N    3   -0.28247      0.99965     2.77186    0.01096     3.78247
      C    4    0.12779      0.99948     1.85456    0.01817     2.87221
      C    5    0.06030      0.99943     1.92608    0.01419     2.93970
      C    6   -0.02923      0.99941     2.01607    0.01374     3.02923
      N    7   -0.30589      0.99966     2.79391    0.01233     3.80589
      N    8   -0.41047      0.99972     2.90044    0.01031     3.91047
      C    9   -0.01313      0.99948     1.99963    0.01402     3.01313
      C   10   -0.11056      0.99946     2.10133    0.00977     3.11056
      C   11    0.16316      0.99938     1.82382    0.01363     2.83684
      C   12   -0.14726      0.99952     2.13877    0.00897     3.14726
      C   13   -0.09215      0.99957     2.08196    0.01061     3.09215
      C   14   -0.12973      0.99950     2.11991    0.01033     3.12973
      O   15   -0.27139      0.99986     3.26190    0.00963     4.27139
      C   16   -0.10111      0.99960     2.09249    0.00902     3.10111
      N   17   -0.41916      0.99975     2.90996    0.00945     3.91916
      H   18    0.11222      0.00000     0.38687    0.00091     0.38778
      H   19    0.10568      0.00000     0.39337    0.00096     0.39432
      H   20    0.10528      0.00000     0.39365    0.00107     0.39472
      H   21    0.09957      0.00000     0.39723    0.00320     0.40043
      H   22    0.20078      0.00000     0.28927    0.00995     0.29922
      H   23    0.18254      0.00000     0.31583    0.00163     0.31746
      H   24    0.18708      0.00000     0.31078    0.00213     0.31292
      H   25    0.11435      0.00000     0.38360    0.00206     0.38565
      H   26    0.10655      0.00000     0.39191    0.00154     0.39345
      H   27    0.09927      0.00000     0.39989    0.00084     0.40073
      H   28    0.10111      0.00000     0.39764    0.00125     0.39889
      H   29    0.08476      0.00000     0.41371    0.00154     0.41524
      H   30    0.08520      0.00000     0.41306    0.00174     0.41480
      H   31    0.09388      0.00000     0.40506    0.00106     0.40612
      H   32    0.17775      0.00000     0.32042    0.00183     0.32225
      H   33    0.17465      0.00000     0.32369    0.00166     0.32535
 =======================================================================
   * Total *    0.00000     16.99270    44.77737    0.22993    62.00000

 Normal termination of Gaussian 16 at Fri Dec 11 14:25:43 2020.
