 Gaussian 16, Revision A.03,

 -----------------------------------------------------------
 # opt freq B3LYP/6-31G(d) empiricaldispersion=gd3bj scf=xqc
 -----------------------------------------------------------

 ------------------------------
 CID_79477252_JID_9489_neutraal
 ------------------------------
 Symbolic Z-matrix:
 Charge =  0 Multiplicity = 1

 SCF Done:  E(RB3LYP) =  -1277.92175761     A.U. after   15 cycles
 SCF Done:  E(RB3LYP) =  -1277.93204559     A.U. after   12 cycles
 SCF Done:  E(RB3LYP) =  -1277.93373653     A.U. after   12 cycles
 SCF Done:  E(RB3LYP) =  -1277.93468446     A.U. after   12 cycles
 SCF Done:  E(RB3LYP) =  -1277.93549405     A.U. after   12 cycles
 SCF Done:  E(RB3LYP) =  -1277.93596279     A.U. after   12 cycles
 SCF Done:  E(RB3LYP) =  -1277.93627989     A.U. after   12 cycles
 SCF Done:  E(RB3LYP) =  -1277.93655271     A.U. after   11 cycles
 SCF Done:  E(RB3LYP) =  -1277.93661849     A.U. after   12 cycles
 SCF Done:  E(RB3LYP) =  -1277.93664445     A.U. after   10 cycles
 SCF Done:  E(RB3LYP) =  -1277.93670190     A.U. after    7 cycles
 SCF Done:  E(RB3LYP) =  -1277.93670175     A.U. after    8 cycles
 SCF Done:  E(RB3LYP) =  -1277.93670165     A.U. after    7 cycles
 SCF Done:  E(RB3LYP) =  -1277.93670199     A.U. after    9 cycles
 SCF Done:  E(RB3LYP) =  -1277.93670174     A.U. after    9 cycles
 Optimization completed.
    -- Stationary point found.
 Normal termination of Gaussian 16 at Sun Dec 13 12:58:54 2020.

 --------------------------------------------------------------------
 #N Geom=AllCheck Guess=TCheck SCRF=Check GenChk RB3LYP/6-31G(d) Freq
 --------------------------------------------------------------------

 Structure from the checkpoint file:  "JID_9489.chk"
 ------------------------------
 CID_79477252_JID_9489_neutraal
 ------------------------------
 Charge =  0 Multiplicity = 1

 SCF Done:  E(RB3LYP) =  -1277.93670174     A.U. after    1 cycles

  Exact polarizability: 203.956  11.146 172.069  10.842 -11.743 125.418
 Approx polarizability: 275.482  13.252 255.095  28.522 -26.081 208.432

                      1                      2                      3
                      A                      A                      A
 Frequencies --     10.3860                19.8687                35.0005
 Red. masses --      4.3874                 3.6433                 5.0340
 Frc consts  --      0.0003                 0.0008                 0.0036
 IR Inten    --      0.1296                 0.6919                 0.2193

                      4                      5                      6
                      A                      A                      A
 Frequencies --     48.4436                65.8365                85.5595
 Red. masses --      5.0352                 2.8792                 2.5155
 Frc consts  --      0.0070                 0.0074                 0.0108
 IR Inten    --      0.4542                 0.1112                 0.3321

                      7                      8                      9
                      A                      A                      A
 Frequencies --     97.1087                99.2920               112.4990
 Red. masses --      7.7593                 2.6908                 5.0276
 Frc consts  --      0.0431                 0.0156                 0.0375
 IR Inten    --      2.2003                 0.4722                 4.1282

                     10                     11                     12
                      A                      A                      A
 Frequencies --    139.5131               168.3469               193.6493
 Red. masses --      3.2485                 3.6877                 3.3533
 Frc consts  --      0.0373                 0.0616                 0.0741
 IR Inten    --      1.3148                 0.8285                 2.3497

                     13                     14                     15
                      A                      A                      A
 Frequencies --    206.0155               215.6681               219.4240
 Red. masses --      5.4875                 1.0446                 1.4357
 Frc consts  --      0.1372                 0.0286                 0.0407
 IR Inten    --      2.5955                 0.0058                 0.4445

                     16                     17                     18
                      A                      A                      A
 Frequencies --    245.5578               268.2835               290.6611
 Red. masses --      1.5298                 7.7296                 2.3364
 Frc consts  --      0.0543                 0.3278                 0.1163
 IR Inten    --      1.6426                 1.0097                 0.8771

                     19                     20                     21
                      A                      A                      A
 Frequencies --    293.2586               299.9452               311.7056
 Red. masses --      2.0089                 4.5550                 5.8678
 Frc consts  --      0.1018                 0.2414                 0.3359
 IR Inten    --      0.2431                 0.7771                 2.1980

                     22                     23                     24
                      A                      A                      A
 Frequencies --    354.3427               372.0813               417.8738
 Red. masses --      2.4344                 4.1759                 4.2625
 Frc consts  --      0.1801                 0.3406                 0.4385
 IR Inten    --      1.1239                 2.1929                 2.4699

                     25                     26                     27
                      A                      A                      A
 Frequencies --    426.8443               449.4921               481.9161
 Red. masses --      2.3338                 6.3707                 2.8633
 Frc consts  --      0.2505                 0.7584                 0.3918
 IR Inten    --      3.9323                29.3302                10.6401

                     28                     29                     30
                      A                      A                      A
 Frequencies --    508.1124               546.0786               549.1796
 Red. masses --      5.4131                 3.8109                 5.7110
 Frc consts  --      0.8234                 0.6696                 1.0148
 IR Inten    --     12.5544                 0.6649                14.9789

                     31                     32                     33
                      A                      A                      A
 Frequencies --    562.4939               603.5455               613.5479
 Red. masses --      1.6888                 1.9716                 5.3832
 Frc consts  --      0.3148                 0.4231                 1.1940
 IR Inten    --     27.6167               161.7244               113.3586

                     34                     35                     36
                      A                      A                      A
 Frequencies --    649.0780               661.0099               705.8641
 Red. masses --      2.8042                 1.6413                 3.9162
 Frc consts  --      0.6961                 0.4225                 1.1496
 IR Inten    --      0.9786                 1.0217                54.9022

                     37                     38                     39
                      A                      A                      A
 Frequencies --    728.4897               760.7311               781.4466
 Red. masses --      3.8284                 4.3956                 1.7400
 Frc consts  --      1.1970                 1.4987                 0.6260
 IR Inten    --    195.0077                57.1618                 8.4624

                     40                     41                     42
                      A                      A                      A
 Frequencies --    801.1622               811.1174               820.5337
 Red. masses --      1.2455                 1.4196                 1.3757
 Frc consts  --      0.4710                 0.5503                 0.5457
 IR Inten    --      2.2603                 1.5923                 4.5587

                     43                     44                     45
                      A                      A                      A
 Frequencies --    861.5182               884.3638               943.5527
 Red. masses --      1.3994                 2.0723                 1.7563
 Frc consts  --      0.6119                 0.9549                 0.9213
 IR Inten    --     16.9820                92.5905                 6.5471

                     46                     47                     48
                      A                      A                      A
 Frequencies --    958.3822               975.7492               989.1219
 Red. masses --      1.6728                 5.5687                 3.9484
 Frc consts  --      0.9053                 3.1238                 2.2760
 IR Inten    --      4.3240                 7.6422                24.8189

                     49                     50                     51
                      A                      A                      A
 Frequencies --    990.4844              1006.0227              1022.7782
 Red. masses --      1.4073                 1.5889                 2.1032
 Frc consts  --      0.8135                 0.9474                 1.2963
 IR Inten    --     18.0336                 8.4815               102.6199

                     52                     53                     54
                      A                      A                      A
 Frequencies --   1062.1426              1094.5144              1109.1874
 Red. masses --      2.7761                 2.6709                 2.0037
 Frc consts  --      1.8452                 1.8852                 1.4524
 IR Inten    --      0.0859                93.3689                 1.7032

                     55                     56                     57
                      A                      A                      A
 Frequencies --   1124.5956              1140.9265              1142.0313
 Red. masses --      3.5540                 1.8237                 1.3327
 Frc consts  --      2.6482                 1.3987                 1.0241
 IR Inten    --    103.1896                29.4816               125.7904

                     58                     59                     60
                      A                      A                      A
 Frequencies --   1163.6818              1178.1398              1191.4785
 Red. masses --      2.0942                 2.3002                 2.1019
 Frc consts  --      1.6708                 1.8811                 1.7581
 IR Inten    --      0.1845               278.4795                 8.6195

                     61                     62                     63
                      A                      A                      A
 Frequencies --   1217.2362              1236.9908              1256.8669
 Red. masses --      2.6026                 2.4428                 1.5576
 Frc consts  --      2.2720                 2.2023                 1.4497
 IR Inten    --     19.0956                42.5642                70.5492

                     64                     65                     66
                      A                      A                      A
 Frequencies --   1298.4413              1310.1145              1318.2025
 Red. masses --      1.2952                 2.7607                10.9448
 Frc consts  --      1.2866                 2.7919                11.2052
 IR Inten    --     12.8947                 8.7831               165.5711

                     67                     68                     69
                      A                      A                      A
 Frequencies --   1330.0597              1350.6169              1365.1708
 Red. masses --      1.2395                 1.2125                 1.2143
 Frc consts  --      1.2919                 1.3031                 1.3333
 IR Inten    --      1.4365                13.0550                 2.8072

                     70                     71                     72
                      A                      A                      A
 Frequencies --   1389.4566              1403.3643              1405.4560
 Red. masses --      1.2977                 2.1451                 1.9167
 Frc consts  --      1.4761                 2.4890                 2.2307
 IR Inten    --      5.8529                 6.8101                 5.0146

                     73                     74                     75
                      A                      A                      A
 Frequencies --   1413.9113              1427.8250              1438.6085
 Red. masses --      1.4829                 1.3556                 1.2681
 Frc consts  --      1.7467                 1.6283                 1.5462
 IR Inten    --      0.3477                 4.9936                 6.8979

                     76                     77                     78
                      A                      A                      A
 Frequencies --   1440.3998              1444.5768              1452.8316
 Red. masses --      1.2835                 1.2222                 6.0635
 Frc consts  --      1.5689                 1.5027                 7.5405
 IR Inten    --     26.5702                 4.5512               156.3165

                     79                     80                     81
                      A                      A                      A
 Frequencies --   1475.9709              1508.7979              1514.6925
 Red. masses --      3.6892                 4.5686                 1.0607
 Frc consts  --      4.7351                 6.1277                 1.4338
 IR Inten    --     35.1376                37.6065                 1.5688

                     82                     83                     84
                      A                      A                      A
 Frequencies --   1520.0642              1520.7557              1527.3585
 Red. masses --      1.0549                 1.0707                 1.0446
 Frc consts  --      1.4361                 1.4590                 1.4358
 IR Inten    --      2.7677                 2.1836                 5.8992

                     85                     86                     87
                      A                      A                      A
 Frequencies --   1530.0078              1534.0785              1539.1576
 Red. masses --      1.0539                 1.0582                 1.0660
 Frc consts  --      1.4536                 1.4672                 1.4880
 IR Inten    --      3.1628                 5.1650                 9.9116

                     88                     89                     90
                      A                      A                      A
 Frequencies --   1540.4751              1543.6178              1608.5932
 Red. masses --      1.0613                 1.0571                 4.5123
 Frc consts  --      1.4839                 1.4841                 6.8792
 IR Inten    --      5.5047                 1.2473                54.6485

                     91                     92                     93
                      A                      A                      A
 Frequencies --   1807.0784              3006.6790              3025.9948
 Red. masses --      9.5626                 1.0805                 1.0693
 Frc consts  --     18.3983                 5.7552                 5.7688
 IR Inten    --    453.2535                12.2760                28.7821

                     94                     95                     96
                      A                      A                      A
 Frequencies --   3032.6254              3044.2155              3046.1801
 Red. masses --      1.0698                 1.0374                 1.0389
 Frc consts  --      5.7966                 5.6641                 5.6800
 IR Inten    --     38.5568                33.0894                32.4883

                     97                     98                     99
                      A                      A                      A
 Frequencies --   3060.1366              3067.0143              3084.9379
 Red. masses --      1.0392                 1.0615                 1.0934
 Frc consts  --      5.7338                 5.8829                 6.1310
 IR Inten    --     31.9550                25.4927                 8.4213

                    100                    101                    102
                      A                      A                      A
 Frequencies --   3103.9551              3105.2678              3108.5903
 Red. masses --      1.1026                 1.1015                 1.1011
 Frc consts  --      6.2589                 6.2580                 6.2691
 IR Inten    --      5.0041                25.0694                51.6159

                    103                    104                    105
                      A                      A                      A
 Frequencies --   3118.9753              3123.2220              3129.7814
 Red. masses --      1.1017                 1.1006                 1.0996
 Frc consts  --      6.3145                 6.3252                 6.3462
 IR Inten    --     41.4803                42.3298                33.5667

                    106                    107                    108
                      A                      A                      A
 Frequencies --   3144.1999              3160.4226              3303.5154
 Red. masses --      1.0915                 1.1020                 1.0966
 Frc consts  --      6.3576                 6.4852                 7.0513
 IR Inten    --      4.1862                11.9030                 2.3006

                    109                    110                    111
                      A                      A                      A
 Frequencies --   3305.1743              3641.0221              3701.3721
 Red. masses --      1.0983                 1.0808                 1.0642
 Frc consts  --      7.0693                 8.4417                 8.5898
 IR Inten    --      4.8289               125.1996                96.2017

 - Thermochemistry -
 -------------------
 Temperature   298.150 Kelvin.  Pressure   1.00000 Atm.
 Atom     1 has atomic number  6 and mass  12.00000

 Molecular mass:   288.11438 amu.
 Principal axes and moments of inertia in atomic units:
                           1         2         3
     Eigenvalues --  4164.356837679.49442**********
           X            0.99950  -0.03035  -0.00868
           Y            0.03015   0.99928  -0.02296
           Z            0.00937   0.02269   0.99970
 This molecule is an asymmetric top.
 Rotational symmetry number  1.
 Warning -- assumption of classical behavior for rotation
           may cause significant error
 Rotational temperatures (Kelvin)      0.02080     0.01128     0.00854
 Rotational constants (GHZ):           0.43338     0.23501     0.17790
 Zero-point vibrational energy     854454.8 (Joules/Mol)
                                  204.21961 (Kcal/Mol)
 Warning -- explicit consideration of  33 degrees of freedom as
           vibrations may cause significant error
 Vibrational temperatures:     14.94    28.59    50.36    69.70    94.72
          (Kelvin)            123.10   139.72   142.86   161.86   200.73
                              242.21   278.62   296.41   310.30   315.70
                              353.30   386.00   418.20   421.93   431.55
                              448.47   509.82   535.34   601.23   614.13
                              646.72   693.37   731.06   785.69   790.15
                              809.30   868.37   882.76   933.88   951.05
                             1015.58  1048.13  1094.52  1124.33  1152.69
                             1167.02  1180.56  1239.53  1272.40  1357.56
                             1378.90  1403.89  1423.13  1425.09  1447.44
                             1471.55  1528.19  1574.76  1595.87  1618.04
                             1641.54  1643.13  1674.28  1695.08  1714.27
                             1751.33  1779.75  1808.35  1868.17  1884.96
                             1896.60  1913.66  1943.24  1964.18  1999.12
                             2019.13  2022.14  2034.30  2054.32  2069.84
                             2072.41  2078.42  2090.30  2123.59  2170.82
                             2179.30  2187.03  2188.03  2197.53  2201.34
                             2207.20  2214.50  2216.40  2220.92  2314.41
                             2599.98  4325.94  4353.73  4363.27  4379.95
                             4382.77  4402.85  4412.75  4438.54  4465.90
                             4467.79  4472.57  4487.51  4493.62  4503.06
                             4523.80  4547.14  4753.02  4755.41  5238.62
                             5325.45

 Zero-point correction=                           0.325445 (Hartree/Particle)
 Thermal correction to Energy=                    0.346213
 Thermal correction to Enthalpy=                  0.347157
 Thermal correction to Gibbs Free Energy=         0.273127
 Sum of electronic and zero-point Energies=          -1277.611257
 Sum of electronic and thermal Energies=             -1277.590489
 Sum of electronic and thermal Enthalpies=           -1277.589545
 Sum of electronic and thermal Free Energies=        -1277.663575

                     E (Thermal)             CV                S
                      KCal/Mol        Cal/Mol-Kelvin    Cal/Mol-Kelvin
 Total                  217.252             76.160            155.808
 Electronic               0.000              0.000              0.000
 Translational            0.889              2.981             42.872
 Rotational               0.889              2.981             34.139
 Vibrational            215.474             70.199             78.797
 Vibration     1          0.593              1.987              7.936
 Vibration     2          0.593              1.986              6.647
 Vibration     3          0.594              1.982              5.524
 Vibration     4          0.595              1.978              4.880
 Vibration     5          0.597              1.971              4.274
 Vibration     6          0.601              1.959              3.759
 Vibration     7          0.603              1.951              3.512
 Vibration     8          0.604              1.950              3.468
 Vibration     9          0.607              1.939              3.225
 Vibration    10          0.615              1.914              2.811
 Vibration    11          0.625              1.881              2.454
 Vibration    12          0.635              1.849              2.193
 Vibration    13          0.640              1.831              2.079
 Vibration    14          0.645              1.817              1.995
 Vibration    15          0.647              1.811              1.964
 Vibration    16          0.660              1.770              1.762
 Vibration    17          0.673              1.731              1.607
 Vibration    18          0.687              1.691              1.470
 Vibration    19          0.688              1.686              1.455
 Vibration    20          0.692              1.674              1.417
 Vibration    21          0.700              1.651              1.353
 Vibration    22          0.730              1.566              1.147
 Vibration    23          0.744              1.529              1.071
 Vibration    24          0.781              1.431              0.899
 Vibration    25          0.789              1.412              0.869
 Vibration    26          0.808              1.362              0.797
 Vibration    27          0.838              1.290              0.705
 Vibration    28          0.863              1.232              0.638
 Vibration    29          0.901              1.148              0.552
 Vibration    30          0.904              1.141              0.546
 Vibration    31          0.918              1.112              0.519
 Vibration    32          0.962              1.024              0.444
 Vibration    33          0.973              1.003              0.427

 Optimization completed.
    -- Stationary point found.
 Normal termination of Gaussian 16 at Sun Dec 13 13:20:47 2020.

 ----------------------------------------------------------------------
 # B3LYP/6-311++G(d,p) empiricaldispersion=gd3bj scf=xqc pop=npa geom=c
 heck
 ----------------------------------------------------------------------

 --------------------------------------
 CID_79477252_JID_9489_Energie_neutraal
 --------------------------------------
 Structure from the checkpoint file:  "JID_9489.chk"
 Charge =  0 Multiplicity = 1

 SCF Done:  E(RB3LYP) =  -1278.22434605     A.U. after   16 cycles
 Normal termination of Gaussian 16 at Sun Dec 13 13:31:55 2020.

 ----------------------------------------------------------------------
 # B3LYP/6-311++G(d,p) empiricaldispersion=gd3bj scf=xqc pop=npa geom=c
 heck
 ----------------------------------------------------------------------

 ------------------------------------
 CID_79477252_JID_9489_Energie_kation
 ------------------------------------
 Structure from the checkpoint file:  "JID_9489.chk"
 Charge =  1 Multiplicity = 2

 SCF Done:  E(UB3LYP) =  -1277.91745495     A.U. after   24 cycles
 Normal termination of Gaussian 16 at Sun Dec 13 13:56:06 2020.
 Gaussian 16:  ES64L-G16RevA.03 25-Dec-2016

 ----------------------------------------------------------------------
 # B3LYP/6-311++G(d,p) empiricaldispersion=gd3bj scf=xqc pop=npa geom=c
 heck
 ----------------------------------------------------------------------

 -----------------------------------
 CID_79477252_JID_9489_Energie_anion
 -----------------------------------
 Structure from the checkpoint file:  "JID_9489.chk"
 Charge = -1 Multiplicity = 2

                         Standard orientation:
 ---------------------------------------------------------------------
 Center     Atomic      Atomic             Coordinates (Angstroms)
 Number     Number       Type             X           Y           Z
 ---------------------------------------------------------------------
      1          6           0       -1.236823    3.698995    0.675775
      2          6           0       -1.338369    2.318792    0.022425
      3          6           0       -2.699523    1.630388    0.199600
      4          6           0       -3.850349    2.412693   -0.445154
      5          6           0       -2.680624    0.210828   -0.392615
      6          7           0       -1.621379   -0.631081    0.171744
      7          6           0       -1.753694   -1.106318    1.554263
      8          6           0       -2.862453   -2.136983    1.770285
      9         16           0       -0.638580   -1.529517   -0.840906
     10          8           0       -0.763318   -2.960940   -0.531418
     11          8           0       -0.853088   -1.027142   -2.200375
     12          6           0        0.983534   -1.073631   -0.325456
     13          6           0        1.843247   -1.907273    0.380696
     14          7           0        2.990458   -1.215749    0.588962
     15          6           0        2.894646    0.044318    0.027640
     16          6           0        1.644243    0.158829   -0.555294
     17          6           0        4.036757    0.939825    0.141153
     18          8           0        5.075430    0.640666    0.705657
     19          8           0        3.824981    2.140929   -0.442841
     20          1           0       -1.917451    4.423315    0.215814
     21          1           0       -0.220915    4.099193    0.585966
     22          1           0       -1.479853    3.646735    1.744548
     23          1           0       -1.122043    2.398874   -1.053416
     24          1           0       -0.566572    1.664036    0.442189
     25          1           0       -2.905538    1.559644    1.278609
     26          1           0       -3.666680    2.559801   -1.517032
     27          1           0       -4.801518    1.877860   -0.339590
     28          1           0       -3.973474    3.398628    0.012581
     29          1           0       -3.658689   -0.267411   -0.244778
     30          1           0       -2.510277    0.268060   -1.469123
     31          1           0       -0.786996   -1.519894    1.857975
     32          1           0       -1.918740   -0.222517    2.180394
     33          1           0       -2.676826   -3.023336    1.159447
     34          1           0       -2.898139   -2.433813    2.824722
     35          1           0       -3.844004   -1.728919    1.507113
     36          1           0        1.695042   -2.922547    0.714283
     37          1           0        3.825436   -1.533654    1.062693
     38          1           0        1.259845    1.014068   -1.088669
     39          1           0        4.645545    2.651061   -0.312261
 ---------------------------------------------------------------------

 SCF Done:  E(UB3LYP) =  -1278.22774408     A.U. after   33 cycles
 SCF Done:  E(UB3LYP) =  -1278.22774408     a.u. after    1 cycles

 The electronic state is 2-A.
 Alpha  occ. eigenvalues --  -88.95665 -19.04123 -19.00885 -19.00565 -18.96819
 Alpha  occ. eigenvalues --  -14.24301 -14.23726 -10.15112 -10.11334 -10.10787
 Alpha  occ. eigenvalues --  -10.09417 -10.08402 -10.07934 -10.07699 -10.07344
 Alpha  occ. eigenvalues --  -10.06918 -10.06856 -10.06840 -10.05038  -8.01726
 Alpha  occ. eigenvalues --   -5.98029  -5.97992  -5.97810  -1.01067  -0.97764
 Alpha  occ. eigenvalues --   -0.90077  -0.88783  -0.87056  -0.83774  -0.72196
 Alpha  occ. eigenvalues --   -0.68844  -0.66429  -0.64601  -0.63991  -0.60685
 Alpha  occ. eigenvalues --   -0.56362  -0.54908  -0.53482  -0.51752  -0.47873
 Alpha  occ. eigenvalues --   -0.46869  -0.44982  -0.42758  -0.41724  -0.39642
 Alpha  occ. eigenvalues --   -0.37880  -0.37386  -0.35934  -0.35533  -0.35058
 Alpha  occ. eigenvalues --   -0.34754  -0.34265  -0.33612  -0.33335  -0.31584
 Alpha  occ. eigenvalues --   -0.31033  -0.30479  -0.29896  -0.29712  -0.29255
 Alpha  occ. eigenvalues --   -0.28975  -0.28213  -0.27376  -0.26533  -0.26457
 Alpha  occ. eigenvalues --   -0.24672  -0.24105  -0.23352  -0.23154  -0.21659
 Alpha  occ. eigenvalues --   -0.20645  -0.20224  -0.20016  -0.16618  -0.15578
 Alpha  occ. eigenvalues --   -0.13946  -0.12204   0.04198
 Alpha virt. eigenvalues --    0.05508   0.06831   0.07502   0.08097   0.08694
 Alpha virt. eigenvalues --    0.08967   0.09854   0.09984   0.10736   0.11321
 Alpha virt. eigenvalues --    0.11504   0.11905   0.12430   0.12850   0.13059

  Beta  occ. eigenvalues --  -88.95665 -19.04037 -19.00887 -19.00565 -18.96518
  Beta  occ. eigenvalues --  -14.24059 -14.23728 -10.14751 -10.11318 -10.10783
  Beta  occ. eigenvalues --  -10.09252 -10.08393 -10.07887 -10.07782 -10.07327
  Beta  occ. eigenvalues --  -10.06908 -10.06843 -10.06838 -10.04836  -8.01726
  Beta  occ. eigenvalues --   -5.98029  -5.97991  -5.97809  -1.01072  -0.97404
  Beta  occ. eigenvalues --   -0.90080  -0.88353  -0.86663  -0.83773  -0.72183
  Beta  occ. eigenvalues --   -0.68664  -0.66396  -0.64495  -0.63639  -0.60605
  Beta  occ. eigenvalues --   -0.56301  -0.54873  -0.52908  -0.51671  -0.47656
  Beta  occ. eigenvalues --   -0.46775  -0.44953  -0.42514  -0.41703  -0.39627
  Beta  occ. eigenvalues --   -0.37834  -0.37361  -0.35589  -0.35475  -0.34959
  Beta  occ. eigenvalues --   -0.34734  -0.34087  -0.33316  -0.32311  -0.31516
  Beta  occ. eigenvalues --   -0.30887  -0.30429  -0.29800  -0.29548  -0.28925
  Beta  occ. eigenvalues --   -0.28464  -0.28183  -0.27106  -0.26511  -0.26430
  Beta  occ. eigenvalues --   -0.24656  -0.24091  -0.23336  -0.23141  -0.21637
  Beta  occ. eigenvalues --   -0.20616  -0.20020  -0.18962  -0.16237  -0.15305
  Beta  occ. eigenvalues --   -0.13377  -0.11093
  Beta virt. eigenvalues --    0.05975   0.07044   0.07605   0.08169   0.08708
  Beta virt. eigenvalues --    0.09030   0.09631   0.09923   0.10093   0.10941
  Beta virt. eigenvalues --    0.11345   0.11798   0.11912   0.12529   0.12854

 Mulliken charges and spin densities:
               1          2
     1  C   -0.283514  -0.483988
     2  C   -0.646630   0.453213
     3  C    0.630374   0.300468
     4  C    0.168343  -0.981029
     5  C   -1.030187  -0.100161
     6  N    0.216015  -0.024514
     7  C   -0.548644   0.343516
     8  C    0.157014  -0.719841
     9  S    0.870304  -0.148063
    10  O   -0.089422  -0.010217
    11  O   -0.249016   0.008567
    12  C   -1.058594  -0.129808
    13  C    0.122480   0.144625
    14  N   -0.168130   0.074539
    15  C   -0.238446   0.053928
    16  C   -0.314352   0.169108
    17  C    0.295538   0.277922
    18  O   -0.424352   0.104630
    19  O   -0.227462   0.014256
    20  H    0.082297   0.046460
    21  H    0.152309  -0.008951
    22  H   -0.048844   0.193293
    23  H    0.120383   0.053361
    24  H    0.325108  -0.116641
    25  H    0.070001   0.078906
    26  H    0.122268   0.023264
    27  H   -0.148070   0.278586
    28  H   -0.128709   0.274431
    29  H    0.139158  -0.002978
    30  H    0.239806  -0.021620
    31  H    0.110828   0.123432
    32  H   -0.095222   0.239331
    33  H    0.174983   0.012904
    34  H   -0.104343   0.237746
    35  H   -0.048324   0.178335
    36  H    0.140719   0.032999
    37  H    0.313053   0.003033
    38  H    0.134675   0.020579
    39  H    0.266606   0.006380
 Sum of Mulliken charges =  -1.00000   1.00000

 Dipole moment (field-independent basis, Debye):
    X=             -1.7377    Y=              0.5632    Z=              0.5185  Tot=              1.8988
 Quadrupole moment (field-independent basis, Debye-Ang):
   XX=           -194.1025   YY=           -155.2701   ZZ=           -150.0283
   XY=             -0.2329   XZ=              1.4614   YZ=             -7.9631

 Summary of Natural Population Analysis:

                                       Natural Population
                Natural  -----------------------------------------------
    Atom  No    Charge         Core      Valence    Rydberg      Total
 -----------------------------------------------------------------------
      C    1   -0.28443      0.99967     2.28068    0.00408     3.28443
      C    2   -0.19622      0.99962     2.18768    0.00892     3.19622
      C    3   -0.11692      0.99960     2.10725    0.01008     3.11692
      C    4   -0.28639      0.99965     2.28035    0.00639     3.28639
      C    5   -0.08568      0.99957     2.07310    0.01300     3.08568
      N    6   -0.38036      0.99971     2.86665    0.01399     3.88036
      C    7   -0.08948      0.99962     2.07775    0.01211     3.08948
      C    8   -0.29661      0.99966     2.29185    0.00510     3.29661
      S    9    1.12569      4.99906     1.77295    0.10231     6.87431
      O   10   -0.47366      0.99991     3.46823    0.00552     4.47366
      O   11   -0.46717      0.99990     3.46234    0.00492     4.46717
      C   12   -0.21521      0.99936     2.20178    0.01407     3.21521
      C   13    0.03239      0.99953     1.95583    0.01225     2.96761
      N   14   -0.21998      0.99966     2.71299    0.00733     3.71998
      C   15    0.02174      0.99950     1.96605    0.01271     2.97826
      C   16   -0.07781      0.99948     2.06882    0.00951     3.07781
      C   17    0.42576      0.99964     1.55132    0.02328     2.57424
      O   18   -0.31101      0.99988     3.30533    0.00580     4.31101
      O   19   -0.34522      0.99988     3.33874    0.00660     4.34522
      H   20    0.09311      0.00000     0.40595    0.00094     0.40689
      H   21    0.10057      0.00000     0.39862    0.00081     0.39943
      H   22    0.09529      0.00000     0.40373    0.00098     0.40471
      H   23    0.09397      0.00000     0.40494    0.00110     0.40603
      H   24    0.10825      0.00000     0.38935    0.00240     0.39175
      H   25    0.09151      0.00000     0.40636    0.00213     0.40849
      H   26    0.09612      0.00000     0.40310    0.00078     0.40388
      H   27    0.09914      0.00000     0.39998    0.00088     0.40086
      H   28    0.10115      0.00000     0.39803    0.00082     0.39885
      H   29    0.08986      0.00000     0.40889    0.00125     0.41014
      H   30    0.11562      0.00000     0.38306    0.00132     0.38438
      H   31    0.10650      0.00000     0.39205    0.00145     0.39350
      H   32    0.09555      0.00000     0.40311    0.00134     0.40445
      H   33    0.11033      0.00000     0.38854    0.00113     0.38967
      H   34    0.09789      0.00000     0.40123    0.00089     0.40211
      H   35    0.09515      0.00000     0.40394    0.00091     0.40485
      H   36    0.10499      0.00000     0.39384    0.00117     0.39501
      H   37    0.20396      0.00000     0.29369    0.00235     0.29604
      H   38    0.11163      0.00000     0.38728    0.00109     0.38837
      H   39    0.22999      0.00000     0.26554    0.00447     0.27001
 =======================================================================
   * Total *   -0.00000     22.99289    53.70092    0.30620    77.00000

 Normal termination of Gaussian 16 at Sun Dec 13 14:29:25 2020.
