 Gaussian 16, Revision A.03,

 -----------------------------------------------------------
 # opt freq B3LYP/6-31G(d) empiricaldispersion=gd3bj scf=xqc
 -----------------------------------------------------------

 ------------------------------
 CID_88777763_JID_1424_neutraal
 ------------------------------
 Symbolic Z-matrix:
 Charge =  0 Multiplicity = 1

 SCF Done:  E(RB3LYP) =  -521.487128181     A.U. after   13 cycles
 SCF Done:  E(RB3LYP) =  -521.490985841     A.U. after   10 cycles
 SCF Done:  E(RB3LYP) =  -521.491472711     A.U. after   11 cycles
 SCF Done:  E(RB3LYP) =  -521.491437666     A.U. after   10 cycles
 SCF Done:  E(RB3LYP) =  -521.491451514     A.U. after   11 cycles
 SCF Done:  E(RB3LYP) =  -521.491628464     A.U. after   10 cycles
 SCF Done:  E(RB3LYP) =  -521.491671646     A.U. after    9 cycles
 SCF Done:  E(RB3LYP) =  -521.491743240     A.U. after   10 cycles
 SCF Done:  E(RB3LYP) =  -521.491761515     A.U. after   10 cycles
 SCF Done:  E(RB3LYP) =  -521.491769629     A.U. after    9 cycles
 SCF Done:  E(RB3LYP) =  -521.491772750     A.U. after    8 cycles
 SCF Done:  E(RB3LYP) =  -521.491780551     A.U. after    9 cycles
 SCF Done:  E(RB3LYP) =  -521.491781190     A.U. after    7 cycles
 SCF Done:  E(RB3LYP) =  -521.491781616     A.U. after    7 cycles
 SCF Done:  E(RB3LYP) =  -521.491781699     A.U. after    7 cycles
 SCF Done:  E(RB3LYP) =  -521.491781714     A.U. after    6 cycles
 Optimization completed.
    -- Stationary point found.
 Normal termination of Gaussian 16 at Tue Dec  8 20:02:24 2020.

 --------------------------------------------------------------------
 #N Geom=AllCheck Guess=TCheck SCRF=Check GenChk RB3LYP/6-31G(d) Freq
 --------------------------------------------------------------------

 Structure from the checkpoint file:  "JID_1424.chk"
 ------------------------------
 CID_88777763_JID_1424_neutraal
 ------------------------------
 Charge =  0 Multiplicity = 1

 SCF Done:  E(RB3LYP) =  -521.491781714     A.U. after    1 cycles

  Exact polarizability: 111.324  -1.748 100.701  -0.003  -1.400  89.179
 Approx polarizability: 137.705  -2.636 135.828  -1.208   0.040 127.359

                      1                      2                      3
                      A                      A                      A
 Frequencies --     41.7873                45.0000                57.6674
 Red. masses --      2.7493                 2.9361                 2.6158
 Frc consts  --      0.0028                 0.0035                 0.0051
 IR Inten    --      0.4634                 0.5216                 1.2415

                      4                      5                      6
                      A                      A                      A
 Frequencies --     75.4587                96.0018               110.1983
 Red. masses --      2.4680                 2.5600                 3.2224
 Frc consts  --      0.0083                 0.0139                 0.0231
 IR Inten    --      2.2067                 0.7614                 2.4238

                      7                      8                      9
                      A                      A                      A
 Frequencies --    197.9879               240.8457               250.2138
 Red. masses --      1.1611                 1.6382                 1.5966
 Frc consts  --      0.0268                 0.0560                 0.0589
 IR Inten    --      1.6798                 0.6538                 0.4787

                     10                     11                     12
                      A                      A                      A
 Frequencies --    267.2250               284.2643               298.8451
 Red. masses --      1.7091                 1.6816                 1.1370
 Frc consts  --      0.0719                 0.0801                 0.0598
 IR Inten    --      0.2544                 1.3880                 1.2621

                     13                     14                     15
                      A                      A                      A
 Frequencies --    319.2788               333.3339               366.3563
 Red. masses --      1.8630                 3.1365                 2.2036
 Frc consts  --      0.1119                 0.2053                 0.1743
 IR Inten    --      1.2959                 2.1189                 4.6081

                     16                     17                     18
                      A                      A                      A
 Frequencies --    395.8604               431.7533               440.1236
 Red. masses --      2.4023                 2.4692                 2.1371
 Frc consts  --      0.2218                 0.2712                 0.2439
 IR Inten    --      0.9880                 1.2649                 0.1886

                     19                     20                     21
                      A                      A                      A
 Frequencies --    485.3070               497.3778               615.7398
 Red. masses --      2.2412                 3.0664                 3.0598
 Frc consts  --      0.3110                 0.4469                 0.6835
 IR Inten    --      1.9828                10.6256                 4.8621

                     22                     23                     24
                      A                      A                      A
 Frequencies --    781.8503               820.2467               858.3079
 Red. masses --      2.8903                 2.6767                 2.4960
 Frc consts  --      1.0410                 1.0611                 1.0834
 IR Inten    --      7.9468                12.4596                11.7963

                     25                     26                     27
                      A                      A                      A
 Frequencies --    919.3510               928.0483               963.5499
 Red. masses --      2.0083                 2.3003                 1.8445
 Frc consts  --      1.0001                 1.1673                 1.0090
 IR Inten    --     26.0558                 6.4088                11.7272

                     28                     29                     30
                      A                      A                      A
 Frequencies --   1022.4152              1066.0512              1077.8990
 Red. masses --      2.5623                 2.1599                 2.4253
 Frc consts  --      1.5781                 1.4463                 1.6602
 IR Inten    --     18.4931                47.0694                39.0617

                     31                     32                     33
                      A                      A                      A
 Frequencies --   1078.7063              1092.5962              1118.9667
 Red. masses --      1.5693                 2.4572                 2.0649
 Frc consts  --      1.0759                 1.7283                 1.5233
 IR Inten    --     13.3411                54.8320                 3.3205

                     34                     35                     36
                      A                      A                      A
 Frequencies --   1135.8660              1138.8891              1151.1218
 Red. masses --      1.3079                 3.3748                 2.4378
 Frc consts  --      0.9942                 2.5790                 1.9032
 IR Inten    --     12.8452               141.6195                29.4515

                     37                     38                     39
                      A                      A                      A
 Frequencies --   1192.2812              1192.8403              1201.4795
 Red. masses --      1.5480                 1.3324                 1.9972
 Frc consts  --      1.2965                 1.1170                 1.6986
 IR Inten    --     28.3160                18.0243               173.5793

                     40                     41                     42
                      A                      A                      A
 Frequencies --   1232.1370              1252.5522              1258.2088
 Red. masses --      2.0125                 1.6427                 1.4743
 Frc consts  --      1.8002                 1.5185                 1.3752
 IR Inten    --     12.0093                62.2226                18.3221

                     43                     44                     45
                      A                      A                      A
 Frequencies --   1316.2539              1322.9172              1360.5197
 Red. masses --      1.8966                 1.5552                 1.1827
 Frc consts  --      1.9360                 1.6036                 1.2898
 IR Inten    --     10.7800                12.4797                16.8043

                     46                     47                     48
                      A                      A                      A
 Frequencies --   1388.4686              1394.6621              1421.1685
 Red. masses --      1.3384                 1.2035                 1.2182
 Frc consts  --      1.5202                 1.3792                 1.4496
 IR Inten    --      4.3435                13.3807                13.9405

                     49                     50                     51
                      A                      A                      A
 Frequencies --   1428.8985              1435.8392              1442.3253
 Red. masses --      1.3881                 1.2556                 1.3100
 Frc consts  --      1.6698                 1.5252                 1.6056
 IR Inten    --     14.2202                33.1685                11.6055

                     52                     53                     54
                      A                      A                      A
 Frequencies --   1466.1777              1497.6264              1500.9045
 Red. masses --      1.1639                 1.1423                 1.1396
 Frc consts  --      1.4742                 1.5095                 1.5126
 IR Inten    --      3.8969                 5.1310                 2.2922

                     55                     56                     57
                      A                      A                      A
 Frequencies --   1502.7690              1512.8776              1513.2147
 Red. masses --      1.1059                 1.0556                 1.0503
 Frc consts  --      1.4715                 1.4234                 1.4169
 IR Inten    --      2.9549                 8.7596                 3.8224

                     58                     59                     60
                      A                      A                      A
 Frequencies --   1515.7438              1522.0362              1528.6515
 Red. masses --      1.0634                 1.0601                 1.0683
 Frc consts  --      1.4395                 1.4469                 1.4709
 IR Inten    --      2.4844                 5.4353                 7.4687

                     61                     62                     63
                      A                      A                      A
 Frequencies --   1530.2991              1533.9675              1540.7705
 Red. masses --      1.0532                 1.0732                 1.0557
 Frc consts  --      1.4531                 1.4878                 1.4766
 IR Inten    --      7.0913                 9.0754                 8.8163

                     64                     65                     66
                      A                      A                      A
 Frequencies --   1542.4213              1547.0688              2909.2039
 Red. masses --      1.0594                 1.0776                 1.0632
 Frc consts  --      1.4850                 1.5197                 5.3016
 IR Inten    --      4.8917                 4.6452                60.4909

                     67                     68                     69
                      A                      A                      A
 Frequencies --   2926.9988              2969.1022              2996.0947
 Red. masses --      1.0632                 1.0716                 1.0427
 Frc consts  --      5.3668                 5.5661                 5.5149
 IR Inten    --     98.7539                87.4719                39.7720

                     70                     71                     72
                      A                      A                      A
 Frequencies --   3007.9728              3045.2837              3055.2633
 Red. masses --      1.0806                 1.1023                 1.0649
 Frc consts  --      5.7603                 6.0227                 5.8568
 IR Inten    --    100.8813                53.7036                13.3159

                     73                     74                     75
                      A                      A                      A
 Frequencies --   3062.2966              3070.9868              3072.8826
 Red. masses --      1.0561                 1.0433                 1.0744
 Frc consts  --      5.8351                 5.7971                 5.9771
 IR Inten    --     21.4682                24.4985                12.3433

                     76                     77                     78
                      A                      A                      A
 Frequencies --   3076.1240              3084.3596              3107.6212
 Red. masses --      1.0825                 1.0693                 1.1051
 Frc consts  --      6.0349                 5.9934                 6.2879
 IR Inten    --     56.6309                45.9062                52.1992

                     79                     80                     81
                      A                      A                      A
 Frequencies --   3118.0835              3119.6265              3128.7229
 Red. masses --      1.1002                 1.1000                 1.1019
 Frc consts  --      6.3021                 6.3076                 6.3552
 IR Inten    --      2.3338                58.1250                30.3035

                     82                     83                     84
                      A                      A                      A
 Frequencies --   3134.7633              3138.0080              3150.1791
 Red. masses --      1.1010                 1.0979                 1.1024
 Frc consts  --      6.3747                 6.3697                 6.4458
 IR Inten    --     33.2807                19.5902                24.2074

 - Thermochemistry -
 -------------------
 Temperature   298.150 Kelvin.  Pressure   1.00000 Atm.
 Atom     1 has atomic number  6 and mass  12.00000

 Molecular mass:   161.14158 amu.
 Principal axes and moments of inertia in atomic units:
                           1         2         3
     Eigenvalues --  1172.349193019.002583405.44824
           X            0.99993  -0.01132  -0.00166
           Y            0.01129   0.99978  -0.01767
           Z            0.00186   0.01765   0.99984
 This molecule is an asymmetric top.
 Rotational symmetry number  1.
 Warning -- assumption of classical behavior for rotation
           may cause significant error
 Rotational temperatures (Kelvin)      0.07388     0.02869     0.02543
 Rotational constants (GHZ):           1.53942     0.59779     0.52996
 Zero-point vibrational energy     719393.2 (Joules/Mol)
                                  171.93909 (Kcal/Mol)
 Warning -- explicit consideration of  21 degrees of freedom as
           vibrations may cause significant error
 Vibrational temperatures:     60.12    64.74    82.97   108.57   138.13
          (Kelvin)            158.55   284.86   346.52   360.00   384.48
                              408.99   429.97   459.37   479.59   527.10
                              569.55   621.20   633.24   698.25   715.62
                              885.91  1124.91  1180.15  1234.91  1322.74
                             1335.25  1386.33  1471.03  1533.81  1550.86
                             1552.02  1572.00  1609.94  1634.26  1638.61
                             1656.21  1715.43  1716.23  1728.66  1772.77
                             1802.14  1810.28  1893.80  1903.38  1957.48
                             1997.70  2006.61  2044.74  2055.87  2065.85
                             2075.18  2109.50  2154.75  2159.47  2162.15
                             2176.69  2177.18  2180.82  2189.87  2199.39
                             2201.76  2207.04  2216.83  2219.20  2225.89
                             4185.70  4211.30  4271.88  4310.71  4327.80
                             4381.48  4395.84  4405.96  4418.47  4421.19
                             4425.86  4437.71  4471.17  4486.23  4488.45
                             4501.53  4510.23  4514.89  4532.41

 Zero-point correction=                           0.274002 (Hartree/Particle)
 Thermal correction to Energy=                    0.287882
 Thermal correction to Enthalpy=                  0.288826
 Thermal correction to Gibbs Free Energy=         0.232794
 Sum of electronic and zero-point Energies=           -521.217779
 Sum of electronic and thermal Energies=              -521.203900
 Sum of electronic and thermal Enthalpies=            -521.202956
 Sum of electronic and thermal Free Energies=         -521.258988

                     E (Thermal)             CV                S
                      KCal/Mol        Cal/Mol-Kelvin    Cal/Mol-Kelvin
 Total                  180.648             49.737            117.930
 Electronic               0.000              0.000              0.000
 Translational            0.889              2.981             41.140
 Rotational               0.889              2.981             30.867
 Vibrational            178.871             43.776             45.923
 Vibration     1          0.594              1.980              5.173
 Vibration     2          0.595              1.979              5.026
 Vibration     3          0.596              1.974              4.535
 Vibration     4          0.599              1.965              4.006
 Vibration     5          0.603              1.952              3.534
 Vibration     6          0.606              1.941              3.265
 Vibration     7          0.637              1.843              2.152
 Vibration     8          0.658              1.778              1.797
 Vibration     9          0.663              1.762              1.729
 Vibration    10          0.672              1.733              1.614
 Vibration    11          0.683              1.703              1.508
 Vibration    12          0.692              1.676              1.423
 Vibration    13          0.705              1.637              1.314
 Vibration    14          0.715              1.609              1.244
 Vibration    15          0.739              1.541              1.095
 Vibration    16          0.763              1.479              0.978
 Vibration    17          0.793              1.401              0.853
 Vibration    18          0.800              1.383              0.826
 Vibration    19          0.841              1.283              0.696
 Vibration    20          0.853              1.256              0.665
 Vibration    21          0.975              0.999              0.423

 Optimization completed.
    -- Stationary point found.
 Normal termination of Gaussian 16 at Tue Dec  8 20:09:35 2020.

 ----------------------------------------------------------------------
 # B3LYP/6-311++G(d,p) empiricaldispersion=gd3bj scf=xqc pop=npa geom=c
 heck
 ----------------------------------------------------------------------

 --------------------------------------
 CID_88777763_JID_1424_Energie_neutraal
 --------------------------------------
 Structure from the checkpoint file:  "JID_1424.chk"
 Charge =  0 Multiplicity = 1

 SCF Done:  E(RB3LYP) =  -521.646443607     A.U. after   12 cycles
 Normal termination of Gaussian 16 at Tue Dec  8 20:12:23 2020.

 ----------------------------------------------------------------------
 # B3LYP/6-311++G(d,p) empiricaldispersion=gd3bj scf=xqc pop=npa geom=c
 heck
 ----------------------------------------------------------------------

 ------------------------------------
 CID_88777763_JID_1424_Energie_kation
 ------------------------------------
 Structure from the checkpoint file:  "JID_1424.chk"
 Charge =  1 Multiplicity = 2

 SCF Done:  E(UB3LYP) =  -521.354425570     A.U. after   19 cycles
 Normal termination of Gaussian 16 at Tue Dec  8 20:17:14 2020.
 Gaussian 16:  ES64L-G16RevA.03 25-Dec-2016

 ----------------------------------------------------------------------
 # B3LYP/6-311++G(d,p) empiricaldispersion=gd3bj scf=xqc pop=npa geom=c
 heck
 ----------------------------------------------------------------------

 -----------------------------------
 CID_88777763_JID_1424_Energie_anion
 -----------------------------------
 Structure from the checkpoint file:  "JID_1424.chk"
 Charge = -1 Multiplicity = 2

                         Standard orientation:
 ---------------------------------------------------------------------
 Center     Atomic      Atomic             Coordinates (Angstroms)
 Number     Number       Type             X           Y           Z
 ---------------------------------------------------------------------
      1          6           0       -1.945184   -0.307188    1.693311
      2          6           0       -2.221811   -0.342880    0.189424
      3          8           0       -1.792387    0.857508   -0.446861
      4          6           0       -2.629436    1.972226   -0.223961
      5          8           0       -1.659338   -1.431385   -0.476410
      6          6           0       -0.253774   -1.682359   -0.359774
      7          6           0        0.620005   -0.801132   -1.270111
      8          6           0        1.263870    0.437813   -0.625727
      9          7           0        2.637131    0.205287   -0.169501
     10          6           0        3.255694    1.453212    0.249285
     11          6           0        2.720441   -0.787353    0.888641
     12          1           0       -2.188920   -1.275314    2.141759
     13          1           0       -2.565559    0.455713    2.173768
     14          1           0       -0.899545   -0.066951    1.902879
     15          1           0       -3.303664   -0.458107    0.020225
     16          1           0       -3.679316    1.741483   -0.465513
     17          1           0       -2.583804    2.336116    0.813217
     18          1           0       -2.281046    2.767793   -0.887156
     19          1           0        0.060827   -1.615332    0.687749
     20          1           0       -0.159654   -2.730227   -0.660055
     21          1           0        1.427506   -1.407193   -1.699468
     22          1           0       -0.017008   -0.490546   -2.103025
     23          1           0        1.311093    1.240955   -1.369439
     24          1           0        0.623452    0.817046    0.191331
     25          1           0        2.747374    1.923912    1.115379
     26          1           0        4.299895    1.273887    0.528018
     27          1           0        3.240906    2.169179   -0.579494
     28          1           0        2.132701   -0.514974    1.790279
     29          1           0        2.364456   -1.758322    0.532325
     30          1           0        3.765362   -0.909148    1.193365
 ---------------------------------------------------------------------

 SCF Done:  E(UB3LYP) =  -521.630589359     A.U. after   26 cycles

 The electronic state is 2-A.
 Alpha  occ. eigenvalues --  -19.02750 -19.02298 -14.20328 -10.16922 -10.11727
 Alpha  occ. eigenvalues --  -10.10891 -10.08490 -10.08409 -10.08400 -10.06382
 Alpha  occ. eigenvalues --  -10.06015  -0.96849  -0.91091  -0.82235  -0.68171
 Alpha  occ. eigenvalues --   -0.64755  -0.60710  -0.59860  -0.58333  -0.53256
 Alpha  occ. eigenvalues --   -0.48667  -0.46504  -0.41479  -0.41437  -0.37899
 Alpha  occ. eigenvalues --   -0.37104  -0.36663  -0.35509  -0.34019  -0.33017
 Alpha  occ. eigenvalues --   -0.32922  -0.30064  -0.29814  -0.29080  -0.28924
 Alpha  occ. eigenvalues --   -0.27428  -0.27217  -0.26692  -0.24477  -0.24073
 Alpha  occ. eigenvalues --   -0.22217  -0.21305  -0.17461  -0.16222  -0.11737
 Alpha  occ. eigenvalues --    0.04569
 Alpha virt. eigenvalues --    0.06535   0.07272   0.08107   0.08774   0.08994
 Alpha virt. eigenvalues --    0.09952   0.10234   0.10819   0.11201   0.11716
 Alpha virt. eigenvalues --    0.12646   0.13207   0.13563   0.13802   0.14007

  Beta  occ. eigenvalues --  -19.02750 -19.02291 -14.20318 -10.16911 -10.11715
  Beta  occ. eigenvalues --  -10.10842 -10.08460 -10.08392 -10.08382 -10.06377
  Beta  occ. eigenvalues --  -10.05978  -0.96837  -0.91081  -0.82214  -0.68152
  Beta  occ. eigenvalues --   -0.64720  -0.60663  -0.59806  -0.58268  -0.53206
  Beta  occ. eigenvalues --   -0.48610  -0.46456  -0.41432  -0.41416  -0.37869
  Beta  occ. eigenvalues --   -0.37065  -0.36623  -0.35476  -0.33986  -0.32983
  Beta  occ. eigenvalues --   -0.32889  -0.30024  -0.29777  -0.29047  -0.28898
  Beta  occ. eigenvalues --   -0.27389  -0.27194  -0.26659  -0.24452  -0.24047
  Beta  occ. eigenvalues --   -0.22182  -0.21287  -0.17451  -0.16195  -0.11686
  Beta virt. eigenvalues --    0.06791   0.07642   0.07839   0.08523   0.09384
  Beta virt. eigenvalues --    0.09629   0.10393   0.10625   0.11179   0.11718
  Beta virt. eigenvalues --    0.12183   0.12888   0.13485   0.13904   0.14183

 Mulliken charges and spin densities:
               1          2
     1  C    1.450273  -1.789462
     2  C   -1.473528   1.077335
     3  O   -0.129171   0.027467
     4  C    1.169028  -1.437030
     5  O   -0.057544  -0.001661
     6  C   -0.082669  -0.226100
     7  C   -0.355599  -0.033551
     8  C   -0.462138   0.086903
     9  N   -0.059962   0.178081
    10  C    0.562505  -0.846044
    11  C    0.452254  -0.869003
    12  H   -0.210551   0.359629
    13  H   -0.294639   0.449699
    14  H   -0.100295   0.289778
    15  H   -0.203400   0.362712
    16  H   -0.402743   0.526379
    17  H   -0.430570   0.574545
    18  H   -0.234947   0.376898
    19  H    0.082432   0.066599
    20  H    0.027333   0.132830
    21  H    0.175472  -0.013432
    22  H    0.107669   0.082803
    23  H    0.133594   0.005262
    24  H    0.523420  -0.332184
    25  H   -0.261634   0.372453
    26  H   -0.131555   0.249104
    27  H   -0.202986   0.332579
    28  H   -0.113652   0.235470
    29  H   -0.207231   0.342354
    30  H   -0.269166   0.419587
 Sum of Mulliken charges =  -1.00000   1.00000

 Dipole moment (field-independent basis, Debye):
    X=              1.3872    Y=             -3.2000    Z=             -3.5042  Tot=              4.9441
 Quadrupole moment (field-independent basis, Debye-Ang):
   XX=           -144.8068   YY=           -113.7283   ZZ=           -108.6276
   XY=              6.1681   XZ=              0.1508   YZ=             -1.1615

 Summary of Natural Population Analysis:

                                       Natural Population
                Natural  -----------------------------------------------
    Atom  No    Charge         Core      Valence    Rydberg      Total
 -----------------------------------------------------------------------
      C    1   -0.31479      0.99964     2.30954    0.00562     3.31479
      C    2    0.22638      0.99957     1.75369    0.02037     2.77362
      O    3   -0.31068      0.99988     3.29971    0.01110     4.31068
      C    4   -0.09874      0.99961     2.08969    0.00944     3.09874
      O    5   -0.29954      0.99987     3.29061    0.00906     4.29954
      C    6   -0.01435      0.99955     2.00223    0.01256     3.01435
      C    7   -0.21570      0.99961     2.20824    0.00784     3.21570
      C    8   -0.08669      0.99960     2.07484    0.01225     3.08669
      N    9   -0.27823      0.99973     2.76541    0.01308     3.77823
      C   10   -0.17631      0.99965     2.16788    0.00878     3.17631
      C   11   -0.18032      0.99964     2.17110    0.00958     3.18032
      H   12    0.10402      0.00000     0.39484    0.00114     0.39598
      H   13    0.10745      0.00000     0.39097    0.00158     0.39255
      H   14    0.10313      0.00000     0.39502    0.00185     0.39687
      H   15    0.07503      0.00000     0.42308    0.00189     0.42497
      H   16    0.07879      0.00000     0.41921    0.00200     0.42121
      H   17    0.08248      0.00000     0.41530    0.00222     0.41752
      H   18    0.09159      0.00000     0.40703    0.00138     0.40841
      H   19    0.08491      0.00000     0.41358    0.00152     0.41509
      H   20    0.08836      0.00000     0.41058    0.00107     0.41164
      H   21    0.10078      0.00000     0.39787    0.00134     0.39922
      H   22    0.11048      0.00000     0.38815    0.00137     0.38952
      H   23    0.09543      0.00000     0.40317    0.00141     0.40457
      H   24    0.08739      0.00000     0.41010    0.00251     0.41261
      H   25    0.08175      0.00000     0.41673    0.00153     0.41825
      H   26    0.09362      0.00000     0.40515    0.00123     0.40638
      H   27    0.09409      0.00000     0.40467    0.00123     0.40591
      H   28    0.08087      0.00000     0.41740    0.00173     0.41913
      H   29    0.09291      0.00000     0.40553    0.00156     0.40709
      H   30    0.09588      0.00000     0.40288    0.00124     0.40412
 =======================================================================
   * Total *   -0.00000     10.99637    33.85417    0.14947    45.00000

 Normal termination of Gaussian 16 at Tue Dec  8 20:23:41 2020.
