 Gaussian 16, Revision A.03,

 -----------------------------------------------------------
 # opt freq B3LYP/6-31G(d) empiricaldispersion=gd3bj scf=xqc
 -----------------------------------------------------------

 ------------------------------
 CID_65107108_JID_4833_neutraal
 ------------------------------
 Symbolic Z-matrix:
 Charge =  0 Multiplicity = 1

 SCF Done:  E(RB3LYP) =  -601.149528927     A.U. after   12 cycles
 SCF Done:  E(RB3LYP) =  -601.155756331     A.U. after   11 cycles
 SCF Done:  E(RB3LYP) =  -601.156443159     A.U. after   10 cycles
 SCF Done:  E(RB3LYP) =  -601.156695393     A.U. after   10 cycles
 SCF Done:  E(RB3LYP) =  -601.156809607     A.U. after   10 cycles
 SCF Done:  E(RB3LYP) =  -601.157074827     A.U. after   11 cycles
 SCF Done:  E(RB3LYP) =  -601.157340033     A.U. after   11 cycles
 SCF Done:  E(RB3LYP) =  -601.157381711     A.U. after   10 cycles
 SCF Done:  E(RB3LYP) =  -601.157330142     A.U. after   10 cycles
 SCF Done:  E(RB3LYP) =  -601.157658057     A.U. after   10 cycles
 SCF Done:  E(RB3LYP) =  -601.159698831     A.U. after    8 cycles
 SCF Done:  E(RB3LYP) =  -601.159703928     A.U. after    8 cycles
 SCF Done:  E(RB3LYP) =  -601.159705474     A.U. after    8 cycles
 SCF Done:  E(RB3LYP) =  -601.159705425     A.U. after    8 cycles
 SCF Done:  E(RB3LYP) =  -601.159705490     A.U. after    6 cycles
 SCF Done:  E(RB3LYP) =  -601.159705561     A.U. after    6 cycles
 Optimization completed.
    -- Stationary point found.
 Normal termination of Gaussian 16 at Thu Dec 10 11:15:08 2020.

 --------------------------------------------------------------------
 #N Geom=AllCheck Guess=TCheck SCRF=Check GenChk RB3LYP/6-31G(d) Freq
 --------------------------------------------------------------------

 Structure from the checkpoint file:  "JID_4833.chk"
 ------------------------------
 CID_65107108_JID_4833_neutraal
 ------------------------------
 Charge =  0 Multiplicity = 1

 SCF Done:  E(RB3LYP) =  -601.159705561     A.U. after    1 cycles

  Exact polarizability: 153.728   0.523 120.863   2.167  -0.234 118.026
 Approx polarizability: 182.999   0.327 179.415  -1.829   0.133 172.877

                      1                      2                      3
                      A                      A                      A
 Frequencies --     14.3002                34.5489                45.7098
 Red. masses --      2.9411                 2.8768                 3.4348
 Frc consts  --      0.0004                 0.0020                 0.0042
 IR Inten    --      0.0122                 0.4957                 0.1991

                      4                      5                      6
                      A                      A                      A
 Frequencies --     61.8041                79.0790               152.2550
 Red. masses --      2.7610                 1.8940                 2.6840
 Frc consts  --      0.0062                 0.0070                 0.0367
 IR Inten    --      0.3908                 0.2651                 0.2152

                      7                      8                      9
                      A                      A                      A
 Frequencies --    197.2841               206.8816               235.5836
 Red. masses --      2.8722                 2.4286                 2.4805
 Frc consts  --      0.0659                 0.0612                 0.0811
 IR Inten    --      1.7623                 2.0361                 1.2897

                     10                     11                     12
                      A                      A                      A
 Frequencies --    258.3443               263.3130               340.2115
 Red. masses --      2.8006                 1.1197                 2.4333
 Frc consts  --      0.1101                 0.0457                 0.1659
 IR Inten    --      0.4573                 0.0330                 0.2756

                     13                     14                     15
                      A                      A                      A
 Frequencies --    351.1692               389.6375               414.6886
 Red. masses --      2.2007                 2.6234                 1.9807
 Frc consts  --      0.1599                 0.2347                 0.2007
 IR Inten    --      0.5720                 4.1330                 0.3728

                     16                     17                     18
                      A                      A                      A
 Frequencies --    428.6709               466.9643               515.8969
 Red. masses --      2.3403                 2.4832                 2.6862
 Frc consts  --      0.2534                 0.3190                 0.4212
 IR Inten    --      0.4387                 4.5219                13.3023

                     19                     20                     21
                      A                      A                      A
 Frequencies --    567.7307               583.5700               603.1219
 Red. masses --      2.7117                 3.0756                 2.3516
 Frc consts  --      0.5150                 0.6171                 0.5040
 IR Inten    --      0.4361                 6.3082                15.4021

                     22                     23                     24
                      A                      A                      A
 Frequencies --    634.0885               661.5187               731.4102
 Red. masses --      1.2976                 2.6860                 1.7112
 Frc consts  --      0.3074                 0.6925                 0.5394
 IR Inten    --     77.5741                 4.3328                14.9205

                     25                     26                     27
                      A                      A                      A
 Frequencies --    792.2884               798.7765               814.9896
 Red. masses --      1.8620                 1.4566                 1.8824
 Frc consts  --      0.6887                 0.5476                 0.7366
 IR Inten    --      3.4299                10.2530                16.8986

                     28                     29                     30
                      A                      A                      A
 Frequencies --    834.8941               852.9421               888.2800
 Red. masses --      2.0300                 1.9820                 2.4840
 Frc consts  --      0.8337                 0.8496                 1.1548
 IR Inten    --      2.8361                13.6119                 3.2552

                     31                     32                     33
                      A                      A                      A
 Frequencies --    892.8188               913.1032               927.5180
 Red. masses --      2.4470                 1.4625                 2.0065
 Frc consts  --      1.1492                 0.7184                 1.0170
 IR Inten    --      4.4742                 3.0434                 1.8026

                     34                     35                     36
                      A                      A                      A
 Frequencies --    933.6245               946.4747               972.8995
 Red. masses --      1.8933                 2.0689                 2.0239
 Frc consts  --      0.9723                 1.0920                 1.1287
 IR Inten    --      0.4799                 3.4286                 2.8154

                     37                     38                     39
                      A                      A                      A
 Frequencies --    994.7095              1001.4197              1011.1909
 Red. masses --      1.4778                 1.5770                 1.6193
 Frc consts  --      0.8615                 0.9318                 0.9755
 IR Inten    --      2.7525                 1.8971                 7.2783

                     40                     41                     42
                      A                      A                      A
 Frequencies --   1036.5474              1055.5645              1059.6415
 Red. masses --      1.5506                 1.6068                 2.0365
 Frc consts  --      0.9816                 1.0548                 1.3473
 IR Inten    --      3.0103                 3.7350                 0.9175

                     43                     44                     45
                      A                      A                      A
 Frequencies --   1068.6988              1077.4696              1130.0795
 Red. masses --      2.0110                 2.1454                 2.7289
 Frc consts  --      1.3533                 1.4675                 2.0533
 IR Inten    --      2.0106                 7.1654                 9.1228

                     46                     47                     48
                      A                      A                      A
 Frequencies --   1134.5925              1140.1713              1171.8207
 Red. masses --      2.4240                 2.6187                 1.9885
 Frc consts  --      1.8385                 2.0058                 1.6088
 IR Inten    --     65.6141                53.4890                 7.8255

                     49                     50                     51
                      A                      A                      A
 Frequencies --   1177.3439              1212.1739              1220.1467
 Red. masses --      2.2377                 1.4014                 1.3645
 Frc consts  --      1.8275                 1.2132                 1.1969
 IR Inten    --     32.6812                 2.5801                14.0782

                     52                     53                     54
                      A                      A                      A
 Frequencies --   1227.5545              1242.3609              1261.7290
 Red. masses --      1.6319                 1.6691                 1.4464
 Frc consts  --      1.4489                 1.5179                 1.3567
 IR Inten    --      0.3202                18.9870                 1.3262

                     55                     56                     57
                      A                      A                      A
 Frequencies --   1266.4689              1283.7086              1303.7838
 Red. masses --      1.2878                 1.5574                 1.3724
 Frc consts  --      1.2170                 1.5121                 1.3745
 IR Inten    --      6.5537                 1.8924                 0.3650

                     58                     59                     60
                      A                      A                      A
 Frequencies --   1314.5813              1326.7919              1335.6886
 Red. masses --      1.3306                 1.3436                 1.2742
 Frc consts  --      1.3548                 1.3935                 1.3394
 IR Inten    --      0.5874                 6.0309                 9.7009

                     61                     62                     63
                      A                      A                      A
 Frequencies --   1340.9998              1346.9201              1354.0734
 Red. masses --      1.3254                 1.2866                 1.3222
 Frc consts  --      1.4042                 1.3752                 1.4284
 IR Inten    --      0.4477                 5.7201                 4.3987

                     64                     65                     66
                      A                      A                      A
 Frequencies --   1355.5434              1365.0817              1372.2410
 Red. masses --      1.3831                 1.3421                 1.4927
 Frc consts  --      1.4974                 1.4735                 1.6560
 IR Inten    --      3.5395                 3.8825                52.9891

                     67                     68                     69
                      A                      A                      A
 Frequencies --   1390.0674              1394.7663              1405.0870
 Red. masses --      1.3970                 1.4108                 1.3728
 Frc consts  --      1.5904                 1.6171                 1.5968
 IR Inten    --      5.5073                 8.0267                11.7213

                     70                     71                     72
                      A                      A                      A
 Frequencies --   1439.6417              1456.4402              1504.1137
 Red. masses --      1.2474                 1.6351                 1.1486
 Frc consts  --      1.5232                 2.0435                 1.5311
 IR Inten    --      2.5211                64.3348                 8.2235

                     73                     74                     75
                      A                      A                      A
 Frequencies --   1512.9273              1515.0497              1517.8014
 Red. masses --      1.1307                 1.0875                 1.0989
 Frc consts  --      1.5249                 1.4707                 1.4915
 IR Inten    --     11.6579                 2.7045                 3.0607

                     76                     77                     78
                      A                      A                      A
 Frequencies --   1522.4063              1527.6286              1528.4410
 Red. masses --      1.0941                 1.0572                 1.0894
 Frc consts  --      1.4941                 1.4536                 1.4994
 IR Inten    --     10.5678                 1.2860                 2.9828

                     79                     80                     81
                      A                      A                      A
 Frequencies --   1529.9114              1530.6797              1535.7992
 Red. masses --      1.0762                 1.0619                 1.1044
 Frc consts  --      1.4841                 1.4658                 1.5347
 IR Inten    --      2.2189                12.6403                 1.8007

                     82                     83                     84
                      A                      A                      A
 Frequencies --   1552.7787              3023.0518              3031.0642
 Red. masses --      1.1047                 1.0695                 1.0751
 Frc consts  --      1.5693                 5.7586                 5.8198
 IR Inten    --      5.7421                14.4653                22.6279

                     85                     86                     87
                      A                      A                      A
 Frequencies --   3033.7779              3035.3245              3040.5946
 Red. masses --      1.0650                 1.0468                 1.0584
 Frc consts  --      5.7752                 5.6821                 5.7651
 IR Inten    --     33.2109                 3.1206                39.2418

                     88                     89                     90
                      A                      A                      A
 Frequencies --   3051.6526              3051.9373              3059.7470
 Red. masses --      1.0693                 1.0703                 1.0645
 Frc consts  --      5.8672                 5.8734                 5.8715
 IR Inten    --     10.3949                36.9223                12.6832

                     91                     92                     93
                      A                      A                      A
 Frequencies --   3061.3800              3066.0150              3070.5153
 Red. masses --      1.0699                 1.0686                 1.0667
 Frc consts  --      5.9079                 5.9187                 5.9253
 IR Inten    --     54.6940                27.5587                20.1548

                     94                     95                     96
                      A                      A                      A
 Frequencies --   3087.2928              3089.3082              3096.5940
 Red. masses --      1.1014                 1.0989                 1.0977
 Frc consts  --      6.1849                 6.1794                 6.2014
 IR Inten    --      8.4890                47.9668                33.7579

                     97                     98                     99
                      A                      A                      A
 Frequencies --   3098.5214              3100.9992              3102.3629
 Red. masses --      1.0994                 1.0983                 1.1012
 Frc consts  --      6.2189                 6.2227                 6.2445
 IR Inten    --     10.0347                21.6237                 2.4999

                    100                    101                    102
                      A                      A                      A
 Frequencies --   3106.4454              3109.4907              3111.0395
 Red. masses --      1.1011                 1.1022                 1.1019
 Frc consts  --      6.2604                 6.2791                 6.2836
 IR Inten    --    119.7064                33.7835                35.6205

                    103                    104                    105
                      A                      A                      A
 Frequencies --   3118.7095              3503.9607              3592.8653
 Red. masses --      1.1045                 1.0746                 1.0641
 Frc consts  --      6.3296                 7.7738                 8.0933
 IR Inten    --     90.8108                 0.3022               105.2972

 - Thermochemistry -
 -------------------
 Temperature   298.150 Kelvin.  Pressure   1.00000 Atm.
 Atom     1 has atomic number  6 and mass  12.00000

 Molecular mass:   197.17796 amu.
 Principal axes and moments of inertia in atomic units:
                           1         2         3
     Eigenvalues --  1332.549205685.560455922.15377
           X            0.99996   0.00619   0.00691
           Y           -0.00592   0.99925  -0.03834
           Z           -0.00715   0.03830   0.99924
 This molecule is an asymmetric top.
 Rotational symmetry number  1.
 Warning -- assumption of classical behavior for rotation
           may cause significant error
 Rotational temperatures (Kelvin)      0.06500     0.01523     0.01463
 Rotational constants (GHZ):           1.35435     0.31743     0.30474
 Zero-point vibrational energy     900199.9 (Joules/Mol)
                                  215.15295 (Kcal/Mol)
 Warning -- explicit consideration of  21 degrees of freedom as
           vibrations may cause significant error
 Vibrational temperatures:     20.57    49.71    65.77    88.92   113.78
          (Kelvin)            219.06   283.85   297.66   338.95   371.70
                              378.85   489.49   505.25   560.60   596.64
                              616.76   671.86   742.26   816.84   839.63
                              867.76   912.31   951.78  1052.34  1139.93
                             1149.26  1172.59  1201.23  1227.19  1278.04
                             1284.57  1313.75  1334.49  1343.28  1361.77
                             1399.79  1431.17  1440.82  1454.88  1491.36
                             1518.72  1524.59  1537.62  1550.24  1625.93
                             1632.43  1640.45  1685.99  1693.94  1744.05
                             1755.52  1766.18  1787.48  1815.35  1822.17
                             1846.97  1875.85  1891.39  1908.96  1921.76
                             1929.40  1937.92  1948.21  1950.32  1964.05
                             1974.35  2000.00  2006.76  2021.61  2071.32
                             2095.49  2164.08  2176.76  2179.82  2183.78
                             2190.40  2197.92  2199.09  2201.20  2202.31
                             2209.67  2234.10  4349.50  4361.03  4364.93
                             4367.15  4374.74  4390.65  4391.06  4402.29
                             4404.64  4411.31  4417.79  4441.93  4444.83
                             4455.31  4458.08  4461.65  4463.61  4469.48
                             4473.86  4476.09  4487.13  5041.42  5169.33

 Zero-point correction=                           0.342868 (Hartree/Particle)
 Thermal correction to Energy=                    0.357432
 Thermal correction to Enthalpy=                  0.358376
 Thermal correction to Gibbs Free Energy=         0.299228
 Sum of electronic and zero-point Energies=           -600.816838
 Sum of electronic and thermal Energies=              -600.802274
 Sum of electronic and thermal Enthalpies=            -600.801329
 Sum of electronic and thermal Free Energies=         -600.860478

                     E (Thermal)             CV                S
                      KCal/Mol        Cal/Mol-Kelvin    Cal/Mol-Kelvin
 Total                  224.292             56.649            124.488
 Electronic               0.000              0.000              0.000
 Translational            0.889              2.981             41.742
 Rotational               0.889              2.981             32.173
 Vibrational            222.514             50.687             50.573
 Vibration     1          0.593              1.986              7.300
 Vibration     2          0.594              1.983              5.549
 Vibration     3          0.595              1.979              4.995
 Vibration     4          0.597              1.973              4.399
 Vibration     5          0.600              1.963              3.914
 Vibration     6          0.619              1.900              2.644
 Vibration     7          0.637              1.844              2.158
 Vibration     8          0.641              1.830              2.071
 Vibration     9          0.655              1.786              1.836
 Vibration    10          0.667              1.749              1.673
 Vibration    11          0.670              1.740              1.640
 Vibration    12          0.720              1.595              1.211
 Vibration    13          0.728              1.573              1.161
 Vibration    14          0.758              1.492              1.002
 Vibration    15          0.778              1.438              0.910
 Vibration    16          0.790              1.408              0.863
 Vibration    17          0.824              1.323              0.746
 Vibration    18          0.871              1.215              0.620
 Vibration    19          0.924              1.101              0.509
 Vibration    20          0.940              1.067              0.479
 Vibration    21          0.962              1.025              0.444

                           ! Non-Optimized Parameters !
 Normal termination of Gaussian 16 at Thu Dec 10 11:27:11 2020.

 ----------------------------------------------------------------------
 # B3LYP/6-311++G(d,p) empiricaldispersion=gd3bj scf=xqc pop=npa geom=c
 heck
 ----------------------------------------------------------------------

 --------------------------------------
 CID_65107108_JID_4833_Energie_neutraal
 --------------------------------------
 Structure from the checkpoint file:  "JID_4833.chk"
 Charge =  0 Multiplicity = 1

 SCF Done:  E(RB3LYP) =  -601.337289425     A.U. after   13 cycles
 Normal termination of Gaussian 16 at Thu Dec 10 11:32:56 2020.

 ----------------------------------------------------------------------
 # B3LYP/6-311++G(d,p) empiricaldispersion=gd3bj scf=xqc pop=npa geom=c
 heck
 ----------------------------------------------------------------------

 ------------------------------------
 CID_65107108_JID_4833_Energie_kation
 ------------------------------------
 Structure from the checkpoint file:  "JID_4833.chk"
 Charge =  1 Multiplicity = 2

 SCF Done:  E(UB3LYP) =  -601.031500722     A.U. after   20 cycles
 Normal termination of Gaussian 16 at Thu Dec 10 11:44:52 2020.
 Gaussian 16:  ES64L-G16RevA.03 25-Dec-2016

 ----------------------------------------------------------------------
 # B3LYP/6-311++G(d,p) empiricaldispersion=gd3bj scf=xqc pop=npa geom=c
 heck
 ----------------------------------------------------------------------

 -----------------------------------
 CID_65107108_JID_4833_Energie_anion
 -----------------------------------
 Structure from the checkpoint file:  "JID_4833.chk"
 Charge = -1 Multiplicity = 2

                         Standard orientation:
 ---------------------------------------------------------------------
 Center     Atomic      Atomic             Coordinates (Angstroms)
 Number     Number       Type             X           Y           Z
 ---------------------------------------------------------------------
      1          6           0       -4.373960    0.507487   -1.330561
      2          6           0       -3.667463   -0.094777   -0.115668
      3          6           0       -3.181033    0.980166    0.894783
      4          6           0       -1.889480    0.406563    1.486935
      5          6           0       -1.217589   -0.236329    0.256228
      6          6           0       -2.392979   -0.913590   -0.476381
      7          7           0       -0.112430   -1.160382    0.497804
      8          6           0        1.147950   -0.557818    0.964013
      9          6           0        2.202024   -0.593452   -0.164459
     10          6           0        3.588886   -0.183108    0.350368
     11          6           0        3.592746    1.362959    0.334093
     12          6           0        2.464301    1.783036   -0.659607
     13          6           0        1.945779    0.464911   -1.259624
     14          8           0        2.234211   -1.914560   -0.677819
     15          1           0       -5.231361    1.120822   -1.028267
     16          1           0       -3.688377    1.149489   -1.898380
     17          1           0       -4.740710   -0.271639   -2.008770
     18          1           0       -4.375998   -0.756210    0.398569
     19          1           0       -2.952587    1.911528    0.358201
     20          1           0       -3.938834    1.222556    1.647030
     21          1           0       -2.118447   -0.378526    2.222903
     22          1           0       -1.263598    1.154831    1.984752
     23          1           0       -0.827881    0.572857   -0.372433
     24          1           0       -2.483984   -1.948397   -0.122508
     25          1           0       -2.215235   -0.966939   -1.555532
     26          1           0       -0.423536   -1.868863    1.157925
     27          1           0        1.537146   -1.154989    1.795844
     28          1           0        0.999636    0.463630    1.339862
     29          1           0        3.813328   -0.606599    1.335448
     30          1           0        4.328243   -0.584369   -0.351631
     31          1           0        4.568358    1.754599    0.030183
     32          1           0        3.393975    1.766041    1.333145
     33          1           0        2.824024    2.472377   -1.429783
     34          1           0        1.661975    2.304960   -0.124791
     35          1           0        2.543740    0.171117   -2.130065
     36          1           0        0.901597    0.507093   -1.585261
     37          1           0        1.286757   -2.152512   -0.739227
 ---------------------------------------------------------------------

 SCF Done:  E(UB3LYP) =  -601.323573472     A.U. after   28 cycles

 The electronic state is 2-A.
 Alpha  occ. eigenvalues --  -19.01249 -14.20902 -10.12165 -10.09845 -10.09592
 Alpha  occ. eigenvalues --  -10.07213 -10.07210 -10.07009 -10.06760 -10.06353
 Alpha  occ. eigenvalues --  -10.06297 -10.06164 -10.06086 -10.06062  -0.92299
 Alpha  occ. eigenvalues --   -0.81524  -0.73824  -0.72884  -0.64615  -0.62520
 Alpha  occ. eigenvalues --   -0.61664  -0.60224  -0.56279  -0.54166  -0.48452
 Alpha  occ. eigenvalues --   -0.47659  -0.45465  -0.45206  -0.40934  -0.39943
 Alpha  occ. eigenvalues --   -0.38865  -0.38580  -0.36767  -0.34959  -0.33538
 Alpha  occ. eigenvalues --   -0.32420  -0.31689  -0.31463  -0.30120  -0.28631
 Alpha  occ. eigenvalues --   -0.28075  -0.27450  -0.26762  -0.25105  -0.24929
 Alpha  occ. eigenvalues --   -0.24679  -0.24368  -0.23506  -0.22846  -0.22364
 Alpha  occ. eigenvalues --   -0.22333  -0.21641  -0.20765  -0.16974  -0.13736
 Alpha  occ. eigenvalues --    0.04331
 Alpha virt. eigenvalues --    0.06182   0.06735   0.07456   0.07992   0.08267
 Alpha virt. eigenvalues --    0.08851   0.09607   0.10158   0.10328   0.10610
 Alpha virt. eigenvalues --    0.10858   0.11373   0.12382   0.12561   0.13258

  Beta  occ. eigenvalues --  -19.01247 -14.20885 -10.12165 -10.09837 -10.09575
  Beta  occ. eigenvalues --  -10.07199 -10.07195 -10.06990 -10.06753 -10.06345
  Beta  occ. eigenvalues --  -10.06283 -10.06141 -10.06061 -10.06034  -0.92294
  Beta  occ. eigenvalues --   -0.81495  -0.73804  -0.72855  -0.64579  -0.62484
  Beta  occ. eigenvalues --   -0.61638  -0.60188  -0.56235  -0.54106  -0.48386
  Beta  occ. eigenvalues --   -0.47608  -0.45419  -0.45173  -0.40915  -0.39890
  Beta  occ. eigenvalues --   -0.38821  -0.38549  -0.36739  -0.34923  -0.33497
  Beta  occ. eigenvalues --   -0.32391  -0.31658  -0.31435  -0.30097  -0.28601
  Beta  occ. eigenvalues --   -0.28035  -0.27426  -0.26733  -0.25081  -0.24908
  Beta  occ. eigenvalues --   -0.24647  -0.24335  -0.23470  -0.22802  -0.22330
  Beta  occ. eigenvalues --   -0.22307  -0.21604  -0.20742  -0.16961  -0.13711
  Beta virt. eigenvalues --    0.06387   0.06870   0.07403   0.08073   0.08419
  Beta virt. eigenvalues --    0.08634   0.09227   0.09927   0.10403   0.10682
  Beta virt. eigenvalues --    0.10956   0.11119   0.11670   0.12516   0.12784

 Mulliken charges and spin densities:
               1          2
     1  C    0.812201  -1.583609
     2  C   -0.496321   1.066891
     3  C    0.640375  -1.331877
     4  C   -0.580100   0.544637
     5  C   -0.029055  -0.352203
     6  C    0.342259  -0.893688
     7  N   -0.072058   0.106419
     8  C   -0.128251  -0.611775
     9  C   -0.411226   0.430801
    10  C   -0.136069  -0.126356
    11  C    0.052864  -0.476223
    12  C    0.252965  -0.665190
    13  C   -0.182513   0.219451
    14  O   -0.174442   0.006659
    15  H   -0.194133   0.326472
    16  H   -0.197563   0.341502
    17  H   -0.045549   0.175498
    18  H   -0.371093   0.566940
    19  H   -0.114588   0.254335
    20  H   -0.321608   0.500170
    21  H   -0.136192   0.273203
    22  H   -0.656875   0.811418
    23  H    0.905660  -0.767252
    24  H   -0.089193   0.214988
    25  H   -0.009676   0.185191
    26  H    0.157352   0.120847
    27  H   -0.262897   0.438274
    28  H    0.721290  -0.550786
    29  H    0.063939   0.067326
    30  H    0.089863   0.081676
    31  H   -0.014769   0.155008
    32  H   -0.207622   0.361316
    33  H   -0.108455   0.257651
    34  H   -0.187354   0.340656
    35  H    0.036271   0.144119
    36  H   -0.232247   0.371033
    37  H    0.284811  -0.003521
 Sum of Mulliken charges =  -1.00000   1.00000

 Dipole moment (field-independent basis, Debye):
    X=              3.7842    Y=             -1.4972    Z=             -1.8108  Tot=              4.4543
 Quadrupole moment (field-independent basis, Debye-Ang):
   XX=           -174.9003   YY=           -132.7015   ZZ=           -130.4012
   XY=              2.5479   XZ=              3.8303   YZ=             -2.4965

 Summary of Natural Population Analysis:

                                       Natural Population
                Natural  -----------------------------------------------
    Atom  No    Charge         Core      Valence    Rydberg      Total
 -----------------------------------------------------------------------
      C    1   -0.27899      0.99965     2.27450    0.00484     3.27899
      C    2   -0.11404      0.99962     2.10379    0.01063     3.11404
      C    3   -0.18791      0.99963     2.17907    0.00921     3.18791
      C    4   -0.19682      0.99961     2.18850    0.00871     3.19682
      C    5   -0.00853      0.99957     1.99700    0.01196     3.00853
      C    6   -0.18793      0.99960     2.17846    0.00986     3.18793
      N    7   -0.35379      0.99972     2.84087    0.01321     3.85379
      C    8   -0.09986      0.99955     2.08799    0.01232     3.09986
      C    9    0.12751      0.99948     1.85719    0.01582     2.87249
      C   10   -0.19504      0.99958     2.18738    0.00807     3.19504
      C   11   -0.19435      0.99965     2.18710    0.00760     3.19435
      C   12   -0.19556      0.99965     2.18812    0.00780     3.19556
      C   13   -0.20248      0.99958     2.19318    0.00972     3.20248
      O   14   -0.38351      0.99989     3.37719    0.00643     4.38351
      H   15    0.09865      0.00000     0.40017    0.00118     0.40135
      H   16    0.09514      0.00000     0.40363    0.00123     0.40486
      H   17    0.09690      0.00000     0.40200    0.00110     0.40310
      H   18    0.09575      0.00000     0.40266    0.00158     0.40425
      H   19    0.09357      0.00000     0.40492    0.00151     0.40643
      H   20    0.10255      0.00000     0.39604    0.00141     0.39745
      H   21    0.09406      0.00000     0.40402    0.00192     0.40594
      H   22    0.10246      0.00000     0.39610    0.00144     0.39754
      H   23    0.09068      0.00000     0.40665    0.00267     0.40932
      H   24    0.09851      0.00000     0.40012    0.00137     0.40149
      H   25    0.09969      0.00000     0.39918    0.00113     0.40031
      H   26    0.17862      0.00000     0.31886    0.00252     0.32138
      H   27    0.09697      0.00000     0.40183    0.00120     0.40303
      H   28    0.09465      0.00000     0.40329    0.00206     0.40535
      H   29    0.10053      0.00000     0.39845    0.00102     0.39947
      H   30    0.10149      0.00000     0.39730    0.00121     0.39851
      H   31    0.09671      0.00000     0.40240    0.00089     0.40329
      H   32    0.09823      0.00000     0.40046    0.00130     0.40177
      H   33    0.09858      0.00000     0.40044    0.00098     0.40142
      H   34    0.09803      0.00000     0.40037    0.00160     0.40197
      H   35    0.09973      0.00000     0.39905    0.00123     0.40027
      H   36    0.10193      0.00000     0.39689    0.00117     0.39807
      H   37    0.23785      0.00000     0.25907    0.00308     0.26215
 =======================================================================
   * Total *    0.00000     13.99476    40.83424    0.17100    55.00000

 Normal termination of Gaussian 16 at Thu Dec 10 12:01:31 2020.
