 Gaussian 16, Revision A.03,

 -----------------------------------------------------------
 # opt freq B3LYP/6-31G(d) empiricaldispersion=gd3bj scf=xqc
 -----------------------------------------------------------

 -------------------------------
 CID_130684990_JID_4372_neutraal
 -------------------------------
 Symbolic Z-matrix:
 Charge =  0 Multiplicity = 1

 SCF Done:  E(RB3LYP) =  -581.259499151     A.U. after   13 cycles
 SCF Done:  E(RB3LYP) =  -581.271180417     A.U. after   10 cycles
 SCF Done:  E(RB3LYP) =  -581.272295716     A.U. after   10 cycles
 SCF Done:  E(RB3LYP) =  -581.272440620     A.U. after   10 cycles
 SCF Done:  E(RB3LYP) =  -581.272540146     A.U. after    9 cycles
 SCF Done:  E(RB3LYP) =  -581.272550955     A.U. after    9 cycles
 SCF Done:  E(RB3LYP) =  -581.272552685     A.U. after    7 cycles
 SCF Done:  E(RB3LYP) =  -581.272552889     A.U. after    6 cycles
 SCF Done:  E(RB3LYP) =  -581.272552941     A.U. after    6 cycles
 Optimization completed.
    -- Stationary point found.
 Normal termination of Gaussian 16 at Thu Dec 10 09:24:38 2020.

 --------------------------------------------------------------------
 #N Geom=AllCheck Guess=TCheck SCRF=Check GenChk RB3LYP/6-31G(d) Freq
 --------------------------------------------------------------------

 Structure from the checkpoint file:  "JID_4372.chk"
 -------------------------------
 CID_130684990_JID_4372_neutraal
 -------------------------------
 Charge =  0 Multiplicity = 1

 SCF Done:  E(RB3LYP) =  -581.272552941     A.U. after    1 cycles

  Exact polarizability: 160.237  -0.905 131.254   2.442   0.606 116.117
 Approx polarizability: 188.461   1.158 188.016   2.540  -0.938 183.096

                      1                      2                      3
                      A                      A                      A
 Frequencies --     54.4156                65.2512                92.1588
 Red. masses --      3.1936                 3.0360                 3.1113
 Frc consts  --      0.0056                 0.0076                 0.0156
 IR Inten    --      0.0507                 0.0515                 0.0495

                      4                      5                      6
                      A                      A                      A
 Frequencies --    125.3636               175.4899               199.3625
 Red. masses --      3.0476                 2.4979                 2.0204
 Frc consts  --      0.0282                 0.0453                 0.0473
 IR Inten    --      0.1710                 0.2771                 0.0723

                      7                      8                      9
                      A                      A                      A
 Frequencies --    220.6755               224.3191               237.3539
 Red. masses --      1.3753                 1.2797                 1.1125
 Frc consts  --      0.0395                 0.0379                 0.0369
 IR Inten    --      5.8591                 0.3218                 0.6397

                     10                     11                     12
                      A                      A                      A
 Frequencies --    245.5416               271.2919               280.3845
 Red. masses --      1.7660                 2.4501                 2.1923
 Frc consts  --      0.0627                 0.1062                 0.1015
 IR Inten    --      0.5426                 0.0589                20.7659

                     13                     14                     15
                      A                      A                      A
 Frequencies --    298.8062               311.2390               347.3326
 Red. masses --      1.8622                 1.6087                 2.3031
 Frc consts  --      0.0980                 0.0918                 0.1637
 IR Inten    --     19.3021                11.8076                 1.6524

                     16                     17                     18
                      A                      A                      A
 Frequencies --    376.6737               392.6868               407.4707
 Red. masses --      2.6007                 2.1950                 2.0247
 Frc consts  --      0.2174                 0.1994                 0.1981
 IR Inten    --      4.1288                 5.6225                 2.8132

                     19                     20                     21
                      A                      A                      A
 Frequencies --    444.5882               472.3935               508.9144
 Red. masses --      3.5804                 2.8699                 2.3869
 Frc consts  --      0.4170                 0.3773                 0.3642
 IR Inten    --      1.2773                 0.6986                 1.4805

                     22                     23                     24
                      A                      A                      A
 Frequencies --    527.6257               603.5593               629.2073
 Red. masses --      2.7671                 2.8679                 2.0820
 Frc consts  --      0.4539                 0.6155                 0.4856
 IR Inten    --      2.3862                 0.5764                 2.0076

                     25                     26                     27
                      A                      A                      A
 Frequencies --    659.5128               769.8361               778.9610
 Red. masses --      2.2419                 2.6352                 2.2037
 Frc consts  --      0.5745                 0.9201                 0.7878
 IR Inten    --      0.6671                 2.2457                 0.8427

                     28                     29                     30
                      A                      A                      A
 Frequencies --    807.4144               854.5326               885.2742
 Red. masses --      2.5211                 2.2335                 2.3388
 Frc consts  --      0.9684                 0.9609                 1.0799
 IR Inten    --      1.9226                13.0607                 6.8909

                     31                     32                     33
                      A                      A                      A
 Frequencies --    895.7929               909.9767               923.9899
 Red. masses --      2.0223                 1.5873                 1.3467
 Frc consts  --      0.9561                 0.7744                 0.6774
 IR Inten    --     30.5307               123.6073                 2.1066

                     34                     35                     36
                      A                      A                      A
 Frequencies --    955.9239               971.3343               997.1914
 Red. masses --      2.1668                 1.8281                 1.5581
 Frc consts  --      1.1666                 1.0162                 0.9128
 IR Inten    --     16.5484                11.7836                 2.1598

                     37                     38                     39
                      A                      A                      A
 Frequencies --   1001.9786              1006.7692              1021.6787
 Red. masses --      1.4023                 1.6550                 1.3366
 Frc consts  --      0.8295                 0.9884                 0.8220
 IR Inten    --      6.3611                14.3598                 5.0428

                     40                     41                     42
                      A                      A                      A
 Frequencies --   1036.0742              1045.1423              1054.1645
 Red. masses --      1.7290                 1.6342                 1.6287
 Frc consts  --      1.0935                 1.0517                 1.0664
 IR Inten    --      4.8381                22.2835                 6.2837

                     43                     44                     45
                      A                      A                      A
 Frequencies --   1085.5838              1112.4243              1121.8535
 Red. masses --      1.5937                 2.3006                 1.8376
 Frc consts  --      1.1066                 1.6774                 1.3626
 IR Inten    --      2.6806                17.9751                11.3821

                     46                     47                     48
                      A                      A                      A
 Frequencies --   1147.8124              1150.3983              1171.7297
 Red. masses --      2.0916                 2.3107                 2.6901
 Frc consts  --      1.6236                 1.8017                 2.1761
 IR Inten    --      7.6457                 0.7362                 4.7066

                     49                     50                     51
                      A                      A                      A
 Frequencies --   1180.7568              1194.5150              1200.6432
 Red. masses --      1.9669                 1.8834                 1.8184
 Frc consts  --      1.6157                 1.5833                 1.5444
 IR Inten    --      5.9824                 0.6570                 3.8377

                     52                     53                     54
                      A                      A                      A
 Frequencies --   1222.2743              1234.1448              1253.4833
 Red. masses --      2.2387                 1.7252                 1.4225
 Frc consts  --      1.9705                 1.5482                 1.3169
 IR Inten    --     32.2772                15.0997                16.2570

                     55                     56                     57
                      A                      A                      A
 Frequencies --   1259.2330              1281.9307              1291.1512
 Red. masses --      1.4556                 1.2961                 1.5010
 Frc consts  --      1.3599                 1.2549                 1.4743
 IR Inten    --      6.6144                 0.2694                 2.7801

                     58                     59                     60
                      A                      A                      A
 Frequencies --   1295.3462              1315.3960              1325.0655
 Red. masses --      1.3885                 1.4029                 1.6726
 Frc consts  --      1.3727                 1.4302                 1.7303
 IR Inten    --      4.0123                 1.7566                 3.6781

                     61                     62                     63
                      A                      A                      A
 Frequencies --   1352.7192              1362.8879              1384.0644
 Red. masses --      1.3180                 1.2371                 1.4839
 Frc consts  --      1.4209                 1.3538                 1.6748
 IR Inten    --      5.4808                 0.1408                31.9362

                     64                     65                     66
                      A                      A                      A
 Frequencies --   1385.5823              1392.3296              1397.2327
 Red. masses --      1.4328                 1.4516                 1.3690
 Frc consts  --      1.6207                 1.6580                 1.5747
 IR Inten    --     21.7949                 5.6565                10.9291

                     67                     68                     69
                      A                      A                      A
 Frequencies --   1405.0093              1412.8104              1431.0129
 Red. masses --      1.3850                 1.3888                 1.3407
 Frc consts  --      1.6108                 1.6333                 1.6176
 IR Inten    --     14.2973                10.7153                 3.4318

                     70                     71                     72
                      A                      A                      A
 Frequencies --   1439.7222              1444.5002              1448.1347
 Red. masses --      1.3417                 1.3075                 1.3556
 Frc consts  --      1.6386                 1.6074                 1.6749
 IR Inten    --      3.0342                 1.1594                14.1363

                     73                     74                     75
                      A                      A                      A
 Frequencies --   1456.6253              1509.1768              1516.3002
 Red. masses --      1.4318                 1.0907                 1.0613
 Frc consts  --      1.7899                 1.4636                 1.4376
 IR Inten    --      3.1659                 3.8990                 2.4220

                     76                     77                     78
                      A                      A                      A
 Frequencies --   1520.1081              1522.4930              1522.8349
 Red. masses --      1.0576                 1.1128                 1.0634
 Frc consts  --      1.4398                 1.5197                 1.4530
 IR Inten    --      4.0976                 1.1146                 3.5824

                     79                     80                     81
                      A                      A                      A
 Frequencies --   1532.2490              1533.9304              1537.9866
 Red. masses --      1.0499                 1.0554                 1.0569
 Frc consts  --      1.4523                 1.4631                 1.4729
 IR Inten    --      5.7651                 7.3895                 1.2850

                     82                     83                     84
                      A                      A                      A
 Frequencies --   1539.4807              1550.0805              1698.8988
 Red. masses --      1.0671                 1.0744                 1.0907
 Frc consts  --      1.4901                 1.5210                 1.8547
 IR Inten    --      4.4742                 6.2363                25.6136

                     85                     86                     87
                      A                      A                      A
 Frequencies --   2894.8004              2910.1715              2922.6410
 Red. masses --      1.0735                 1.0802                 1.0746
 Frc consts  --      5.3002                 5.3902                 5.4082
 IR Inten    --     45.7278                22.3215               136.8504

                     88                     89                     90
                      A                      A                      A
 Frequencies --   3039.6631              3040.5600              3044.7394
 Red. masses --      1.0687                 1.0427                 1.0780
 Frc consts  --      5.8177                 5.6796                 5.8878
 IR Inten    --     17.5421                27.2656                21.8835

                     91                     92                     93
                      A                      A                      A
 Frequencies --   3045.5864              3052.2749              3054.8433
 Red. masses --      1.0786                 1.0396                 1.0430
 Frc consts  --      5.8944                 5.7062                 5.7350
 IR Inten    --     11.1822                31.3108                26.9424

                     94                     95                     96
                      A                      A                      A
 Frequencies --   3057.5476              3062.4277              3065.6275
 Red. masses --      1.0781                 1.0771                 1.0623
 Frc consts  --      5.9383                 5.9516                 5.8819
 IR Inten    --     53.0933                55.1593                 0.8471

                     97                     98                     99
                      A                      A                      A
 Frequencies --   3080.1416              3084.0508              3094.3798
 Red. masses --      1.0860                 1.1038                 1.0868
 Frc consts  --      6.0706                 6.1854                 6.1312
 IR Inten    --     35.1797                48.2767                44.6996

                    100                    101                    102
                      A                      A                      A
 Frequencies --   3101.0598              3113.0893              3114.2003
 Red. masses --      1.1019                 1.1009                 1.1038
 Frc consts  --      6.2430                 6.2863                 6.3070
 IR Inten    --     31.0628                35.9425                17.0315

                    103                    104                    105
                      A                      A                      A
 Frequencies --   3117.9843              3118.7453              3125.0358
 Red. masses --      1.1004                 1.1050                 1.1018
 Frc consts  --      6.3029                 6.3326                 6.3396
 IR Inten    --     29.2545                69.3225                32.8219

                    106                    107                    108
                      A                      A                      A
 Frequencies --   3133.9208              3457.2054              3539.7923
 Red. masses --      1.1009                 1.0493                 1.0919
 Frc consts  --      6.3706                 7.3896                 8.0608
 IR Inten    --     37.5086                 2.2010                 0.9754

 - Thermochemistry -
 -------------------
 Temperature   298.150 Kelvin.  Pressure   1.00000 Atm.
 Atom     1 has atomic number  6 and mass  12.00000

 Molecular mass:   196.19395 amu.
 Principal axes and moments of inertia in atomic units:
                           1         2         3
     Eigenvalues --  1235.267195055.243265627.03568
           X            0.99994  -0.00402   0.01006
           Y            0.00391   0.99992   0.01183
           Z           -0.01011  -0.01179   0.99988
 This molecule is an asymmetric top.
 Rotational symmetry number  1.
 Warning -- assumption of classical behavior for rotation
           may cause significant error
 Rotational temperatures (Kelvin)      0.07012     0.01713     0.01539
 Rotational constants (GHZ):           1.46101     0.35700     0.32073
 Zero-point vibrational energy     930084.9 (Joules/Mol)
                                  222.29563 (Kcal/Mol)
 Warning -- explicit consideration of  23 degrees of freedom as
           vibrations may cause significant error
 Vibrational temperatures:     78.29    93.88   132.60   180.37   252.49
          (Kelvin)            286.84   317.50   322.75   341.50   353.28
                              390.33   403.41   429.92   447.80   499.73
                              541.95   564.99   586.26   639.66   679.67
                              732.21   759.14   868.39   905.29   948.89
                             1107.62  1120.75  1161.69  1229.48  1273.71
                             1288.85  1309.25  1329.42  1375.36  1397.53
                             1434.74  1441.62  1448.52  1469.97  1490.68
                             1503.73  1516.71  1561.91  1600.53  1614.10
                             1651.45  1655.17  1685.86  1698.85  1718.64
                             1727.46  1758.58  1775.66  1803.48  1811.76
                             1844.41  1857.68  1863.71  1892.56  1906.47
                             1946.26  1960.89  1991.36  1993.54  2003.25
                             2010.31  2021.50  2032.72  2058.91  2071.44
                             2078.31  2083.54  2095.76  2171.37  2181.62
                             2187.10  2190.53  2191.02  2204.56  2206.98
                             2212.82  2214.97  2230.22  2444.34  4164.97
                             4187.09  4205.03  4373.40  4374.69  4380.70
                             4381.92  4391.54  4395.24  4399.13  4406.15
                             4410.75  4431.64  4437.26  4452.12  4461.73
                             4479.04  4480.64  4486.08  4487.18  4496.23
                             4509.01  4974.15  5092.97

 Zero-point correction=                           0.354251 (Hartree/Particle)
 Thermal correction to Energy=                    0.369060
 Thermal correction to Enthalpy=                  0.370004
 Thermal correction to Gibbs Free Energy=         0.313701
 Sum of electronic and zero-point Energies=           -580.918302
 Sum of electronic and thermal Energies=              -580.903493
 Sum of electronic and thermal Enthalpies=            -580.902549
 Sum of electronic and thermal Free Energies=         -580.958852

                     E (Thermal)             CV                S
                      KCal/Mol        Cal/Mol-Kelvin    Cal/Mol-Kelvin
 Total                  231.588             59.038            118.500
 Electronic               0.000              0.000              0.000
 Translational            0.889              2.981             41.727
 Rotational               0.889              2.981             31.930
 Vibrational            229.811             53.076             44.843
 Vibration     1          0.596              1.976              4.650
 Vibration     2          0.597              1.971              4.292
 Vibration     3          0.602              1.955              3.614
 Vibration     4          0.610              1.928              3.016
 Vibration     5          0.627              1.873              2.376
 Vibration     6          0.637              1.841              2.139
 Vibration     7          0.647              1.810              1.954
 Vibration     8          0.649              1.804              1.924
 Vibration     9          0.656              1.783              1.823
 Vibration    10          0.660              1.770              1.762
 Vibration    11          0.675              1.726              1.588
 Vibration    12          0.680              1.710              1.531
 Vibration    13          0.692              1.676              1.424
 Vibration    14          0.700              1.652              1.356
 Vibration    15          0.725              1.581              1.178
 Vibration    16          0.747              1.520              1.052
 Vibration    17          0.760              1.486              0.990
 Vibration    18          0.772              1.454              0.936
 Vibration    19          0.804              1.373              0.812
 Vibration    20          0.829              1.311              0.731
 Vibration    21          0.864              1.230              0.636
 Vibration    22          0.883              1.189              0.593
 Vibration    23          0.962              1.024              0.444

 Optimization completed.
    -- Stationary point found.
 Normal termination of Gaussian 16 at Thu Dec 10 09:38:33 2020.

 ----------------------------------------------------------------------
 # B3LYP/6-311++G(d,p) empiricaldispersion=gd3bj scf=xqc pop=npa geom=c
 heck
 ----------------------------------------------------------------------

 ---------------------------------------
 CID_130684990_JID_4372_Energie_neutraal
 ---------------------------------------
 Structure from the checkpoint file:  "JID_4372.chk"
 Charge =  0 Multiplicity = 1

 SCF Done:  E(RB3LYP) =  -581.437118438     A.U. after   14 cycles
 Normal termination of Gaussian 16 at Thu Dec 10 09:45:40 2020.

 ----------------------------------------------------------------------
 # B3LYP/6-311++G(d,p) empiricaldispersion=gd3bj scf=xqc pop=npa geom=c
 heck
 ----------------------------------------------------------------------

 -------------------------------------
 CID_130684990_JID_4372_Energie_kation
 -------------------------------------
 Structure from the checkpoint file:  "JID_4372.chk"
 Charge =  1 Multiplicity = 2

 SCF Done:  E(UB3LYP) =  -581.150966214     A.U. after   21 cycles
 Normal termination of Gaussian 16 at Thu Dec 10 10:00:51 2020.
 Gaussian 16:  ES64L-G16RevA.03 25-Dec-2016

 ----------------------------------------------------------------------
 # B3LYP/6-311++G(d,p) empiricaldispersion=gd3bj scf=xqc pop=npa geom=c
 heck
 ----------------------------------------------------------------------

 ------------------------------------
 CID_130684990_JID_4372_Energie_anion
 ------------------------------------
 Structure from the checkpoint file:  "JID_4372.chk"
 Charge = -1 Multiplicity = 2

                         Standard orientation:
 ---------------------------------------------------------------------
 Center     Atomic      Atomic             Coordinates (Angstroms)
 Number     Number       Type             X           Y           Z
 ---------------------------------------------------------------------
      1          6           0        3.722329   -0.446158    0.953598
      2          6           0        2.958237   -0.498252   -0.377620
      3          6           0        1.946181   -1.658233   -0.421141
      4          6           0        0.715497   -1.389180    0.445455
      5          7           0        0.058055   -0.150584    0.029935
      6          6           0        0.963911    0.986359    0.167444
      7          6           0        2.218055    0.814854   -0.706774
      8          7           0        3.135528    1.958629   -0.651890
      9          6           0       -1.191072    0.048378    0.737056
     10          6           0       -2.036508    1.294416    0.390090
     11          6           0       -3.305804    0.419917    0.559658
     12          6           0       -2.410988   -0.845746    0.345220
     13          6           0       -2.376029   -1.361698   -1.090987
     14          6           0       -4.504381    0.677612   -0.340464
     15          1           0        4.219457   -1.404592    1.142192
     16          1           0        3.067423   -0.245014    1.808354
     17          1           0        4.497537    0.326405    0.928102
     18          1           0        3.701427   -0.651518   -1.170071
     19          1           0        1.606803   -1.804407   -1.454242
     20          1           0        2.426861   -2.590852   -0.100036
     21          1           0        0.997151   -1.348671    1.517287
     22          1           0        0.000722   -2.211682    0.342688
     23          1           0        1.266536    1.145063    1.224631
     24          1           0        0.435868    1.893627   -0.146649
     25          1           0        1.869722    0.735478   -1.744417
     26          1           0        2.664421    2.786611   -1.014808
     27          1           0        3.356722    2.171426    0.320427
     28          1           0       -1.041691    0.003791    1.834392
     29          1           0       -1.931421    2.182989    1.020193
     30          1           0       -1.892745    1.581327   -0.657515
     31          1           0       -3.627097    0.450654    1.608166
     32          1           0       -2.618487   -1.676589    1.029631
     33          1           0       -1.625361   -2.149525   -1.209029
     34          1           0       -3.349007   -1.779799   -1.373748
     35          1           0       -2.122582   -0.571462   -1.803583
     36          1           0       -5.285591   -0.078378   -0.193970
     37          1           0       -4.945693    1.658300   -0.124643
     38          1           0       -4.222631    0.666895   -1.398878
 ---------------------------------------------------------------------

 SCF Done:  E(UB3LYP) =  -581.422570680     A.U. after   30 cycles

 The electronic state is 2-A.
 Alpha  occ. eigenvalues --  -14.20215 -14.19574 -10.09696 -10.09379 -10.09125
 Alpha  occ. eigenvalues --  -10.08724 -10.07455 -10.07233 -10.07011 -10.06838
 Alpha  occ. eigenvalues --  -10.06138 -10.06116 -10.06025 -10.05686  -0.83621
 Alpha  occ. eigenvalues --   -0.79027  -0.74682  -0.69792  -0.64017  -0.63000
 Alpha  occ. eigenvalues --   -0.61962  -0.59660  -0.53989  -0.52996  -0.51456
 Alpha  occ. eigenvalues --   -0.48376  -0.44173  -0.42535  -0.40315  -0.39672
 Alpha  occ. eigenvalues --   -0.39134  -0.36904  -0.35733  -0.34630  -0.33436
 Alpha  occ. eigenvalues --   -0.32478  -0.32263  -0.30863  -0.29614  -0.29320
 Alpha  occ. eigenvalues --   -0.28980  -0.28710  -0.28134  -0.27514  -0.26846
 Alpha  occ. eigenvalues --   -0.25491  -0.23045  -0.22779  -0.22293  -0.21724
 Alpha  occ. eigenvalues --   -0.21348  -0.19970  -0.19256  -0.14812  -0.11959
 Alpha  occ. eigenvalues --    0.04317
 Alpha virt. eigenvalues --    0.06166   0.06679   0.07206   0.08014   0.08301
 Alpha virt. eigenvalues --    0.08951   0.09546   0.09796   0.10447   0.10648
 Alpha virt. eigenvalues --    0.10969   0.11511   0.11729   0.12820   0.13028

  Beta  occ. eigenvalues --  -14.20201 -14.19542 -10.09691 -10.09372 -10.09115
  Beta  occ. eigenvalues --  -10.08708 -10.07452 -10.07224 -10.07002 -10.06829
  Beta  occ. eigenvalues --  -10.06120 -10.06089 -10.05998 -10.05667  -0.83596
  Beta  occ. eigenvalues --   -0.78980  -0.74650  -0.69765  -0.63981  -0.62966
  Beta  occ. eigenvalues --   -0.61930  -0.59619  -0.53946  -0.52954  -0.51412
  Beta  occ. eigenvalues --   -0.48334  -0.44132  -0.42496  -0.40280  -0.39623
  Beta  occ. eigenvalues --   -0.39092  -0.36876  -0.35709  -0.34596  -0.33400
  Beta  occ. eigenvalues --   -0.32446  -0.32235  -0.30832  -0.29585  -0.29288
  Beta  occ. eigenvalues --   -0.28952  -0.28679  -0.28105  -0.27486  -0.26814
  Beta  occ. eigenvalues --   -0.25458  -0.23019  -0.22758  -0.22272  -0.21691
  Beta  occ. eigenvalues --   -0.21324  -0.19946  -0.19226  -0.14779  -0.11889
  Beta virt. eigenvalues --    0.06292   0.06927   0.07426   0.07539   0.08481
  Beta virt. eigenvalues --    0.08787   0.09269   0.09896   0.10108   0.10875
  Beta virt. eigenvalues --    0.10916   0.11255   0.11804   0.12023   0.13148

 Mulliken charges and spin densities:
               1          2
     1  C    0.616240  -1.301539
     2  C   -1.268186   1.758386
     3  C    0.503916  -1.064693
     4  C   -0.234997  -0.051717
     5  N    0.349318   0.085906
     6  C   -0.989441   0.790476
     7  C    2.072996  -2.648028
     8  N   -0.461098   0.170780
     9  C   -1.869529   1.324580
    10  C    1.487714  -2.190590
    11  C   -2.233232   2.471982
    12  C    1.111165  -0.981423
    13  C    0.140628  -0.752224
    14  C    0.943485  -1.696001
    15  H   -0.173622   0.317719
    16  H   -0.010920   0.160620
    17  H   -0.025939   0.162896
    18  H   -0.039819   0.248290
    19  H    0.074845   0.046794
    20  H   -0.082676   0.246534
    21  H   -0.098496   0.216086
    22  H    0.136251   0.016195
    23  H   -0.190288   0.331921
    24  H    0.227728  -0.069928
    25  H    0.116051   0.082480
    26  H   -0.103210   0.343262
    27  H   -0.035193   0.268520
    28  H    0.161743  -0.034908
    29  H   -0.155880   0.321224
    30  H   -0.087102   0.256961
    31  H   -0.434362   0.628043
    32  H   -0.144785   0.365712
    33  H    0.010958   0.105392
    34  H   -0.060914   0.211809
    35  H    0.132803   0.053933
    36  H   -0.166375   0.307090
    37  H   -0.158710   0.296554
    38  H   -0.061065   0.200906
 Sum of Mulliken charges =  -1.00000   1.00000

 Dipole moment (field-independent basis, Debye):
    X=              1.1083    Y=             -1.9597    Z=             -1.1542  Tot=              2.5300
 Quadrupole moment (field-independent basis, Debye-Ang):
   XX=           -182.4434   YY=           -136.8205   ZZ=           -123.8998
   XY=             -3.2399   XZ=              2.2861   YZ=              0.4575

 Summary of Natural Population Analysis:

                                       Natural Population
                Natural  -----------------------------------------------
    Atom  No    Charge         Core      Valence    Rydberg      Total
 -----------------------------------------------------------------------
      C    1   -0.29337      0.99965     2.28763    0.00609     3.29337
      C    2   -0.11084      0.99958     2.10056    0.01070     3.11084
      C    3   -0.19136      0.99961     2.18261    0.00914     3.19136
      C    4   -0.08436      0.99961     2.07457    0.01018     3.08436
      N    5   -0.28216      0.99968     2.77095    0.01153     3.78216
      C    6   -0.09253      0.99958     2.07992    0.01303     3.09253
      C    7   -0.01315      0.99956     2.00048    0.01311     3.01315
      N    8   -0.42070      0.99977     2.91061    0.01033     3.92070
      C    9    0.00202      0.99956     1.98478    0.01364     2.99798
      C   10   -0.19140      0.99960     2.18280    0.00900     3.19140
      C   11   -0.10678      0.99960     2.09525    0.01194     3.10678
      C   12   -0.10338      0.99958     2.09246    0.01134     3.10338
      C   13   -0.29161      0.99965     2.28445    0.00752     3.29161
      C   14   -0.28531      0.99965     2.28089    0.00477     3.28531
      H   15    0.09943      0.00000     0.39956    0.00101     0.40057
      H   16    0.09777      0.00000     0.40102    0.00121     0.40223
      H   17    0.10248      0.00000     0.39650    0.00102     0.39752
      H   18    0.09924      0.00000     0.39920    0.00156     0.40076
      H   19    0.09934      0.00000     0.39929    0.00137     0.40066
      H   20    0.09832      0.00000     0.40083    0.00085     0.40168
      H   21    0.08002      0.00000     0.41852    0.00146     0.41998
      H   22    0.09889      0.00000     0.39979    0.00131     0.40111
      H   23    0.07826      0.00000     0.41978    0.00196     0.42174
      H   24    0.10003      0.00000     0.39798    0.00198     0.39997
      H   25    0.09273      0.00000     0.40535    0.00192     0.40727
      H   26    0.17583      0.00000     0.32242    0.00174     0.32417
      H   27    0.17283      0.00000     0.32515    0.00203     0.32717
      H   28    0.08382      0.00000     0.41457    0.00161     0.41618
      H   29    0.09998      0.00000     0.39876    0.00126     0.40002
      H   30    0.09811      0.00000     0.40033    0.00155     0.40189
      H   31    0.09661      0.00000     0.40191    0.00148     0.40339
      H   32    0.09486      0.00000     0.40386    0.00128     0.40514
      H   33    0.10121      0.00000     0.39787    0.00092     0.39879
      H   34    0.09863      0.00000     0.40056    0.00081     0.40137
      H   35    0.10015      0.00000     0.39850    0.00135     0.39985
      H   36    0.09914      0.00000     0.39965    0.00122     0.40086
      H   37    0.10026      0.00000     0.39864    0.00110     0.39974
      H   38    0.09700      0.00000     0.40183    0.00116     0.40300
 =======================================================================
   * Total *   -0.00000     13.99467    40.82986    0.17547    55.00000

 Normal termination of Gaussian 16 at Thu Dec 10 10:22:00 2020.
