 Gaussian 16, Revision A.03,

 -----------------------------------------------------------
 # opt freq B3LYP/6-31G(d) empiricaldispersion=gd3bj scf=xqc
 -----------------------------------------------------------

 --------------------------------
 CID_127749659_JID_10750_neutraal
 --------------------------------
 Symbolic Z-matrix:
 Charge =  0 Multiplicity = 1

 SCF Done:  E(RB3LYP) =  -1225.83308483     A.U. after   15 cycles
 SCF Done:  E(RB3LYP) =  -1225.83522167     A.U. after   13 cycles
 SCF Done:  E(RB3LYP) =  -1225.83576667     A.U. after   13 cycles
 SCF Done:  E(RB3LYP) =  -1225.83755867     A.U. after   13 cycles
 SCF Done:  E(RB3LYP) =  -1225.83884359     A.U. after   12 cycles
 SCF Done:  E(RB3LYP) =  -1225.83917238     A.U. after   12 cycles
 SCF Done:  E(RB3LYP) =  -1225.83904124     A.U. after   12 cycles
 SCF Done:  E(RB3LYP) =  -1225.83975294     A.U. after   11 cycles
 SCF Done:  E(RB3LYP) =  -1225.83995401     A.U. after   12 cycles
 SCF Done:  E(RB3LYP) =  -1225.84000615     A.U. after   10 cycles
 SCF Done:  E(RB3LYP) =  -1225.84003005     A.U. after   10 cycles
 SCF Done:  E(RB3LYP) =  -1225.84003288     A.U. after    9 cycles
 SCF Done:  E(RB3LYP) =  -1225.84003334     A.U. after    8 cycles
 SCF Done:  E(RB3LYP) =  -1225.84003345     A.U. after    7 cycles
 Optimization completed.
    -- Stationary point found.
 Normal termination of Gaussian 16 at Sat Dec 12 16:33:10 2020.

 --------------------------------------------------------------------
 #N Geom=AllCheck Guess=TCheck SCRF=Check GenChk RB3LYP/6-31G(d) Freq
 --------------------------------------------------------------------

 Structure from the checkpoint file:  "JID_10750.chk"
 --------------------------------
 CID_127749659_JID_10750_neutraal
 --------------------------------
 Charge =  0 Multiplicity = 1

 SCF Done:  E(RB3LYP) =  -1225.84003345     A.U. after    1 cycles

  Exact polarizability: 200.697 -20.252 199.566  17.483   8.506 162.681
 Approx polarizability: 275.819 -39.353 310.797  35.414  16.884 270.182

                      1                      2                      3
                      A                      A                      A
 Frequencies --     17.5406                47.2368                64.2894
 Red. masses --      3.8603                 5.4546                 7.4212
 Frc consts  --      0.0007                 0.0072                 0.0181
 IR Inten    --      0.0737                 0.3647                 1.1707

                      4                      5                      6
                      A                      A                      A
 Frequencies --     73.0819                96.0198               114.1888
 Red. masses --      4.6090                 3.9350                 3.2968
 Frc consts  --      0.0145                 0.0214                 0.0253
 IR Inten    --      0.1493                 1.5523                 2.5425

                      7                      8                      9
                      A                      A                      A
 Frequencies --    125.8019               159.1215               215.5816
 Red. masses --      3.3856                 3.9122                 2.8436
 Frc consts  --      0.0316                 0.0584                 0.0779
 IR Inten    --      0.8475                 1.1379                 0.4914

                     10                     11                     12
                      A                      A                      A
 Frequencies --    227.5969               240.0037               248.6429
 Red. masses --      4.4874                 1.9951                 1.5730
 Frc consts  --      0.1370                 0.0677                 0.0573
 IR Inten    --      0.7539                 2.3128                 1.3024

                     13                     14                     15
                      A                      A                      A
 Frequencies --    270.5747               290.3742               313.9520
 Red. masses --      2.7203                 5.5234                 4.3517
 Frc consts  --      0.1173                 0.2744                 0.2527
 IR Inten    --      1.5549                 1.5256                 4.5012

                     16                     17                     18
                      A                      A                      A
 Frequencies --    326.3660               350.8652               361.4897
 Red. masses --      2.5075                 2.8944                 2.0817
 Frc consts  --      0.1574                 0.2099                 0.1603
 IR Inten    --      0.2673                 0.4289                 0.2270

                     19                     20                     21
                      A                      A                      A
 Frequencies --    379.2775               425.7016               432.9236
 Red. masses --      3.6797                 3.1952                 3.6190
 Frc consts  --      0.3119                 0.3412                 0.3996
 IR Inten    --      1.9814                 6.6138                 5.8446

                     22                     23                     24
                      A                      A                      A
 Frequencies --    455.5537               466.2944               497.3874
 Red. masses --      3.8128                 3.2556                 3.0826
 Frc consts  --      0.4662                 0.4171                 0.4493
 IR Inten    --     13.3631                 0.2386                13.7977

                     25                     26                     27
                      A                      A                      A
 Frequencies --    510.7038               526.3521               551.3466
 Red. masses --      3.5092                 3.0043                 3.8861
 Frc consts  --      0.5393                 0.4904                 0.6960
 IR Inten    --      5.8179                 0.5764                 0.7621

                     28                     29                     30
                      A                      A                      A
 Frequencies --    591.8710               622.1461               652.8451
 Red. masses --      3.2449                 3.6222                 5.2505
 Frc consts  --      0.6697                 0.8261                 1.3185
 IR Inten    --      4.1246                 4.8372                 0.7087

                     31                     32                     33
                      A                      A                      A
 Frequencies --    678.3951               710.5563               736.7197
 Red. masses --      5.2844                 4.0104                 5.3141
 Frc consts  --      1.4329                 1.1930                 1.6994
 IR Inten    --      3.0021                 2.7541                 3.9536

                     34                     35                     36
                      A                      A                      A
 Frequencies --    759.4667               763.1574               780.2984
 Red. masses --      2.9907                 3.0193                 1.5029
 Frc consts  --      1.0163                 1.0361                 0.5391
 IR Inten    --      7.3639                 4.3461                25.0629

                     37                     38                     39
                      A                      A                      A
 Frequencies --    800.6466               838.9125               860.7377
 Red. masses --      2.5373                 2.0472                 1.9354
 Frc consts  --      0.9583                 0.8489                 0.8448
 IR Inten    --      4.3061                 4.1246                 8.5288

                     40                     41                     42
                      A                      A                      A
 Frequencies --    874.0329               881.8627               893.7703
 Red. masses --      2.8794                 2.0178                 1.4860
 Frc consts  --      1.2960                 0.9246                 0.6994
 IR Inten    --      1.4083                 5.3514                 1.4813

                     43                     44                     45
                      A                      A                      A
 Frequencies --    900.1686               935.7356               954.7259
 Red. masses --      2.2984                 2.3283                 2.2087
 Frc consts  --      1.0973                 1.2011                 1.1862
 IR Inten    --      4.6807                16.7599                 3.9453

                     46                     47                     48
                      A                      A                      A
 Frequencies --    961.7030               973.5839               992.1998
 Red. masses --      1.4056                 2.6772                 1.2728
 Frc consts  --      0.7659                 1.4951                 0.7383
 IR Inten    --      0.1868                18.4381                 0.0351

                     49                     50                     51
                      A                      A                      A
 Frequencies --   1003.8869              1040.4728              1062.4595
 Red. masses --      2.0412                 2.5132                 1.8785
 Frc consts  --      1.2120                 1.6030                 1.2494
 IR Inten    --      6.7471                 4.1564                 3.4367

                     52                     53                     54
                      A                      A                      A
 Frequencies --   1067.1121              1078.2152              1079.9493
 Red. masses --      3.1561                 1.9657                 2.4086
 Frc consts  --      2.1175                 1.3464                 1.6551
 IR Inten    --      4.3552                29.7404                 6.0928

                     55                     56                     57
                      A                      A                      A
 Frequencies --   1096.1996              1099.9767              1107.9102
 Red. masses --      2.3766                 1.8317                 2.4805
 Frc consts  --      1.6826                 1.3057                 1.7939
 IR Inten    --     49.3670                15.9806                13.0053

                     58                     59                     60
                      A                      A                      A
 Frequencies --   1132.6232              1150.2907              1155.4445
 Red. masses --      1.7868                 1.9983                 1.6918
 Frc consts  --      1.3505                 1.5578                 1.3308
 IR Inten    --     13.5378                 9.3109                 0.9377

                     61                     62                     63
                      A                      A                      A
 Frequencies --   1177.7380              1194.9389              1201.8097
 Red. masses --      2.6110                 1.0982                 1.4114
 Frc consts  --      2.1338                 0.9239                 1.2010
 IR Inten    --     17.2420                 1.5537                73.9880

                     64                     65                     66
                      A                      A                      A
 Frequencies --   1243.1363              1245.5314              1264.6320
 Red. masses --      1.2624                 1.5850                 1.3409
 Frc consts  --      1.1494                 1.4487                 1.2635
 IR Inten    --      0.4183                26.4697                20.0908

                     67                     68                     69
                      A                      A                      A
 Frequencies --   1275.4759              1289.4356              1312.3789
 Red. masses --      1.8454                 1.4909                 1.3483
 Frc consts  --      1.7689                 1.4605                 1.3682
 IR Inten    --    119.8793                65.1394                 2.3382

                     70                     71                     72
                      A                      A                      A
 Frequencies --   1319.2026              1331.4668              1336.3721
 Red. masses --      1.6815                 6.8544                 1.2518
 Frc consts  --      1.7242                 7.1594                 1.3172
 IR Inten    --     66.2937                 8.8866                 2.7942

                     73                     74                     75
                      A                      A                      A
 Frequencies --   1341.6141              1366.1044              1383.3381
 Red. masses --      1.2420                 1.6958                 1.3440
 Frc consts  --      1.3172                 1.8646                 1.5153
 IR Inten    --     19.7288                 7.6046                 0.8907

                     76                     77                     78
                      A                      A                      A
 Frequencies --   1391.7727              1403.3027              1406.6935
 Red. masses --      1.6628                 1.2588                 1.4094
 Frc consts  --      1.8976                 1.4605                 1.6432
 IR Inten    --     13.4304                 4.2240                 8.4915

                     79                     80                     81
                      A                      A                      A
 Frequencies --   1413.9917              1418.8523              1433.7778
 Red. masses --      1.4228                 1.3285                 1.4777
 Frc consts  --      1.6761                 1.5758                 1.7898
 IR Inten    --     13.3882                 9.4830                16.1316

                     82                     83                     84
                      A                      A                      A
 Frequencies --   1441.6052              1447.5730              1485.1312
 Red. masses --      1.3223                 1.5618                 1.8006
 Frc consts  --      1.6191                 1.9282                 2.3399
 IR Inten    --     54.6101                44.5046                 2.4936

                     85                     86                     87
                      A                      A                      A
 Frequencies --   1489.4782              1497.0136              1500.7812
 Red. masses --      1.2228                 1.0917                 1.1070
 Frc consts  --      1.5984                 1.4414                 1.4690
 IR Inten    --      9.1628                 3.4150                21.7733

                     88                     89                     90
                      A                      A                      A
 Frequencies --   1507.1963              1510.4035              1518.7108
 Red. masses --      1.1038                 1.0962                 1.1118
 Frc consts  --      1.4774                 1.4734                 1.5108
 IR Inten    --      9.2918                 8.5228                11.5101

                     91                     92                     93
                      A                      A                      A
 Frequencies --   1520.1978              1523.6680              1540.0957
 Red. masses --      1.2642                 1.7855                 1.0775
 Frc consts  --      1.7214                 2.4422                 1.5058
 IR Inten    --     37.4648                28.6297                 3.3400

                     94                     95                     96
                      A                      A                      A
 Frequencies --   1623.8514              1644.9147              1748.2017
 Red. masses --      5.8013                 5.7219                10.1001
 Frc consts  --      9.0130                 9.1217                18.1868
 IR Inten    --      3.0711                 5.9341               275.1058

                     97                     98                     99
                      A                      A                      A
 Frequencies --   3016.1897              3040.1483              3042.8023
 Red. masses --      1.0691                 1.0679                 1.0757
 Frc consts  --      5.7306                 5.8150                 5.8679
 IR Inten    --     33.6450                31.0928                 4.7654

                    100                    101                    102
                      A                      A                      A
 Frequencies --   3056.7476              3062.2231              3065.3367
 Red. masses --      1.0627                 1.0689                 1.0560
 Frc consts  --      5.8502                 5.9058                 5.8460
 IR Inten    --     41.3691                21.5084                62.5779

                    103                    104                    105
                      A                      A                      A
 Frequencies --   3066.8702              3073.4011              3081.8091
 Red. masses --      1.0602                 1.0668                 1.0805
 Frc consts  --      5.8754                 5.9368                 6.0460
 IR Inten    --     21.4061                27.7425                30.8351

                    106                    107                    108
                      A                      A                      A
 Frequencies --   3104.3863              3108.4141              3109.4976
 Red. masses --      1.0956                 1.0974                 1.0986
 Frc consts  --      6.2211                 6.2476                 6.2588
 IR Inten    --     42.9831                10.7475                15.1354

                    109                    110                    111
                      A                      A                      A
 Frequencies --   3122.2690              3122.8198              3144.9260
 Red. masses --      1.1023                 1.1027                 1.0933
 Frc consts  --      6.3315                 6.3356                 6.3713
 IR Inten    --     32.8468                20.3972                11.2149

                    112                    113                    114
                      A                      A                      A
 Frequencies --   3148.2643              3183.8437              3192.5110
 Red. masses --      1.1000                 1.0962                 1.0857
 Frc consts  --      6.4236                 6.5468                 6.5198
 IR Inten    --      5.6144                14.3051                 0.2355

                    115                    116                    117
                      A                      A                      A
 Frequencies --   3201.6413              3211.6178              3219.4873
 Red. masses --      1.0897                 1.0934                 1.0975
 Frc consts  --      6.5812                 6.6445                 6.7022
 IR Inten    --      9.8197                11.7198                15.9578

 - Thermochemistry -
 -------------------
 Temperature   298.150 Kelvin.  Pressure   1.00000 Atm.
 Atom     1 has atomic number  6 and mass  12.00000

 Molecular mass:   291.12930 amu.
 Principal axes and moments of inertia in atomic units:
                           1         2         3
     Eigenvalues --  3664.267417508.559058438.84270
           X            1.00000   0.00013  -0.00051
           Y           -0.00013   0.99999  -0.00523
           Z            0.00051   0.00523   0.99999
 This molecule is an asymmetric top.
 Rotational symmetry number  1.
 Warning -- assumption of classical behavior for rotation
           may cause significant error
 Rotational temperatures (Kelvin)      0.02364     0.01154     0.01026
 Rotational constants (GHZ):           0.49252     0.24036     0.21386
 Zero-point vibrational energy     922033.3 (Joules/Mol)
                                  220.37126 (Kcal/Mol)
 Warning -- explicit consideration of  28 degrees of freedom as
           vibrations may cause significant error
 Vibrational temperatures:     25.24    67.96    92.50   105.15   138.15
          (Kelvin)            164.29   181.00   228.94   310.17   327.46
                              345.31   357.74   389.30   417.78   451.71
                              469.57   504.82   520.10   545.70   612.49
                              622.88   655.44   670.89   715.63   734.79
                              757.30   793.26   851.57   895.13   939.30
                              976.06  1022.33  1059.98  1092.70  1098.01
                             1122.68  1151.95  1207.01  1238.41  1257.54
                             1268.80  1285.94  1295.14  1346.31  1373.64
                             1383.68  1400.77  1427.55  1444.37  1497.01
                             1528.64  1535.34  1551.31  1553.81  1577.19
                             1582.62  1594.04  1629.59  1655.01  1662.43
                             1694.50  1719.25  1729.14  1788.60  1792.04
                             1819.52  1835.13  1855.21  1888.22  1898.04
                             1915.68  1922.74  1930.28  1965.52  1990.31
                             2002.45  2019.04  2023.92  2034.42  2041.41
                             2062.89  2074.15  2082.73  2136.77  2143.03
                             2153.87  2159.29  2168.52  2173.13  2185.09
                             2187.23  2192.22  2215.85  2336.36  2366.67
                             2515.27  4339.62  4374.10  4377.91  4397.98
                             4405.86  4410.34  4412.54  4421.94  4434.04
                             4466.52  4472.31  4473.87  4492.25  4493.04
                             4524.85  4529.65  4580.84  4593.31  4606.45
                             4620.80  4632.12

 Zero-point correction=                           0.351184 (Hartree/Particle)
 Thermal correction to Energy=                    0.369091
 Thermal correction to Enthalpy=                  0.370035
 Thermal correction to Gibbs Free Energy=         0.304765
 Sum of electronic and zero-point Energies=          -1225.488849
 Sum of electronic and thermal Energies=             -1225.470943
 Sum of electronic and thermal Enthalpies=           -1225.469999
 Sum of electronic and thermal Free Energies=        -1225.535269

                     E (Thermal)             CV                S
                      KCal/Mol        Cal/Mol-Kelvin    Cal/Mol-Kelvin
 Total                  231.608             71.345            137.372
 Electronic               0.000              0.000              0.000
 Translational            0.889              2.981             42.903
 Rotational               0.889              2.981             33.806
 Vibrational            229.830             65.383             60.663
 Vibration     1          0.593              1.986              6.895
 Vibration     2          0.595              1.979              4.930
 Vibration     3          0.597              1.971              4.321
 Vibration     4          0.599              1.967              4.069
 Vibration     5          0.603              1.952              3.534
 Vibration     6          0.607              1.938              3.196
 Vibration     7          0.611              1.927              3.009
 Vibration     8          0.621              1.892              2.560
 Vibration     9          0.645              1.817              1.996
 Vibration    10          0.651              1.799              1.898
 Vibration    11          0.657              1.779              1.803
 Vibration    12          0.662              1.765              1.740
 Vibration    13          0.674              1.727              1.593
 Vibration    14          0.686              1.692              1.472
 Vibration    15          0.702              1.647              1.341
 Vibration    16          0.710              1.623              1.278
 Vibration    17          0.728              1.573              1.162
 Vibration    18          0.736              1.552              1.116
 Vibration    19          0.749              1.514              1.042
 Vibration    20          0.788              1.414              0.873
 Vibration    21          0.794              1.398              0.849
 Vibration    22          0.814              1.349              0.779
 Vibration    23          0.824              1.325              0.748
 Vibration    24          0.853              1.256              0.665
 Vibration    25          0.866              1.226              0.632
 Vibration    26          0.881              1.192              0.595
 Vibration    27          0.907              1.137              0.541
 Vibration    28          0.949              1.049              0.464

 Optimization completed.
    -- Stationary point found.
 Normal termination of Gaussian 16 at Sat Dec 12 16:58:13 2020.

 ----------------------------------------------------------------------
 # B3LYP/6-311++G(d,p) empiricaldispersion=gd3bj scf=xqc pop=npa geom=c
 heck
 ----------------------------------------------------------------------

 ----------------------------------------
 CID_127749659_JID_10750_Energie_neutraal
 ----------------------------------------
 Structure from the checkpoint file:  "JID_10750.chk"
 Charge =  0 Multiplicity = 1

 SCF Done:  E(RB3LYP) =  -1226.08763494     A.U. after   16 cycles
 Normal termination of Gaussian 16 at Sat Dec 12 17:08:42 2020.

 ----------------------------------------------------------------------
 # B3LYP/6-311++G(d,p) empiricaldispersion=gd3bj scf=xqc pop=npa geom=c
 heck
 ----------------------------------------------------------------------

 --------------------------------------
 CID_127749659_JID_10750_Energie_kation
 --------------------------------------
 Structure from the checkpoint file:  "JID_10750.chk"
 Charge =  1 Multiplicity = 2

 SCF Done:  E(UB3LYP) =  -1225.79245208     A.U. after   33 cycles
 SCF Done:  E(UB3LYP) =  -1225.79245208     a.u. after    2 cycles
 Normal termination of Gaussian 16 at Sat Dec 12 17:59:58 2020.
 Gaussian 16:  ES64L-G16RevA.03 25-Dec-2016

 ----------------------------------------------------------------------
 # B3LYP/6-311++G(d,p) empiricaldispersion=gd3bj scf=xqc pop=npa geom=c
 heck
 ----------------------------------------------------------------------

 -------------------------------------
 CID_127749659_JID_10750_Energie_anion
 -------------------------------------
 Structure from the checkpoint file:  "JID_10750.chk"
 Charge = -1 Multiplicity = 2

                         Standard orientation:
 ---------------------------------------------------------------------
 Center     Atomic      Atomic             Coordinates (Angstroms)
 Number     Number       Type             X           Y           Z
 ---------------------------------------------------------------------
      1          6           0       -4.299380    0.838079   -0.252763
      2          6           0       -3.909764   -0.596438    0.106240
      3          6           0       -2.843850   -1.264208   -0.794876
      4          6           0       -1.366648   -1.002053   -0.426089
      5          6           0       -1.193911   -1.046390    1.110245
      6          6           0       -2.268474   -0.216018    1.800210
      7          8           0       -3.564722   -0.708925    1.494024
      8          6           0       -0.829732    0.296130   -1.028471
      9          8           0       -1.563342    1.180557   -1.460196
     10          7           0        0.545394    0.461227   -1.082478
     11          6           0        1.047643    1.736462   -1.611601
     12          6           0        1.156485    2.829465   -0.548009
     13          6           0        2.238760    2.574116    0.497519
     14         16           0        1.965960    1.127304    1.602102
     15          6           0        2.257493   -0.269831    0.529134
     16          6           0        3.203528   -1.223927    0.925692
     17          6           0        3.400059   -2.386026    0.181693
     18          6           0        2.670162   -2.595229   -0.988508
     19          6           0        1.739011   -1.644063   -1.400834
     20          6           0        1.503302   -0.495375   -0.639426
     21          1           0       -3.459046    1.528466   -0.188259
     22          1           0       -5.098566    1.167916    0.419617
     23          1           0       -4.668298    0.880797   -1.283513
     24          1           0       -4.815487   -1.208503    0.021734
     25          1           0       -2.990377   -2.347905   -0.711711
     26          1           0       -3.026173   -0.989247   -1.838322
     27          1           0       -0.772482   -1.819809   -0.845430
     28          1           0       -0.202207   -0.701794    1.410455
     29          1           0       -1.299085   -2.087406    1.438215
     30          1           0       -2.168388    0.845012    1.524731
     31          1           0       -2.172193   -0.286505    2.887856
     32          1           0        0.353030    2.053621   -2.390844
     33          1           0        2.023851    1.541107   -2.067927
     34          1           0        0.180824    2.948962   -0.066291
     35          1           0        1.388700    3.778158   -1.051982
     36          1           0        3.223333    2.463237    0.030503
     37          1           0        2.299011    3.414945    1.196139
     38          1           0        3.782522   -1.043919    1.825758
     39          1           0        4.134104   -3.116978    0.507512
     40          1           0        2.833062   -3.487051   -1.586082
     41          1           0        1.177148   -1.779795   -2.320014
 ---------------------------------------------------------------------

 SCF Done:  E(UB3LYP) =  -1226.07818335     A.U. after   33 cycles
 SCF Done:  E(UB3LYP) =  -1226.08328818     a.u. after   13 cycles

 The electronic state is 2-A.
 Alpha  occ. eigenvalues --  -88.72292 -19.01869 -18.97708 -14.22907 -10.15734
 Alpha  occ. eigenvalues --  -10.12181 -10.10928 -10.09255 -10.08088 -10.08066
 Alpha  occ. eigenvalues --  -10.07833 -10.07234 -10.06906 -10.06346 -10.06161
 Alpha  occ. eigenvalues --  -10.06013 -10.05972 -10.05362 -10.04949 -10.04861
 Alpha  occ. eigenvalues --   -7.80835  -5.77222  -5.76861  -5.76243  -0.93384
 Alpha  occ. eigenvalues --   -0.92996  -0.82956  -0.73570  -0.70802  -0.69502
 Alpha  occ. eigenvalues --   -0.67892  -0.65572  -0.62981  -0.60736  -0.59762
 Alpha  occ. eigenvalues --   -0.56237  -0.54251  -0.52723  -0.50838  -0.49371
 Alpha  occ. eigenvalues --   -0.46118  -0.45281  -0.43123  -0.40695  -0.39188
 Alpha  occ. eigenvalues --   -0.37969  -0.36740  -0.36472  -0.35472  -0.35236
 Alpha  occ. eigenvalues --   -0.34497  -0.33065  -0.32677  -0.32303  -0.31392
 Alpha  occ. eigenvalues --   -0.30876  -0.30466  -0.29437  -0.28404  -0.27980
 Alpha  occ. eigenvalues --   -0.27504  -0.27019  -0.25906  -0.25635  -0.24841
 Alpha  occ. eigenvalues --   -0.24579  -0.24321  -0.23484  -0.22743  -0.22218
 Alpha  occ. eigenvalues --   -0.19914  -0.19425  -0.16156  -0.15421  -0.14733
 Alpha  occ. eigenvalues --   -0.14424  -0.12605  -0.10701   0.04689
 Alpha virt. eigenvalues --    0.06683   0.07472   0.07871   0.08760   0.08896
 Alpha virt. eigenvalues --    0.09275   0.09705   0.09808   0.10055   0.10511
 Alpha virt. eigenvalues --    0.11032   0.11426   0.11803   0.12088   0.12190

  Beta  occ. eigenvalues --  -88.72288 -19.01869 -18.97677 -14.22944 -10.15670
  Beta  occ. eigenvalues --  -10.12180 -10.10929 -10.09226 -10.07930 -10.07839
  Beta  occ. eigenvalues --  -10.07795 -10.07034 -10.06897 -10.06335 -10.06154
  Beta  occ. eigenvalues --  -10.06088 -10.06023 -10.05361 -10.04765 -10.04686
  Beta  occ. eigenvalues --   -7.80830  -5.77198  -5.76868  -5.76237  -0.93360
  Beta  occ. eigenvalues --   -0.92940  -0.82800  -0.73291  -0.70757  -0.69359
  Beta  occ. eigenvalues --   -0.67883  -0.65264  -0.62758  -0.60657  -0.59583
  Beta  occ. eigenvalues --   -0.56106  -0.54106  -0.52674  -0.50677  -0.49236
  Beta  occ. eigenvalues --   -0.45920  -0.45238  -0.42935  -0.40655  -0.39141
  Beta  occ. eigenvalues --   -0.37880  -0.36703  -0.36364  -0.35357  -0.35178
  Beta  occ. eigenvalues --   -0.34397  -0.32972  -0.32587  -0.32224  -0.31325
  Beta  occ. eigenvalues --   -0.30823  -0.30398  -0.29367  -0.28344  -0.27706
  Beta  occ. eigenvalues --   -0.27403  -0.26856  -0.25749  -0.25495  -0.24752
  Beta  occ. eigenvalues --   -0.24457  -0.24227  -0.23374  -0.22438  -0.22174
  Beta  occ. eigenvalues --   -0.19635  -0.19382  -0.15823  -0.15198  -0.14371
  Beta  occ. eigenvalues --   -0.14156  -0.12041  -0.10225
  Beta virt. eigenvalues --    0.06829   0.07628   0.07742   0.08685   0.08993
  Beta virt. eigenvalues --    0.09317   0.09413   0.09721   0.10088   0.10309
  Beta virt. eigenvalues --    0.10695   0.11119   0.11433   0.11834   0.12163

 Mulliken charges and spin densities:
               1          2
     1  C   -0.477044  -0.036800
     2  C   -0.103474  -0.120131
     3  C   -0.153213  -0.276251
     4  C    0.606847   0.242218
     5  C   -0.271003  -0.039653
     6  C   -0.491291   0.049173
     7  O   -0.100005   0.002083
     8  C   -0.611849  -0.231903
     9  O   -0.254846   0.015265
    10  N    0.371642  -0.021534
    11  C    0.080425  -0.093431
    12  C   -0.174198   0.178955
    13  C    0.336597  -1.140773
    14  S   -0.181032   0.229819
    15  C   -0.263942   0.277803
    16  C    0.136188  -0.033536
    17  C   -0.272928  -0.052240
    18  C   -0.381121   0.067162
    19  C    0.290062   0.020711
    20  C   -0.653858   0.075077
    21  H    0.206568  -0.001623
    22  H    0.140478  -0.000983
    23  H    0.110194   0.006098
    24  H    0.148234   0.028640
    25  H   -0.023249   0.187572
    26  H    0.103153   0.073698
    27  H    0.114604   0.096016
    28  H    0.112413   0.021124
    29  H    0.132113   0.048338
    30  H    0.152019  -0.001080
    31  H    0.187295  -0.000338
    32  H    0.225357  -0.015379
    33  H    0.087895   0.042125
    34  H    0.125719   0.006668
    35  H   -0.190872   0.346334
    36  H    0.100947   0.089446
    37  H   -0.489789   0.726613
    38  H    0.163895   0.005760
    39  H    0.113859  -0.006513
    40  H   -0.003738   0.134166
    41  H    0.050946   0.101299
 Sum of Mulliken charges =  -1.00000   1.00000

 Dipole moment (field-independent basis, Debye):
    X=             -2.5106    Y=             -2.1355    Z=             -1.4021  Tot=              3.5818
 Quadrupole moment (field-independent basis, Debye-Ang):
   XX=           -179.5296   YY=           -175.6409   ZZ=           -150.0863
   XY=             -7.4638   XZ=             -1.1255   YZ=             -4.3670

 Summary of Natural Population Analysis:

                                       Natural Population
                Natural  -----------------------------------------------
    Atom  No    Charge         Core      Valence    Rydberg      Total
 -----------------------------------------------------------------------
      C    1   -0.29943      0.99964     2.29533    0.00446     3.29943
      C    2    0.06620      0.99956     1.91825    0.01600     2.93380
      C    3   -0.19980      0.99960     2.18894    0.01126     3.19980
      C    4   -0.15357      0.99954     2.14397    0.01006     3.15357
      C    5   -0.20364      0.99961     2.19416    0.00987     3.20364
      C    6   -0.01315      0.99958     2.00100    0.01257     3.01315
      O    7   -0.30805      0.99989     3.29947    0.00869     4.30805
      C    8    0.36502      0.99961     1.61141    0.02396     2.63498
      O    9   -0.33560      0.99988     3.33033    0.00539     4.33560
      N   10   -0.26257      0.99961     2.75105    0.01191     3.76257
      C   11   -0.08013      0.99960     2.06960    0.01094     3.08013
      C   12   -0.20240      0.99960     2.19291    0.00989     3.20240
      C   13   -0.23707      0.99958     2.22524    0.01225     3.23707
      S   14    0.10453      4.99955     2.87711    0.01881     7.89547
      C   15   -0.06403      0.99935     2.05216    0.01252     3.06403
      C   16   -0.11097      0.99951     2.10066    0.01080     3.11097
      C   17   -0.07873      0.99956     2.06875    0.01041     3.07873
      C   18   -0.07358      0.99957     2.06401    0.01000     3.07358
      C   19   -0.11999      0.99951     2.11074    0.00975     3.11999
      C   20    0.10975      0.99938     1.87899    0.01188     2.89025
      H   21    0.11366      0.00000     0.38545    0.00089     0.38634
      H   22    0.09348      0.00000     0.40554    0.00098     0.40652
      H   23    0.09827      0.00000     0.40089    0.00084     0.40173
      H   24    0.08489      0.00000     0.41398    0.00112     0.41511
      H   25    0.09892      0.00000     0.40012    0.00096     0.40108
      H   26    0.10688      0.00000     0.39220    0.00092     0.39312
      H   27    0.11747      0.00000     0.38048    0.00205     0.38253
      H   28    0.11726      0.00000     0.38134    0.00140     0.38274
      H   29    0.09741      0.00000     0.40149    0.00110     0.40259
      H   30    0.08278      0.00000     0.41619    0.00103     0.41722
      H   31    0.08897      0.00000     0.41015    0.00089     0.41103
      H   32    0.10795      0.00000     0.39103    0.00102     0.39205
      H   33    0.09447      0.00000     0.40460    0.00093     0.40553
      H   34    0.10501      0.00000     0.39373    0.00126     0.39499
      H   35    0.09817      0.00000     0.40055    0.00128     0.40183
      H   36    0.09807      0.00000     0.40069    0.00124     0.40193
      H   37    0.10719      0.00000     0.39066    0.00216     0.39281
      H   38    0.10025      0.00000     0.39882    0.00093     0.39975
      H   39    0.09225      0.00000     0.40683    0.00092     0.40775
      H   40    0.09389      0.00000     0.40533    0.00078     0.40611
      H   41    0.09996      0.00000     0.39913    0.00091     0.40004
 =======================================================================
   * Total *   -0.00000     23.99172    53.75326    0.25502    78.00000

 Normal termination of Gaussian 16 at Sat Dec 12 22:19:35 2020.
