 Gaussian 16, Revision A.03,

 -----------------------------------------------------------
 # opt freq B3LYP/6-31G(d) empiricaldispersion=gd3bj scf=xqc
 -----------------------------------------------------------

 ------------------------------
 CID_80581052_JID_5127_neutraal
 ------------------------------
 Symbolic Z-matrix:
 Charge =  0 Multiplicity = 1

 SCF Done:  E(RB3LYP) =  -690.032137023     A.U. after   14 cycles
 SCF Done:  E(RB3LYP) =  -690.037600422     A.U. after   13 cycles
 SCF Done:  E(RB3LYP) =  -690.037929558     A.U. after   12 cycles
 SCF Done:  E(RB3LYP) =  -690.035795518     A.U. after   13 cycles
 SCF Done:  E(RB3LYP) =  -690.038763431     A.U. after   12 cycles
 SCF Done:  E(RB3LYP) =  -690.038956448     A.U. after   11 cycles
 SCF Done:  E(RB3LYP) =  -690.039111391     A.U. after   12 cycles
 SCF Done:  E(RB3LYP) =  -690.039214865     A.U. after   12 cycles
 SCF Done:  E(RB3LYP) =  -690.039279538     A.U. after   11 cycles
 SCF Done:  E(RB3LYP) =  -690.039339727     A.U. after   12 cycles
 SCF Done:  E(RB3LYP) =  -690.040363620     A.U. after    9 cycles
 SCF Done:  E(RB3LYP) =  -690.040364010     A.U. after    8 cycles
 SCF Done:  E(RB3LYP) =  -690.040364087     A.U. after    7 cycles
 SCF Done:  E(RB3LYP) =  -690.040364130     A.U. after    6 cycles
 SCF Done:  E(RB3LYP) =  -690.040364152     A.U. after    7 cycles
 Optimization completed.
    -- Stationary point found.
 Normal termination of Gaussian 16 at Thu Dec 10 15:01:33 2020.

 --------------------------------------------------------------------
 #N Geom=AllCheck Guess=TCheck SCRF=Check GenChk RB3LYP/6-31G(d) Freq
 --------------------------------------------------------------------

 Structure from the checkpoint file:  "JID_5127.chk"
 ------------------------------
 CID_80581052_JID_5127_neutraal
 ------------------------------
 Charge =  0 Multiplicity = 1

 SCF Done:  E(RB3LYP) =  -690.040364152     A.U. after    1 cycles

  Exact polarizability: 153.000  -6.065 123.181   7.905   9.036 106.978
 Approx polarizability: 198.807 -15.475 193.258  12.131  30.152 166.363

                      1                      2                      3
                      A                      A                      A
 Frequencies --     22.6350                38.5347                42.3906
 Red. masses --      3.9452                 3.1468                 3.4633
 Frc consts  --      0.0012                 0.0028                 0.0037
 IR Inten    --      2.2494                 0.3138                 1.5768

                      4                      5                      6
                      A                      A                      A
 Frequencies --     49.7867                93.5983               112.4041
 Red. masses --      2.8764                 5.6474                 5.1701
 Frc consts  --      0.0042                 0.0291                 0.0385
 IR Inten    --      0.6022                11.9072                 1.3507

                      7                      8                      9
                      A                      A                      A
 Frequencies --    185.2542               200.9604               205.0825
 Red. masses --      3.2355                 1.6858                 2.2455
 Frc consts  --      0.0654                 0.0401                 0.0556
 IR Inten    --      2.1860                 0.3255                 1.3923

                     10                     11                     12
                      A                      A                      A
 Frequencies --    229.2507               236.2173               266.8010
 Red. masses --      1.3710                 1.7507                 1.2281
 Frc consts  --      0.0425                 0.0576                 0.0515
 IR Inten    --      0.5098                 4.8483                 0.5553

                     13                     14                     15
                      A                      A                      A
 Frequencies --    288.4011               290.0726               310.2573
 Red. masses --      3.6405                 2.4406                 1.2276
 Frc consts  --      0.1784                 0.1210                 0.0696
 IR Inten    --      1.0137                 3.3699                 0.1878

                     16                     17                     18
                      A                      A                      A
 Frequencies --    320.0975               356.8107               366.1302
 Red. masses --      2.2518                 2.3125                 2.5762
 Frc consts  --      0.1359                 0.1735                 0.2035
 IR Inten    --      7.5904                 3.9642                 2.9023

                     19                     20                     21
                      A                      A                      A
 Frequencies --    379.8280               406.2433               458.1485
 Red. masses --      2.3245                 3.5287                 2.4650
 Frc consts  --      0.1976                 0.3431                 0.3048
 IR Inten    --      0.4561                 3.0222                 1.5531

                     22                     23                     24
                      A                      A                      A
 Frequencies --    547.2795               562.9063               586.7722
 Red. masses --      3.9297                 3.7101                 4.9814
 Frc consts  --      0.6935                 0.6926                 1.0105
 IR Inten    --      4.9403                 6.3793                 4.8873

                     25                     26                     27
                      A                      A                      A
 Frequencies --    599.3650               647.7652               670.3318
 Red. masses --      4.5959                 1.2680                 3.2631
 Frc consts  --      0.9728                 0.3135                 0.8639
 IR Inten    --      2.4071                54.2680                13.0744

                     28                     29                     30
                      A                      A                      A
 Frequencies --    746.9593               754.9933               780.6819
 Red. masses --      6.8465                 3.2830                 1.2092
 Frc consts  --      2.2507                 1.1026                 0.4342
 IR Inten    --      3.3877                21.5429                 2.6895

                     31                     32                     33
                      A                      A                      A
 Frequencies --    792.5821               808.7688               841.1196
 Red. masses --      2.5884                 2.0354                 3.0955
 Frc consts  --      0.9580                 0.7844                 1.2903
 IR Inten    --      1.5818                 5.3970                 1.4188

                     34                     35                     36
                      A                      A                      A
 Frequencies --    855.7270               951.0747               956.2795
 Red. masses --      3.3400                 1.7972                 2.1946
 Frc consts  --      1.4410                 0.9578                 1.1825
 IR Inten    --      8.9411                 1.2643                 1.1525

                     37                     38                     39
                      A                      A                      A
 Frequencies --    962.4152               966.9159               983.8234
 Red. masses --      2.1112                 1.7596                 1.2050
 Frc consts  --      1.1522                 0.9693                 0.6872
 IR Inten    --     16.4862                 5.8788                 0.1904

                     40                     41                     42
                      A                      A                      A
 Frequencies --   1050.4096              1053.9138              1066.0726
 Red. masses --      1.8059                 1.8146                 1.7595
 Frc consts  --      1.1739                 1.1875                 1.1782
 IR Inten    --     21.6604                 5.7342                 3.4766

                     43                     44                     45
                      A                      A                      A
 Frequencies --   1089.6286              1106.5339              1123.0033
 Red. masses --      1.5696                 2.1747                 1.8840
 Frc consts  --      1.0980                 1.5689                 1.3999
 IR Inten    --      1.5472                 8.1152                34.1994

                     46                     47                     48
                      A                      A                      A
 Frequencies --   1130.7354              1204.2106              1235.9482
 Red. masses --      1.5286                 1.8821                 2.5493
 Frc consts  --      1.1515                 1.6080                 2.2944
 IR Inten    --     12.1191                28.6177                 1.8319

                     49                     50                     51
                      A                      A                      A
 Frequencies --   1253.2337              1261.7065              1277.2038
 Red. masses --      1.7073                 2.7842                 2.0532
 Frc consts  --      1.5799                 2.6114                 1.9734
 IR Inten    --     67.8197                 3.6105                29.6073

                     52                     53                     54
                      A                      A                      A
 Frequencies --   1316.6667              1347.8813              1359.7957
 Red. masses --      3.1162                 1.5139                 4.1506
 Frc consts  --      3.1829                 1.6205                 4.5218
 IR Inten    --      6.6532                13.1801                 1.2753

                     55                     56                     57
                      A                      A                      A
 Frequencies --   1397.3323              1406.2051              1415.6684
 Red. masses --      1.6623                 1.5032                 1.6523
 Frc consts  --      1.9123                 1.7514                 1.9510
 IR Inten    --      4.7171                27.6079                21.8328

                     58                     59                     60
                      A                      A                      A
 Frequencies --   1429.3656              1434.9147              1437.6839
 Red. masses --      1.2365                 1.2179                 1.2845
 Frc consts  --      1.4885                 1.4774                 1.5643
 IR Inten    --      4.8616                 2.8495                23.1981

                     61                     62                     63
                      A                      A                      A
 Frequencies --   1462.6519              1478.1595              1506.9666
 Red. masses --      1.2317                 2.5388                 1.0834
 Frc consts  --      1.5525                 3.2683                 1.4495
 IR Inten    --     10.1514               135.6800                11.5948

                     64                     65                     66
                      A                      A                      A
 Frequencies --   1511.6858              1513.2643              1515.4639
 Red. masses --      1.0785                 1.1095                 1.0993
 Frc consts  --      1.4521                 1.4970                 1.4875
 IR Inten    --     11.6427                17.8418                14.7471

                     67                     68                     69
                      A                      A                      A
 Frequencies --   1520.9023              1522.5216              1534.0411
 Red. masses --      1.0493                 1.0474                 1.0507
 Frc consts  --      1.4300                 1.4305                 1.4568
 IR Inten    --      9.2524                 1.1348                 6.6583

                     70                     71                     72
                      A                      A                      A
 Frequencies --   1535.4020              1542.7092              1556.0359
 Red. masses --      1.0568                 1.0566                 1.0632
 Frc consts  --      1.4678                 1.4815                 1.5167
 IR Inten    --      5.2734                13.8547                31.3160

                     73                     74                     75
                      A                      A                      A
 Frequencies --   1638.3853              1789.7271              1796.4040
 Red. masses --      5.1713                11.2678                11.6039
 Frc consts  --      8.1787                21.2649                22.0630
 IR Inten    --      0.4488               413.7360                60.1611

                     76                     77                     78
                      A                      A                      A
 Frequencies --   3047.7790              3050.6855              3056.5754
 Red. masses --      1.0357                 1.0351                 1.0352
 Frc consts  --      5.6681                 5.6759                 5.6985
 IR Inten    --     19.2170                14.5830                19.4159

                     79                     80                     81
                      A                      A                      A
 Frequencies --   3061.0800              3076.1412              3077.1287
 Red. masses --      1.0363                 1.0657                 1.0626
 Frc consts  --      5.7212                 5.9413                 5.9281
 IR Inten    --     26.4298                37.9568                28.7190

                     82                     83                     84
                      A                      A                      A
 Frequencies --   3112.0357              3117.7655              3119.0643
 Red. masses --      1.1025                 1.1027                 1.1034
 Frc consts  --      6.2911                 6.3151                 6.3247
 IR Inten    --     20.6718                13.2473                 9.1661

                     85                     86                     87
                      A                      A                      A
 Frequencies --   3126.7811              3129.6990              3131.9088
 Red. masses --      1.1024                 1.1017                 1.1013
 Frc consts  --      6.3503                 6.3577                 6.3645
 IR Inten    --     27.3721                35.3029                30.3858

                     88                     89                     90
                      A                      A                      A
 Frequencies --   3139.5561              3139.6472              3146.1746
 Red. masses --      1.1021                 1.1025                 1.1051
 Frc consts  --      6.4007                 6.4030                 6.4449
 IR Inten    --      4.8061                25.8157                21.6873

                     91                     92                     93
                      A                      A                      A
 Frequencies --   3164.1315              3292.8761              3319.8383
 Red. masses --      1.0983                 1.0923                 1.1058
 Frc consts  --      6.4788                 6.9780                 7.1809
 IR Inten    --      2.7036                 4.4386                 3.3405

 - Thermochemistry -
 -------------------
 Temperature   298.150 Kelvin.  Pressure   1.00000 Atm.
 Atom     1 has atomic number  6 and mass  12.00000

 Molecular mass:   210.13683 amu.
 Principal axes and moments of inertia in atomic units:
                           1         2         3
     Eigenvalues --  1685.769424827.099005287.57015
           X            0.99990   0.00809   0.01151
           Y           -0.00754   0.99883  -0.04777
           Z           -0.01189   0.04768   0.99879
 This molecule is an asymmetric top.
 Rotational symmetry number  1.
 Warning -- assumption of classical behavior for rotation
           may cause significant error
 Rotational temperatures (Kelvin)      0.05138     0.01794     0.01638
 Rotational constants (GHZ):           1.07057     0.37388     0.34132
 Zero-point vibrational energy     747701.7 (Joules/Mol)
                                  178.70500 (Kcal/Mol)
 Warning -- explicit consideration of  25 degrees of freedom as
           vibrations may cause significant error
 Vibrational temperatures:     32.57    55.44    60.99    71.63   134.67
          (Kelvin)            161.72   266.54   289.14   295.07   329.84
                              339.86   383.87   414.94   417.35   446.39
                              460.55   513.37   526.78   546.49   584.49
                              659.17   787.41   809.90   844.23   862.35
                              931.99   964.46  1074.71  1086.27  1123.23
                             1140.35  1163.64  1210.18  1231.20  1368.38
                             1375.87  1384.70  1391.18  1415.50  1511.31
                             1516.35  1533.84  1567.73  1592.06  1615.75
                             1626.88  1732.59  1778.25  1803.12  1815.31
                             1837.61  1894.39  1939.30  1956.44  2010.45
                             2023.22  2036.83  2056.54  2064.52  2068.51
                             2104.43  2126.74  2168.19  2174.98  2177.25
                             2180.41  2188.24  2190.57  2207.14  2209.10
                             2219.61  2238.79  2357.27  2575.02  2584.62
                             4385.07  4389.26  4397.73  4404.21  4425.88
                             4427.30  4477.53  4485.77  4487.64  4498.74
                             4502.94  4506.12  4517.12  4517.25  4526.64
                             4552.48  4737.71  4776.51

 Zero-point correction=                           0.284785 (Hartree/Particle)
 Thermal correction to Energy=                    0.301071
 Thermal correction to Enthalpy=                  0.302015
 Thermal correction to Gibbs Free Energy=         0.239928
 Sum of electronic and zero-point Energies=           -689.755580
 Sum of electronic and thermal Energies=              -689.739293
 Sum of electronic and thermal Enthalpies=            -689.738349
 Sum of electronic and thermal Free Energies=         -689.800436

                     E (Thermal)             CV                S
                      KCal/Mol        Cal/Mol-Kelvin    Cal/Mol-Kelvin
 Total                  188.925             60.434            130.673
 Electronic               0.000              0.000              0.000
 Translational            0.889              2.981             41.932
 Rotational               0.889              2.981             32.131
 Vibrational            187.147             54.473             56.610
 Vibration     1          0.593              1.985              6.388
 Vibration     2          0.594              1.981              5.333
 Vibration     3          0.595              1.980              5.144
 Vibration     4          0.595              1.978              4.826
 Vibration     5          0.603              1.954              3.583
 Vibration     6          0.607              1.939              3.227
 Vibration     7          0.631              1.860              2.275
 Vibration     8          0.638              1.839              2.124
 Vibration     9          0.640              1.833              2.087
 Vibration    10          0.652              1.796              1.885
 Vibration    11          0.655              1.785              1.831
 Vibration    12          0.672              1.734              1.617
 Vibration    13          0.685              1.695              1.483
 Vibration    14          0.686              1.692              1.474
 Vibration    15          0.699              1.654              1.361
 Vibration    16          0.706              1.635              1.310
 Vibration    17          0.732              1.561              1.136
 Vibration    18          0.739              1.542              1.096
 Vibration    19          0.750              1.513              1.040
 Vibration    20          0.771              1.457              0.940
 Vibration    21          0.816              1.343              0.772
 Vibration    22          0.902              1.146              0.550
 Vibration    23          0.919              1.112              0.518
 Vibration    24          0.944              1.060              0.473
 Vibration    25          0.957              1.033              0.451

                           ! Non-Optimized Parameters !
 Normal termination of Gaussian 16 at Thu Dec 10 15:11:57 2020.

 ----------------------------------------------------------------------
 # B3LYP/6-311++G(d,p) empiricaldispersion=gd3bj scf=xqc pop=npa geom=c
 heck
 ----------------------------------------------------------------------

 --------------------------------------
 CID_80581052_JID_5127_Energie_neutraal
 --------------------------------------
 Structure from the checkpoint file:  "JID_5127.chk"
 Charge =  0 Multiplicity = 1

 SCF Done:  E(RB3LYP) =  -690.236603446     A.U. after   14 cycles
 Normal termination of Gaussian 16 at Thu Dec 10 15:16:10 2020.

 ----------------------------------------------------------------------
 # B3LYP/6-311++G(d,p) empiricaldispersion=gd3bj scf=xqc pop=npa geom=c
 heck
 ----------------------------------------------------------------------

 ------------------------------------
 CID_80581052_JID_5127_Energie_kation
 ------------------------------------
 Structure from the checkpoint file:  "JID_5127.chk"
 Charge =  1 Multiplicity = 2

 SCF Done:  E(UB3LYP) =  -689.958209552     A.U. after   21 cycles
 Normal termination of Gaussian 16 at Thu Dec 10 15:23:49 2020.
 Gaussian 16:  ES64L-G16RevA.03 25-Dec-2016

 ----------------------------------------------------------------------
 # B3LYP/6-311++G(d,p) empiricaldispersion=gd3bj scf=xqc pop=npa geom=c
 heck
 ----------------------------------------------------------------------

 -----------------------------------
 CID_80581052_JID_5127_Energie_anion
 -----------------------------------
 Structure from the checkpoint file:  "JID_5127.chk"
 Charge = -1 Multiplicity = 2

                         Standard orientation:
 ---------------------------------------------------------------------
 Center     Atomic      Atomic             Coordinates (Angstroms)
 Number     Number       Type             X           Y           Z
 ---------------------------------------------------------------------
      1          6           0        3.478541   -1.622735    1.068093
      2          6           0        3.679936   -0.494607    0.056178
      3          7           0        2.507129    0.357068   -0.059278
      4          6           0        2.201556    1.487556    0.702553
      5          6           0        0.946749    1.876632    0.383678
      6          7           0        0.465427    0.976803   -0.570861
      7          6           0        1.420670    0.002067   -0.841562
      8          8           0        1.314757   -0.967296   -1.593592
      9          6           0       -0.856265    0.955471   -1.164849
     10          6           0       -1.911685    0.780755   -0.056689
     11          8           0       -2.229888    1.762591    0.589684
     12          6           0       -2.478019   -0.613177    0.219898
     13          6           0       -3.255932   -1.083017   -1.029816
     14          6           0       -1.316145   -1.590580    0.503803
     15          6           0       -3.421758   -0.547552    1.426766
     16          1           0        3.266998   -1.221685    2.065270
     17          1           0        4.375607   -2.248619    1.129540
     18          1           0        2.637967   -2.251287    0.759242
     19          1           0        4.528906    0.140178    0.330012
     20          1           0        3.872221   -0.907164   -0.937789
     21          1           0        2.918600    1.921890    1.381294
     22          1           0        0.341333    2.695502    0.735893
     23          1           0       -1.057100    1.903779   -1.674233
     24          1           0       -0.846627    0.143607   -1.892823
     25          1           0       -2.609817   -1.177985   -1.908256
     26          1           0       -3.692590   -2.068744   -0.834925
     27          1           0       -4.073379   -0.394583   -1.272396
     28          1           0       -0.739263   -1.268829    1.378387
     29          1           0       -1.728886   -2.582620    0.720358
     30          1           0       -0.629187   -1.688372   -0.341742
     31          1           0       -2.891950   -0.206070    2.320849
     32          1           0       -4.247319    0.147358    1.247668
     33          1           0       -3.838257   -1.540696    1.627589
 ---------------------------------------------------------------------

 SCF Done:  E(UB3LYP) =  -690.226517439     A.U. after   33 cycles
 SCF Done:  E(UB3LYP) =  -690.226517439     a.u. after    1 cycles

 The electronic state is 2-A.
 Alpha  occ. eigenvalues --  -18.97719 -18.97190 -14.24950 -14.24883 -10.17599
 Alpha  occ. eigenvalues --  -10.11316 -10.10597 -10.10025 -10.09555 -10.09389
 Alpha  occ. eigenvalues --  -10.08348 -10.06922 -10.05747 -10.05740 -10.05271
 Alpha  occ. eigenvalues --   -0.94987  -0.91627  -0.87409  -0.81825  -0.71648
 Alpha  occ. eigenvalues --   -0.68477  -0.63139  -0.61488  -0.59167  -0.58269
 Alpha  occ. eigenvalues --   -0.54569  -0.51789  -0.49716  -0.45705  -0.42126
 Alpha  occ. eigenvalues --   -0.40477  -0.37864  -0.37051  -0.36369  -0.35588
 Alpha  occ. eigenvalues --   -0.34490  -0.34077  -0.33621  -0.32080  -0.31372
 Alpha  occ. eigenvalues --   -0.31180  -0.29767  -0.29512  -0.28653  -0.28201
 Alpha  occ. eigenvalues --   -0.27328  -0.26857  -0.25696  -0.25149  -0.24742
 Alpha  occ. eigenvalues --   -0.23226  -0.22777  -0.22118  -0.18052  -0.16436
 Alpha  occ. eigenvalues --   -0.12714  -0.09316   0.04778
 Alpha virt. eigenvalues --    0.06464   0.07207   0.08104   0.08708   0.09241
 Alpha virt. eigenvalues --    0.09589   0.10075   0.11043   0.11132   0.11746
 Alpha virt. eigenvalues --    0.12125   0.12374   0.12944   0.13252   0.14032

  Beta  occ. eigenvalues --  -18.97400 -18.97176 -14.24904 -14.24885 -10.17582
  Beta  occ. eigenvalues --  -10.10962 -10.10573 -10.10047 -10.09532 -10.09386
  Beta  occ. eigenvalues --  -10.08376 -10.06898 -10.05738 -10.05711 -10.05232
  Beta  occ. eigenvalues --   -0.94949  -0.91014  -0.87380  -0.81768  -0.71529
  Beta  occ. eigenvalues --   -0.68415  -0.63086  -0.61354  -0.59110  -0.58230
  Beta  occ. eigenvalues --   -0.54464  -0.51540  -0.49538  -0.45629  -0.41996
  Beta  occ. eigenvalues --   -0.40279  -0.37734  -0.36977  -0.36235  -0.35368
  Beta  occ. eigenvalues --   -0.34437  -0.33966  -0.33511  -0.32034  -0.31189
  Beta  occ. eigenvalues --   -0.31132  -0.29703  -0.29390  -0.28570  -0.28129
  Beta  occ. eigenvalues --   -0.27267  -0.26830  -0.25163  -0.24946  -0.24303
  Beta  occ. eigenvalues --   -0.23178  -0.22240  -0.21812  -0.17975  -0.16413
  Beta  occ. eigenvalues --   -0.12503  -0.09243
  Beta virt. eigenvalues --    0.07029   0.07724   0.08532   0.08908   0.09103
  Beta virt. eigenvalues --    0.09673   0.09821   0.10859   0.11154   0.11450
  Beta virt. eigenvalues --    0.11816   0.12298   0.12617   0.13056   0.13282

 Mulliken charges and spin densities:
               1          2
     1  C    1.201876  -1.617005
     2  C   -0.589770   0.469267
     3  N    0.116197   0.022931
     4  C   -0.760498   0.497189
     5  C    1.425490  -1.425313
     6  N    0.055917   0.080094
     7  C    0.046103  -0.407952
     8  O   -0.399381   0.027017
     9  C   -0.427610  -0.074853
    10  C    0.024005   0.121971
    11  O   -0.315792   0.110694
    12  C    0.718839   0.124291
    13  C   -0.636398   0.019544
    14  C   -0.570396  -0.165543
    15  C   -0.427474  -0.057716
    16  H   -0.222132   0.367264
    17  H   -0.471438   0.612163
    18  H    0.041785   0.128675
    19  H   -0.505784   0.667185
    20  H    0.018365   0.138682
    21  H   -0.914808   1.076981
    22  H    0.201923  -0.026016
    23  H    0.049485   0.157241
    24  H    0.226209  -0.037327
    25  H    0.128792   0.002018
    26  H    0.125959   0.003064
    27  H    0.146413   0.000298
    28  H    0.214228  -0.058446
    29  H   -0.015430   0.158304
    30  H    0.137666   0.030384
    31  H    0.128155   0.031963
    32  H    0.135841   0.019991
    33  H    0.113665   0.002960
 Sum of Mulliken charges =  -1.00000   1.00000

 Dipole moment (field-independent basis, Debye):
    X=             -7.2991    Y=             -0.5017    Z=             -2.8697  Tot=              7.8590
 Quadrupole moment (field-independent basis, Debye-Ang):
   XX=           -167.2766   YY=           -126.6719   ZZ=           -122.1123
   XY=              9.0180   XZ=             -9.1426   YZ=             -3.9510

 Summary of Natural Population Analysis:

                                       Natural Population
                Natural  -----------------------------------------------
    Atom  No    Charge         Core      Valence    Rydberg      Total
 -----------------------------------------------------------------------
      C    1   -0.28983      0.99966     2.28519    0.00498     3.28983
      C    2   -0.08225      0.99963     2.07102    0.01161     3.08225
      N    3   -0.23963      0.99964     2.72841    0.01159     3.73963
      C    4   -0.02458      0.99954     2.01328    0.01176     3.02458
      C    5   -0.02653      0.99955     2.01521    0.01178     3.02653
      N    6   -0.23218      0.99963     2.72227    0.01028     3.73218
      C    7    0.39659      0.99963     1.58023    0.02354     2.60341
      O    8   -0.35343      0.99988     3.34870    0.00486     4.35343
      C    9   -0.12878      0.99958     2.11727    0.01192     3.12878
      C   10    0.33926      0.99961     1.63807    0.02307     2.66074
      O   11   -0.27111      0.99988     3.26444    0.00680     4.27111
      C   12   -0.08580      0.99955     2.07765    0.00860     3.08580
      C   13   -0.27772      0.99963     2.27301    0.00508     3.27772
      C   14   -0.28816      0.99963     2.28121    0.00732     3.28816
      C   15   -0.28183      0.99964     2.27526    0.00693     3.28183
      H   16    0.10004      0.00000     0.39837    0.00158     0.39996
      H   17    0.10039      0.00000     0.39800    0.00162     0.39961
      H   18    0.10365      0.00000     0.39513    0.00122     0.39635
      H   19    0.09824      0.00000     0.39950    0.00227     0.40176
      H   20    0.10459      0.00000     0.39429    0.00112     0.39541
      H   21    0.10764      0.00000     0.39046    0.00191     0.39236
      H   22    0.11369      0.00000     0.38516    0.00115     0.38631
      H   23    0.10235      0.00000     0.39578    0.00186     0.39765
      H   24    0.11213      0.00000     0.38675    0.00112     0.38787
      H   25    0.10003      0.00000     0.39923    0.00074     0.39997
      H   26    0.09649      0.00000     0.40265    0.00086     0.40351
      H   27    0.09762      0.00000     0.40162    0.00076     0.40238
      H   28    0.10235      0.00000     0.39670    0.00095     0.39765
      H   29    0.09485      0.00000     0.40430    0.00084     0.40515
      H   30    0.11381      0.00000     0.38503    0.00116     0.38619
      H   31    0.10521      0.00000     0.39392    0.00087     0.39479
      H   32    0.10212      0.00000     0.39696    0.00092     0.39788
      H   33    0.09081      0.00000     0.40826    0.00093     0.40919
 =======================================================================
   * Total *    0.00000     14.99468    41.82332    0.18200    57.00000

 Normal termination of Gaussian 16 at Thu Dec 10 15:36:19 2020.
