 Gaussian 16, Revision A.03,

 -----------------------------------------------------------
 # opt freq B3LYP/6-31G(d) empiricaldispersion=gd3bj scf=xqc
 -----------------------------------------------------------

 ------------------------------
 CID_13066218_JID_5589_neutraal
 ------------------------------
 Symbolic Z-matrix:
 Charge =  0 Multiplicity = 1

 SCF Done:  E(RB3LYP) =  -685.092472371     A.U. after   16 cycles
 SCF Done:  E(RB3LYP) =  -685.097955202     A.U. after   14 cycles
 SCF Done:  E(RB3LYP) =  -685.089467754     A.U. after   16 cycles
 SCF Done:  E(RB3LYP) =  -685.100245989     A.U. after   14 cycles
 SCF Done:  E(RB3LYP) =  -685.100936598     A.U. after   14 cycles
 SCF Done:  E(RB3LYP) =  -685.101116276     A.U. after   13 cycles
 SCF Done:  E(RB3LYP) =  -685.101135939     A.U. after   12 cycles
 SCF Done:  E(RB3LYP) =  -685.101141107     A.U. after   10 cycles
 SCF Done:  E(RB3LYP) =  -685.101142940     A.U. after   10 cycles
 SCF Done:  E(RB3LYP) =  -685.101143104     A.U. after    8 cycles
 Optimization completed.
    -- Stationary point found.
 Normal termination of Gaussian 16 at Thu Dec 10 16:29:40 2020.

 --------------------------------------------------------------------
 #N Geom=AllCheck Guess=TCheck SCRF=Check GenChk RB3LYP/6-31G(d) Freq
 --------------------------------------------------------------------

 Structure from the checkpoint file:  "JID_5589.chk"
 ------------------------------
 CID_13066218_JID_5589_neutraal
 ------------------------------
 Charge =  0 Multiplicity = 1

 SCF Done:  E(RB3LYP) =  -685.101143104     A.U. after    1 cycles

  Exact polarizability: 204.279  -7.984 163.569   2.004   0.369  54.584
 Approx polarizability: 325.826 -16.364 316.138   5.529  -6.982  89.992

                      1                      2                      3
                      A                      A                      A
 Frequencies --     53.4094                61.6832               115.9092
 Red. masses --      7.4989                 6.7911                 3.0922
 Frc consts  --      0.0126                 0.0152                 0.0245
 IR Inten    --      0.3005                 0.7284                 2.0501

                      4                      5                      6
                      A                      A                      A
 Frequencies --    157.6960               182.4887               203.8389
 Red. masses --      3.4373                 3.8576                 4.2195
 Frc consts  --      0.0504                 0.0757                 0.1033
 IR Inten    --      0.8097                 0.2824                 1.6145

                      7                      8                      9
                      A                      A                      A
 Frequencies --    242.1669               259.2490               293.3658
 Red. masses --      1.6684                 5.7876                 1.8325
 Frc consts  --      0.0576                 0.2292                 0.0929
 IR Inten    --      3.6532                 2.7222                 1.3754

                     10                     11                     12
                      A                      A                      A
 Frequencies --    319.0540               375.1949               398.2442
 Red. masses --      3.8955                 6.4117                 4.9959
 Frc consts  --      0.2336                 0.5318                 0.4668
 IR Inten    --     11.0948                 3.0461                20.6756

                     13                     14                     15
                      A                      A                      A
 Frequencies --    471.4746               479.3795               484.3689
 Red. masses --      3.8567                 3.6473                 3.6452
 Frc consts  --      0.5051                 0.4938                 0.5039
 IR Inten    --      9.4327                56.9109                 7.3669

                     16                     17                     18
                      A                      A                      A
 Frequencies --    514.1957               558.6881               587.5320
 Red. masses --      3.0660                 5.1702                 3.4614
 Frc consts  --      0.4776                 0.9508                 0.7040
 IR Inten    --     42.7995                11.8424                13.0649

                     19                     20                     21
                      A                      A                      A
 Frequencies --    600.3691               659.7671               680.6667
 Red. masses --      5.0185                 4.0558                 3.8255
 Frc consts  --      1.0658                 1.0402                 1.0443
 IR Inten    --      2.7923                 0.4055                27.4622

                     22                     23                     24
                      A                      A                      A
 Frequencies --    742.0277               763.9402               785.6157
 Red. masses --      1.5720                 5.6812                 5.6149
 Frc consts  --      0.5100                 1.9535                 2.0418
 IR Inten    --      2.1646                 7.5523                32.0985

                     25                     26                     27
                      A                      A                      A
 Frequencies --    800.2417               804.3169               842.2427
 Red. masses --      1.6551                 3.0227                 3.2995
 Frc consts  --      0.6245                 1.1521                 1.3790
 IR Inten    --     53.5531                20.8396                 0.8949

                     28                     29                     30
                      A                      A                      A
 Frequencies --    875.0184               880.6413               906.9367
 Red. masses --      3.4271                 1.5961                 6.2553
 Frc consts  --      1.5460                 0.7293                 3.0315
 IR Inten    --      4.9621                 0.7693                20.2205

                     31                     32                     33
                      A                      A                      A
 Frequencies --    945.5215               977.2959               982.5081
 Red. masses --      1.4166                 1.3063                 1.2880
 Frc consts  --      0.7462                 0.7351                 0.7326
 IR Inten    --      0.7114                 1.8037                 1.2280

                     34                     35                     36
                      A                      A                      A
 Frequencies --   1073.8728              1108.0643              1123.1336
 Red. masses --      4.1452                 2.2027                 1.8353
 Frc consts  --      2.8165                 1.5934                 1.3640
 IR Inten    --      7.1702                 8.4891                 4.4794

                     37                     38                     39
                      A                      A                      A
 Frequencies --   1154.3736              1172.0689              1190.1165
 Red. masses --      1.4501                 1.8300                 1.8267
 Frc consts  --      1.1385                 1.4812                 1.5244
 IR Inten    --      9.6099                33.8420                26.1976

                     40                     41                     42
                      A                      A                      A
 Frequencies --   1208.1025              1227.8211              1232.0367
 Red. masses --      1.3244                 1.5105                 1.6388
 Frc consts  --      1.1389                 1.3417                 1.4657
 IR Inten    --      4.6054                 2.2356                 7.8425

                     43                     44                     45
                      A                      A                      A
 Frequencies --   1272.1104              1327.6555              1374.7562
 Red. masses --      2.1861                 2.4516                 8.9796
 Frc consts  --      2.0844                 2.5460                 9.9990
 IR Inten    --     10.2346               124.9612               332.6672

                     46                     47                     48
                      A                      A                      A
 Frequencies --   1384.2808              1403.4809              1449.4348
 Red. masses --      2.6900                 7.9333                 2.3282
 Frc consts  --      3.0370                 9.2070                 2.8818
 IR Inten    --      5.0679                72.6763                72.6378

                     49                     50                     51
                      A                      A                      A
 Frequencies --   1463.3549              1490.0258              1507.4277
 Red. masses --      2.2939                 1.3015                 1.8976
 Frc consts  --      2.8942                 1.7025                 2.5405
 IR Inten    --      9.1968                 3.0452                14.8270

                     52                     53                     54
                      A                      A                      A
 Frequencies --   1514.5454              1530.6426              1554.0615
 Red. masses --      1.1195                 1.5767                 1.1740
 Frc consts  --      1.5130                 2.1765                 1.6705
 IR Inten    --     27.8815                15.6517                49.5220

                     55                     56                     57
                      A                      A                      A
 Frequencies --   1580.7099              1618.9281              1633.9685
 Red. masses --      2.8811                 9.5547                 6.2959
 Frc consts  --      4.2414                14.7545                 9.9037
 IR Inten    --     48.8997               179.3369               134.2418

                     58                     59                     60
                      A                      A                      A
 Frequencies --   1658.3664              1681.6409              3000.5983
 Red. masses --      5.2087                 6.5355                 1.0543
 Frc consts  --      8.4400                10.8892                 5.5928
 IR Inten    --     24.5452                42.9429                82.5220

                     61                     62                     63
                      A                      A                      A
 Frequencies --   3094.2480              3144.5700              3195.4806
 Red. masses --      1.0828                 1.1018                 1.0893
 Frc consts  --      6.1079                 6.4192                 6.5534
 IR Inten    --     34.3490                20.2072                16.4258

                     64                     65                     66
                      A                      A                      A
 Frequencies --   3205.1103              3221.6743              3230.8803
 Red. masses --      1.0864                 1.0942                 1.0911
 Frc consts  --      6.5756                 6.6915                 6.7104
 IR Inten    --      2.2374                16.4952                15.8824

                     67                     68                     69
                      A                      A                      A
 Frequencies --   3252.4654              3286.0407              3599.4149
 Red. masses --      1.0924                 1.0916                 1.0753
 Frc consts  --      6.8088                 6.9447                 8.2078
 IR Inten    --      0.7031                 2.9556                 8.6473

 - Thermochemistry -
 -------------------
 Temperature   298.150 Kelvin.  Pressure   1.00000 Atm.
 Atom     1 has atomic number  6 and mass  12.00000

 Molecular mass:   202.07423 amu.
 Principal axes and moments of inertia in atomic units:
                           1         2         3
     Eigenvalues --  1401.319934373.831905694.52988
           X            0.99997  -0.00797   0.00242
           Y            0.00795   0.99995   0.00629
           Z           -0.00247  -0.00627   0.99998
 This molecule is an asymmetric top.
 Rotational symmetry number  1.
 Warning -- assumption of classical behavior for rotation
           may cause significant error
 Rotational temperatures (Kelvin)      0.06181     0.01980     0.01521
 Rotational constants (GHZ):           1.28789     0.41262     0.31693
 Zero-point vibrational energy     515414.1 (Joules/Mol)
                                  123.18693 (Kcal/Mol)
 Warning -- explicit consideration of  19 degrees of freedom as
           vibrations may cause significant error
 Vibrational temperatures:     76.84    88.75   166.77   226.89   262.56
          (Kelvin)            293.28   348.42   373.00   422.09   459.05
                              539.82   572.98   678.35   689.72   696.90
                              739.81   803.83   845.33   863.80   949.26
                              979.33  1067.61  1099.14  1130.33  1151.37
                             1157.23  1211.80  1258.96  1267.05  1304.88
                             1360.39  1406.11  1413.61  1545.06  1594.26
                             1615.94  1660.89  1686.35  1712.31  1738.19
                             1766.56  1772.63  1830.28  1910.20  1977.97
                             1991.67  2019.30  2085.41  2105.44  2143.81
                             2168.85  2179.09  2202.25  2235.95  2274.29
                             2329.28  2350.92  2386.02  2419.51  4317.19
                             4451.93  4524.33  4597.58  4611.44  4635.27
                             4648.52  4679.57  4727.88  5178.76

 Zero-point correction=                           0.196311 (Hartree/Particle)
 Thermal correction to Energy=                    0.208457
 Thermal correction to Enthalpy=                  0.209401
 Thermal correction to Gibbs Free Energy=         0.157679
 Sum of electronic and zero-point Energies=           -684.904832
 Sum of electronic and thermal Energies=              -684.892686
 Sum of electronic and thermal Enthalpies=            -684.891742
 Sum of electronic and thermal Free Energies=         -684.943464

                     E (Thermal)             CV                S
                      KCal/Mol        Cal/Mol-Kelvin    Cal/Mol-Kelvin
 Total                  130.809             47.657            108.858
 Electronic               0.000              0.000              0.000
 Translational            0.889              2.981             41.815
 Rotational               0.889              2.981             31.923
 Vibrational            129.031             41.695             35.119
 Vibration     1          0.596              1.976              4.687
 Vibration     2          0.597              1.973              4.403
 Vibration     3          0.608              1.936              3.167
 Vibration     4          0.621              1.894              2.577
 Vibration     5          0.630              1.864              2.303
 Vibration     6          0.640              1.834              2.098
 Vibration     7          0.658              1.776              1.787
 Vibration     8          0.668              1.747              1.667
 Vibration     9          0.688              1.686              1.454
 Vibration    10          0.705              1.637              1.315
 Vibration    11          0.746              1.523              1.058
 Vibration    12          0.765              1.474              0.969
 Vibration    13          0.828              1.313              0.733
 Vibration    14          0.836              1.296              0.712
 Vibration    15          0.840              1.285              0.698
 Vibration    16          0.869              1.219              0.624
 Vibration    17          0.914              1.121              0.526
 Vibration    18          0.945              1.058              0.472
 Vibration    19          0.959              1.031              0.449

                           ! Non-Optimized Parameters !
 Normal termination of Gaussian 16 at Thu Dec 10 16:37:54 2020.

 ----------------------------------------------------------------------
 # B3LYP/6-311++G(d,p) empiricaldispersion=gd3bj scf=xqc pop=npa geom=c
 heck
 ----------------------------------------------------------------------

 --------------------------------------
 CID_13066218_JID_5589_Energie_neutraal
 --------------------------------------
 Structure from the checkpoint file:  "JID_5589.chk"
 Charge =  0 Multiplicity = 1

 SCF Done:  E(RB3LYP) =  -685.288542673     A.U. after   16 cycles
 Normal termination of Gaussian 16 at Thu Dec 10 16:41:37 2020.

 ----------------------------------------------------------------------
 # B3LYP/6-311++G(d,p) empiricaldispersion=gd3bj scf=xqc pop=npa geom=c
 heck
 ----------------------------------------------------------------------

 ------------------------------------
 CID_13066218_JID_5589_Energie_kation
 ------------------------------------
 Structure from the checkpoint file:  "JID_5589.chk"
 Charge =  1 Multiplicity = 2

 SCF Done:  E(UB3LYP) =  -685.009006659     A.U. after   24 cycles
 Normal termination of Gaussian 16 at Thu Dec 10 16:47:22 2020.
 Gaussian 16:  ES64L-G16RevA.03 25-Dec-2016

 ----------------------------------------------------------------------
 # B3LYP/6-311++G(d,p) empiricaldispersion=gd3bj scf=xqc pop=npa geom=c
 heck
 ----------------------------------------------------------------------

 -----------------------------------
 CID_13066218_JID_5589_Energie_anion
 -----------------------------------
 Structure from the checkpoint file:  "JID_5589.chk"
 Charge = -1 Multiplicity = 2

                         Standard orientation:
 ---------------------------------------------------------------------
 Center     Atomic      Atomic             Coordinates (Angstroms)
 Number     Number       Type             X           Y           Z
 ---------------------------------------------------------------------
      1          6           0        4.483268    0.149474    0.125259
      2          7           0        3.152189    0.721686    0.039948
      3          6           0        2.034006   -0.104083   -0.027561
      4          6           0        2.142137   -1.480639   -0.145776
      5          6           0        0.987208   -2.282321   -0.215295
      6          6           0       -0.278924   -1.751279   -0.131835
      7          6           0       -0.444720   -0.345820   -0.025409
      8          6           0        0.722854    0.498171   -0.018789
      9          6           0        0.571086    1.904815   -0.032191
     10          6           0       -0.672013    2.500600   -0.017266
     11          6           0       -1.823848    1.701342    0.011302
     12          6           0       -1.706716    0.326827    0.016869
     13          7           0       -2.979508   -0.408964    0.072123
     14          8           0       -3.980324    0.154352   -0.375585
     15          8           0       -2.994971   -1.528894    0.586194
     16          1           0        4.709107   -0.409595   -0.788618
     17          1           0        4.614829   -0.528782    0.983627
     18          1           0        5.206760    0.963974    0.208350
     19          1           0        3.027332    1.528842    0.635281
     20          1           0        3.116276   -1.953802   -0.168434
     21          1           0        1.104941   -3.358158   -0.309946
     22          1           0       -1.144627   -2.394425   -0.149784
     23          1           0        1.451524    2.534338   -0.101367
     24          1           0       -0.765709    3.581351   -0.037435
     25          1           0       -2.812863    2.141004    0.023116
 ---------------------------------------------------------------------

 SCF Done:  E(UB3LYP) =  -685.328164864     A.U. after   23 cycles

 The electronic state is 2-A.
 Alpha  occ. eigenvalues --  -18.95391 -18.95345 -14.33473 -14.21725 -10.11018
 Alpha  occ. eigenvalues --  -10.08777 -10.06205 -10.05508 -10.05381 -10.04352
 Alpha  occ. eigenvalues --  -10.04195 -10.04049 -10.03265 -10.03017 -10.02746
 Alpha  occ. eigenvalues --   -1.03309  -0.86056  -0.83044  -0.73919  -0.69237
 Alpha  occ. eigenvalues --   -0.65373  -0.61777  -0.61165  -0.57495  -0.53484
 Alpha  occ. eigenvalues --   -0.49049  -0.48375  -0.44371  -0.41002  -0.38966
 Alpha  occ. eigenvalues --   -0.37397  -0.36695  -0.35809  -0.35187  -0.33999
 Alpha  occ. eigenvalues --   -0.32996  -0.32258  -0.30473  -0.29850  -0.28548
 Alpha  occ. eigenvalues --   -0.27185  -0.26454  -0.25147  -0.22313  -0.21427
 Alpha  occ. eigenvalues --   -0.20954  -0.18452  -0.14084  -0.13599  -0.12901
 Alpha  occ. eigenvalues --   -0.11996  -0.10401  -0.07695   0.02180
 Alpha virt. eigenvalues --    0.06415   0.08324   0.09394   0.09969   0.10462
 Alpha virt. eigenvalues --    0.10572   0.11011   0.11485   0.12807   0.13345
 Alpha virt. eigenvalues --    0.14030   0.15011   0.15670   0.16057   0.16780

  Beta  occ. eigenvalues --  -18.94989 -18.94965 -14.32982 -14.21709 -10.11018
  Beta  occ. eigenvalues --  -10.08647 -10.06080 -10.05476 -10.05436 -10.04387
  Beta  occ. eigenvalues --  -10.04103 -10.04091 -10.02951 -10.02830 -10.02736
  Beta  occ. eigenvalues --   -1.02465  -0.85314  -0.82968  -0.73702  -0.68988
  Beta  occ. eigenvalues --   -0.64985  -0.61543  -0.60892  -0.57438  -0.52648
  Beta  occ. eigenvalues --   -0.48903  -0.48201  -0.44131  -0.40697  -0.38779
  Beta  occ. eigenvalues --   -0.37109  -0.36502  -0.35057  -0.34884  -0.32682
  Beta  occ. eigenvalues --   -0.32427  -0.32048  -0.30316  -0.29674  -0.28405
  Beta  occ. eigenvalues --   -0.27044  -0.26012  -0.25008  -0.22143  -0.21221
  Beta  occ. eigenvalues --   -0.20383  -0.17983  -0.12750  -0.12545  -0.11607
  Beta  occ. eigenvalues --   -0.11143  -0.09895  -0.07009
  Beta virt. eigenvalues --    0.06388   0.07793   0.08435   0.09363   0.10287
  Beta virt. eigenvalues --    0.10553   0.11158   0.11473   0.12564   0.12869
  Beta virt. eigenvalues --    0.13379   0.14044   0.15002   0.15741   0.16665

 Mulliken charges and spin densities:
               1          2
     1  C   -0.359518  -0.000550
     2  N   -0.023262   0.005964
     3  C   -0.126247   0.070397
     4  C   -0.153201  -0.025646
     5  C   -0.672591   0.079567
     6  C   -0.280742  -0.002924
     7  C    1.119065   0.016861
     8  C    1.014954  -0.055287
     9  C   -0.511220   0.252471
    10  C   -0.527084  -0.025028
    11  C   -0.297721   0.195554
    12  C   -1.064584   0.038231
    13  N   -0.186560   0.164637
    14  O   -0.161143   0.143745
    15  O   -0.166490   0.151129
    16  H    0.142338   0.000665
    17  H    0.127543   0.000954
    18  H    0.126017   0.000119
    19  H    0.203127   0.015632
    20  H    0.101070   0.001833
    21  H    0.125753  -0.005789
    22  H    0.187521   0.001761
    23  H    0.067517  -0.021609
    24  H    0.117280   0.001408
    25  H    0.198178  -0.004095
 Sum of Mulliken charges =  -1.00000   1.00000

 Dipole moment (field-independent basis, Debye):
    X=             10.1622    Y=              1.9826    Z=              0.4034  Tot=             10.3616
 Quadrupole moment (field-independent basis, Debye-Ang):
   XX=           -133.6450   YY=            -99.5858   ZZ=            -97.7373
   XY=             -4.8832   XZ=              2.3073   YZ=              3.8460

 Summary of Natural Population Analysis:

                                       Natural Population
                Natural  -----------------------------------------------
    Atom  No    Charge         Core      Valence    Rydberg      Total
 -----------------------------------------------------------------------
      C    1   -0.17316      0.99960     2.16677    0.00678     3.17316
      N    2   -0.31409      0.99965     2.80317    0.01127     3.81409
      C    3    0.11401      0.99948     1.87516    0.01135     2.88599
      C    4   -0.15373      0.99945     2.14492    0.00937     3.15373
      C    5   -0.08371      0.99960     2.07405    0.01006     3.08371
      C    6   -0.10821      0.99954     2.09930    0.00937     3.10821
      C    7   -0.01260      0.99947     2.00440    0.00873     3.01260
      C    8   -0.05373      0.99948     2.04616    0.00809     3.05373
      C    9   -0.04045      0.99954     2.03149    0.00942     3.04045
      C   10   -0.11867      0.99957     2.10978    0.00932     3.11867
      C   11   -0.05803      0.99953     2.04930    0.00920     3.05803
      C   12    0.06894      0.99937     1.91856    0.01313     2.93106
      N   13    0.28799      0.99972     2.18321    0.02907     3.21201
      O   14   -0.19863      0.99990     3.19359    0.00514     4.19863
      O   15   -0.19310      0.99990     3.18789    0.00531     4.19310
      H   16    0.09062      0.00000     0.40734    0.00205     0.40938
      H   17    0.07983      0.00000     0.41708    0.00309     0.42017
      H   18    0.09059      0.00000     0.40827    0.00114     0.40941
      H   19    0.18520      0.00000     0.31317    0.00163     0.31480
      H   20    0.09304      0.00000     0.40564    0.00132     0.40696
      H   21    0.09006      0.00000     0.40884    0.00110     0.40994
      H   22    0.11684      0.00000     0.38180    0.00136     0.38316
      H   23    0.08975      0.00000     0.40923    0.00101     0.41025
      H   24    0.09162      0.00000     0.40729    0.00109     0.40838
      H   25    0.11020      0.00000     0.38865    0.00115     0.38980
 =======================================================================
   * Total *    0.00060     14.99380    37.83507    0.17054    52.99940

 Normal termination of Gaussian 16 at Thu Dec 10 16:52:28 2020.
