 Gaussian 16, Revision A.03,

 -----------------------------------------------------------
 # opt freq B3LYP/6-31G(d) empiricaldispersion=gd3bj scf=xqc
 -----------------------------------------------------------

 -------------------------------
 CID_79529206_JID_10168_neutraal
 -------------------------------
 Symbolic Z-matrix:
 Charge =  0 Multiplicity = 1

 SCF Done:  E(RB3LYP) =  -911.404168964     A.U. after   15 cycles
 SCF Done:  E(RB3LYP) =  -911.411726742     A.U. after   13 cycles
 SCF Done:  E(RB3LYP) =  -911.412867790     A.U. after   12 cycles
 SCF Done:  E(RB3LYP) =  -911.413970425     A.U. after   12 cycles
 SCF Done:  E(RB3LYP) =  -911.414815215     A.U. after   12 cycles
 SCF Done:  E(RB3LYP) =  -911.415178786     A.U. after   12 cycles
 SCF Done:  E(RB3LYP) =  -911.415626474     A.U. after   11 cycles
 SCF Done:  E(RB3LYP) =  -911.415877999     A.U. after   11 cycles
 SCF Done:  E(RB3LYP) =  -911.415920908     A.U. after   11 cycles
 SCF Done:  E(RB3LYP) =  -911.415960821     A.U. after   11 cycles
 SCF Done:  E(RB3LYP) =  -911.416849026     A.U. after    8 cycles
 SCF Done:  E(RB3LYP) =  -911.416849175     A.U. after    7 cycles
 SCF Done:  E(RB3LYP) =  -911.416849308     A.U. after    8 cycles
 SCF Done:  E(RB3LYP) =  -911.416849351     A.U. after    7 cycles
 SCF Done:  E(RB3LYP) =  -911.416849369     A.U. after    6 cycles
 Optimization completed.
    -- Stationary point found.
 Normal termination of Gaussian 16 at Sun Dec 13 16:54:15 2020.

 --------------------------------------------------------------------
 #N Geom=AllCheck Guess=TCheck SCRF=Check GenChk RB3LYP/6-31G(d) Freq
 --------------------------------------------------------------------

 Structure from the checkpoint file:  "JID_10168.chk"
 -------------------------------
 CID_79529206_JID_10168_neutraal
 -------------------------------
 Charge =  0 Multiplicity = 1

 SCF Done:  E(RB3LYP) =  -911.416849369     A.U. after    1 cycles

  Exact polarizability: 241.204   7.269 183.529   5.131   1.860 111.306
 Approx polarizability: 328.432  -0.440 318.304   5.430   3.608 184.918

                      1                      2                      3
                      A                      A                      A
 Frequencies --     19.7028                27.9745                41.7967
 Red. masses --      5.0612                 4.6260                 6.1050
 Frc consts  --      0.0012                 0.0021                 0.0063
 IR Inten    --      1.1952                 0.5656                 2.3908

                      4                      5                      6
                      A                      A                      A
 Frequencies --     59.3813                65.0326                74.7335
 Red. masses --      1.1507                 6.6498                 3.6704
 Frc consts  --      0.0024                 0.0166                 0.0121
 IR Inten    --      0.1121                 1.4746                 0.3438

                      7                      8                      9
                      A                      A                      A
 Frequencies --    122.8910               129.1408               158.3758
 Red. masses --      1.9017                 1.7112                 4.8535
 Frc consts  --      0.0169                 0.0168                 0.0717
 IR Inten    --     24.2149                28.7221                 0.2815

                     10                     11                     12
                      A                      A                      A
 Frequencies --    174.3730               196.5820               245.9075
 Red. masses --      4.7089                 5.7764                 3.7987
 Frc consts  --      0.0844                 0.1315                 0.1353
 IR Inten    --      0.1873                 1.1488                 1.7972

                     13                     14                     15
                      A                      A                      A
 Frequencies --    277.2968               286.2516               298.0475
 Red. masses --      5.4373                 5.0455                 3.4913
 Frc consts  --      0.2463                 0.2436                 0.1827
 IR Inten    --      3.4619                 5.4797                 2.0329

                     16                     17                     18
                      A                      A                      A
 Frequencies --    323.6603               346.4505               380.6123
 Red. masses --      3.1907                 4.4457                 3.9432
 Frc consts  --      0.1969                 0.3144                 0.3366
 IR Inten    --      5.8299                 3.8913                 1.2160

                     19                     20                     21
                      A                      A                      A
 Frequencies --    430.4440               438.6039               443.0415
 Red. masses --      4.0749                 2.8658                 1.6978
 Frc consts  --      0.4448                 0.3248                 0.1964
 IR Inten    --      0.4884                 6.0268                57.6940

                     22                     23                     24
                      A                      A                      A
 Frequencies --    483.0181               525.0530               543.3547
 Red. masses --      2.9762                 2.3565                 3.4111
 Frc consts  --      0.4091                 0.3828                 0.5933
 IR Inten    --      7.3321                30.3840                13.0434

                     25                     26                     27
                      A                      A                      A
 Frequencies --    570.9509               597.5762               621.9382
 Red. masses --      2.0313                 3.2786                 5.3901
 Frc consts  --      0.3901                 0.6898                 1.2284
 IR Inten    --     46.1257                 4.0565                18.8147

                     28                     29                     30
                      A                      A                      A
 Frequencies --    646.1051               655.0471               665.8811
 Red. masses --      4.7638                 5.1402                 2.7147
 Frc consts  --      1.1717                 1.2995                 0.7092
 IR Inten    --     45.6128                 8.3527                48.3687

                     31                     32                     33
                      A                      A                      A
 Frequencies --    679.6779               700.1834               752.8271
 Red. masses --      4.1471                 4.9377                 4.4096
 Frc consts  --      1.1288                 1.4263                 1.4724
 IR Inten    --     31.0421                12.9068                17.8869

                     34                     35                     36
                      A                      A                      A
 Frequencies --    758.9396               762.3041               776.7424
 Red. masses --      2.1178                 5.9110                 5.6657
 Frc consts  --      0.7187                 2.0238                 2.0140
 IR Inten    --    170.3183                13.6400                 3.6214

                     37                     38                     39
                      A                      A                      A
 Frequencies --    791.7707               820.7951               846.9729
 Red. masses --      2.9202                 1.4376                 5.0896
 Frc consts  --      1.0786                 0.5707                 2.1512
 IR Inten    --     45.3886                26.8673                 5.1676

                     40                     41                     42
                      A                      A                      A
 Frequencies --    857.6182               881.8728               896.0628
 Red. masses --      1.3134                 1.2668                 1.3942
 Frc consts  --      0.5692                 0.5805                 0.6595
 IR Inten    --      9.7853                10.4258                12.1951

                     43                     44                     45
                      A                      A                      A
 Frequencies --    949.5844               950.7611               961.6094
 Red. masses --      1.2787                 5.6019                 2.7305
 Frc consts  --      0.6793                 2.9835                 1.4876
 IR Inten    --      0.3189                12.9605                 4.1761

                     46                     47                     48
                      A                      A                      A
 Frequencies --    962.7393               989.0459              1035.3690
 Red. masses --      3.7953                 2.2761                 1.4939
 Frc consts  --      2.0726                 1.3118                 0.9436
 IR Inten    --     33.7674                49.7234                 6.7928

                     49                     50                     51
                      A                      A                      A
 Frequencies --   1077.0938              1109.7951              1114.2785
 Red. masses --      1.4952                 2.5552                 2.4808
 Frc consts  --      1.0220                 1.8542                 1.8148
 IR Inten    --      3.9152                31.3048                 7.4245

                     52                     53                     54
                      A                      A                      A
 Frequencies --   1129.0478              1156.7018              1167.3909
 Red. masses --      2.3470                 1.5257                 1.6823
 Frc consts  --      1.7628                 1.2027                 1.3508
 IR Inten    --     14.2489                 0.9383                20.5981

                     55                     56                     57
                      A                      A                      A
 Frequencies --   1180.2255              1207.5509              1243.3846
 Red. masses --      3.0248                 2.5796                 2.2382
 Frc consts  --      2.4824                 2.2162                 2.0387
 IR Inten    --     43.5984                39.5206                51.8892

                     58                     59                     60
                      A                      A                      A
 Frequencies --   1249.1106              1274.9324              1302.8479
 Red. masses --      1.5746                 2.2405                 1.4538
 Frc consts  --      1.4475                 2.1457                 1.4539
 IR Inten    --      3.7944                89.2238                 7.2645

                     61                     62                     63
                      A                      A                      A
 Frequencies --   1310.4343              1341.4323              1355.1268
 Red. masses --      3.1502                 1.9711                 1.8602
 Frc consts  --      3.1873                 2.0897                 2.0126
 IR Inten    --     11.1366                13.8167                 5.2572

                     64                     65                     66
                      A                      A                      A
 Frequencies --   1377.1664              1389.6477              1398.7198
 Red. masses --      3.2049                 4.3569                 4.2497
 Frc consts  --      3.5812                 4.9573                 4.8986
 IR Inten    --    191.6556                 6.2703                41.4756

                     67                     68                     69
                      A                      A                      A
 Frequencies --   1431.2473              1444.4246              1469.5138
 Red. masses --      1.9043                 1.2506                 2.8906
 Frc consts  --      2.2984                 1.5373                 3.6778
 IR Inten    --     52.1440                 0.1089                27.6751

                     70                     71                     72
                      A                      A                      A
 Frequencies --   1486.4969              1497.7655              1511.5405
 Red. masses --      2.7028                 1.9233                 2.4470
 Frc consts  --      3.5188                 2.5420                 3.2940
 IR Inten    --      7.3815               105.7771                 9.5571

                     73                     74                     75
                      A                      A                      A
 Frequencies --   1515.1523              1523.7663              1534.7843
 Red. masses --      1.0444                 1.0920                 1.3738
 Frc consts  --      1.4126                 1.4939                 1.9066
 IR Inten    --      5.2198                17.1766                21.1240

                     76                     77                     78
                      A                      A                      A
 Frequencies --   1567.7224              1608.4971              1642.1281
 Red. masses --      5.1803                 6.1689                 3.0095
 Frc consts  --      7.5014                 9.4037                 4.7815
 IR Inten    --     68.1085               113.2647                65.1737

                     79                     80                     81
                      A                      A                      A
 Frequencies --   1643.6386              1678.7689              1695.6896
 Red. masses --      6.4629                 6.8727                 1.3096
 Frc consts  --     10.2871                11.4119                 2.2187
 IR Inten    --      3.0208                 1.2042                76.1251

                     82                     83                     84
                      A                      A                      A
 Frequencies --   1773.9289              3008.3135              3043.6502
 Red. masses --      8.4055                 1.0730                 1.0375
 Frc consts  --     15.5843                 5.7215                 5.6628
 IR Inten    --    364.0871                58.7528                39.5859

                     85                     86                     87
                      A                      A                      A
 Frequencies --   3090.0565              3094.9688              3127.2812
 Red. masses --      1.0891                 1.1011                 1.1007
 Frc consts  --      6.1273                 6.2141                 6.3426
 IR Inten    --      9.5975                21.2748                16.0156

                     88                     89                     90
                      A                      A                      A
 Frequencies --   3186.6205              3193.3167              3226.8164
 Red. masses --      1.0890                 1.0907                 1.0939
 Frc consts  --      6.5153                 6.5532                 6.7109
 IR Inten    --     13.1381                12.2205                 6.6943

                     91                     92                     93
                      A                      A                      A
 Frequencies --   3259.6448              3274.8071              3506.4446
 Red. masses --      1.0958                 1.0969                 1.0521
 Frc consts  --      6.8598                 6.9309                 7.6212
 IR Inten    --      3.7714                 2.7231                 4.8874

                     94                     95                     96
                      A                      A                      A
 Frequencies --   3601.4968              3613.2176              3663.2935
 Red. masses --      1.0759                 1.0921                 1.0810
 Frc consts  --      8.2221                 8.4001                 8.5471
 IR Inten    --     39.4532                10.0106                74.3175

 - Thermochemistry -
 -------------------
 Temperature   298.150 Kelvin.  Pressure   1.00000 Atm.
 Atom     1 has atomic number  6 and mass  12.00000

 Molecular mass:   270.11168 amu.
 Principal axes and moments of inertia in atomic units:
                           1         2         3
     Eigenvalues --  3277.06399********************
           X            0.99983   0.01724   0.00641
           Y           -0.01725   0.99985   0.00156
           Z           -0.00638  -0.00167   0.99998
 This molecule is an asymmetric top.
 Rotational symmetry number  1.
 Warning -- assumption of classical behavior for rotation
           may cause significant error
 Rotational temperatures (Kelvin)      0.02643     0.00862     0.00708
 Rotational constants (GHZ):           0.55072     0.17959     0.14759
 Zero-point vibrational energy     708930.8 (Joules/Mol)
                                  169.43854 (Kcal/Mol)
 Warning -- explicit consideration of  26 degrees of freedom as
           vibrations may cause significant error
 Vibrational temperatures:     28.35    40.25    60.14    85.44    93.57
          (Kelvin)            107.52   176.81   185.80   227.87   250.88
                              282.84   353.81   398.97   411.85   428.82
                              465.67   498.47   547.62   619.31   631.05
                              637.44   694.96   755.43   781.77   821.47
                              859.78   894.83   929.60   942.47   958.05
                              977.90  1007.41  1083.15  1091.94  1096.79
                             1117.56  1139.18  1180.94  1218.61  1233.92
                             1268.82  1289.23  1366.24  1367.93  1383.54
                             1385.17  1423.02  1489.67  1549.70  1596.75
                             1603.20  1624.45  1664.24  1679.62  1698.08
                             1737.40  1788.95  1797.19  1834.34  1874.51
                             1885.42  1930.02  1949.73  1981.44  1999.39
                             2012.45  2059.25  2078.20  2114.30  2138.74
                             2154.95  2174.77  2179.97  2192.36  2208.21
                             2255.60  2314.27  2362.66  2364.83  2415.37
                             2439.72  2552.29  4328.29  4379.13  4445.90
                             4452.97  4499.46  4584.84  4594.47  4642.67
                             4689.90  4711.72  5044.99  5181.75  5198.61
                             5270.66

 Zero-point correction=                           0.270017 (Hartree/Particle)
 Thermal correction to Energy=                    0.287859
 Thermal correction to Enthalpy=                  0.288804
 Thermal correction to Gibbs Free Energy=         0.221606
 Sum of electronic and zero-point Energies=           -911.146832
 Sum of electronic and thermal Energies=              -911.128990
 Sum of electronic and thermal Enthalpies=            -911.128046
 Sum of electronic and thermal Free Energies=         -911.195244

                     E (Thermal)             CV                S
                      KCal/Mol        Cal/Mol-Kelvin    Cal/Mol-Kelvin
 Total                  180.635             67.355            141.430
 Electronic               0.000              0.000              0.000
 Translational            0.889              2.981             42.680
 Rotational               0.889              2.981             34.353
 Vibrational            178.857             61.393             64.396
 Vibration     1          0.593              1.986              6.664
 Vibration     2          0.593              1.984              5.968
 Vibration     3          0.594              1.980              5.172
 Vibration     4          0.597              1.974              4.478
 Vibration     5          0.597              1.971              4.298
 Vibration     6          0.599              1.966              4.025
 Vibration     7          0.610              1.930              3.054
 Vibration     8          0.612              1.924              2.959
 Vibration     9          0.621              1.893              2.569
 Vibration    10          0.627              1.874              2.388
 Vibration    11          0.636              1.845              2.165
 Vibration    12          0.660              1.770              1.760
 Vibration    13          0.678              1.715              1.550
 Vibration    14          0.684              1.699              1.496
 Vibration    15          0.691              1.677              1.428
 Vibration    16          0.708              1.628              1.292
 Vibration    17          0.724              1.582              1.182
 Vibration    18          0.750              1.512              1.037
 Vibration    19          0.792              1.404              0.857
 Vibration    20          0.799              1.386              0.831
 Vibration    21          0.803              1.376              0.817
 Vibration    22          0.839              1.288              0.702
 Vibration    23          0.880              1.195              0.598
 Vibration    24          0.898              1.154              0.558
 Vibration    25          0.927              1.094              0.502
 Vibration    26          0.955              1.037              0.454

                           ! Non-Optimized Parameters !
 Normal termination of Gaussian 16 at Sun Dec 13 17:08:27 2020.

 ----------------------------------------------------------------------
 # B3LYP/6-311++G(d,p) empiricaldispersion=gd3bj scf=xqc pop=npa geom=c
 heck
 ----------------------------------------------------------------------

 ---------------------------------------
 CID_79529206_JID_10168_Energie_neutraal
 ---------------------------------------
 Structure from the checkpoint file:  "JID_10168.chk"
 Charge =  0 Multiplicity = 1

 SCF Done:  E(RB3LYP) =  -911.672624150     A.U. after   16 cycles
 Normal termination of Gaussian 16 at Sun Dec 13 17:14:04 2020.

 ----------------------------------------------------------------------
 # B3LYP/6-311++G(d,p) empiricaldispersion=gd3bj scf=xqc pop=npa geom=c
 heck
 ----------------------------------------------------------------------

 -------------------------------------
 CID_79529206_JID_10168_Energie_kation
 -------------------------------------
 Structure from the checkpoint file:  "JID_10168.chk"
 Charge =  1 Multiplicity = 2

 SCF Done:  E(UB3LYP) =  -911.386720789     A.U. after   33 cycles
 SCF Done:  E(UB3LYP) =  -911.387116853     a.u. after    6 cycles
 Normal termination of Gaussian 16 at Sun Dec 13 18:35:43 2020.
 Gaussian 16:  ES64L-G16RevA.03 25-Dec-2016

 ----------------------------------------------------------------------
 # B3LYP/6-311++G(d,p) empiricaldispersion=gd3bj scf=xqc pop=npa geom=c
 heck
 ----------------------------------------------------------------------

 ------------------------------------
 CID_79529206_JID_10168_Energie_anion
 ------------------------------------
 Structure from the checkpoint file:  "JID_10168.chk"
 Charge = -1 Multiplicity = 2

                         Standard orientation:
 ---------------------------------------------------------------------
 Center     Atomic      Atomic             Coordinates (Angstroms)
 Number     Number       Type             X           Y           Z
 ---------------------------------------------------------------------
      1          6           0       -4.901879   -2.790862   -0.001334
      2          6           0       -4.082025   -1.522879    0.037486
      3          6           0       -2.697562   -1.562349   -0.101778
      4          6           0       -1.969791   -0.361956   -0.061247
      5          6           0       -2.658763    0.851976    0.114424
      6          6           0       -4.039472    0.926872    0.260447
      7          6           0       -4.732209   -0.277830    0.217340
      8          8           0       -1.785675    1.900483    0.120213
      9          6           0       -0.527196    1.363366   -0.039401
     10          6           0       -0.581885    0.001683   -0.157487
     11          6           0        0.554444    2.372850   -0.175195
     12          8           0        0.319889    3.493787   -0.609383
     13          7           0        1.828112    1.985408    0.160602
     14          6           0        2.266102    0.826511    0.923949
     15          6           0        2.948399   -0.215816    0.084161
     16          6           0        3.889210   -1.148166    0.505369
     17          7           0        4.228042   -1.870008   -0.596778
     18          7           0        3.579669   -1.468323   -1.723051
     19          6           0        2.802335   -0.474797   -1.303784
     20          7           0        4.427740   -1.445553    1.763362
     21          1           0       -4.266696   -3.671000   -0.139428
     22          1           0       -5.468849   -2.929557    0.927458
     23          1           0       -5.629096   -2.771497   -0.822358
     24          1           0       -2.187634   -2.511899   -0.239592
     25          1           0       -4.542518    1.878090    0.395198
     26          1           0       -5.814036   -0.266587    0.322983
     27          1           0        0.255204   -0.660677   -0.325266
     28          1           0        2.516974    2.694374   -0.058017
     29          1           0        2.947560    1.172249    1.715740
     30          1           0        1.386850    0.423536    1.436372
     31          1           0        4.835588   -2.674451   -0.634440
     32          1           0        2.173875    0.053508   -2.008486
     33          1           0        5.439794   -1.354100    1.800604
     34          1           0        4.016088   -0.878439    2.495951
 ---------------------------------------------------------------------

 SCF Done:  E(UB3LYP) =  -911.683478872     A.U. after   32 cycles

 The electronic state is 2-A.
 Alpha  occ. eigenvalues --  -19.06674 -18.96437 -14.28632 -14.23594 -14.23218
 Alpha  occ. eigenvalues --  -14.22616 -10.15435 -10.14917 -10.12007 -10.11777
 Alpha  occ. eigenvalues --  -10.11248 -10.09330 -10.08150 -10.07901 -10.07324
 Alpha  occ. eigenvalues --  -10.06988 -10.06903 -10.06495 -10.06492 -10.05999
 Alpha  occ. eigenvalues --   -0.99664  -0.95225  -0.91880  -0.82814  -0.81612
 Alpha  occ. eigenvalues --   -0.75432  -0.72003  -0.69287  -0.68406  -0.67355
 Alpha  occ. eigenvalues --   -0.63081  -0.60763  -0.59615  -0.54191  -0.51655
 Alpha  occ. eigenvalues --   -0.49752  -0.49011  -0.48968  -0.46246  -0.45750
 Alpha  occ. eigenvalues --   -0.41407  -0.40944  -0.39777  -0.38871  -0.37079
 Alpha  occ. eigenvalues --   -0.36076  -0.35258  -0.35029  -0.34537  -0.33845
 Alpha  occ. eigenvalues --   -0.33516  -0.33049  -0.31834  -0.31576  -0.30238
 Alpha  occ. eigenvalues --   -0.29434  -0.28815  -0.28060  -0.27311  -0.26213
 Alpha  occ. eigenvalues --   -0.23889  -0.23366  -0.23077  -0.20045  -0.19061
 Alpha  occ. eigenvalues --   -0.16606  -0.15103  -0.14492  -0.13146  -0.12647
 Alpha  occ. eigenvalues --   -0.11903   0.02844
 Alpha virt. eigenvalues --    0.04502   0.06566   0.07192   0.08381   0.08689
 Alpha virt. eigenvalues --    0.09025   0.09261   0.09709   0.10448   0.10684
 Alpha virt. eigenvalues --    0.11057   0.11419   0.11889   0.12227   0.12574

  Beta  occ. eigenvalues --  -19.06585 -18.96249 -14.28618 -14.23514 -14.23215
  Beta  occ. eigenvalues --  -14.22593 -10.15326 -10.14906 -10.11991 -10.11786
  Beta  occ. eigenvalues --  -10.11096 -10.09330 -10.08147 -10.07949 -10.07324
  Beta  occ. eigenvalues --  -10.06987 -10.06830 -10.06359 -10.06357 -10.05894
  Beta  occ. eigenvalues --   -0.99499  -0.95209  -0.91574  -0.82706  -0.81484
  Beta  occ. eigenvalues --   -0.75288  -0.71973  -0.69048  -0.68351  -0.67263
  Beta  occ. eigenvalues --   -0.62771  -0.60692  -0.59482  -0.53839  -0.51630
  Beta  occ. eigenvalues --   -0.49678  -0.48934  -0.48849  -0.46124  -0.45650
  Beta  occ. eigenvalues --   -0.41300  -0.40858  -0.39684  -0.38682  -0.36971
  Beta  occ. eigenvalues --   -0.35964  -0.35156  -0.34802  -0.34391  -0.33732
  Beta  occ. eigenvalues --   -0.33433  -0.32987  -0.31771  -0.31537  -0.30139
  Beta  occ. eigenvalues --   -0.29360  -0.28693  -0.27416  -0.27208  -0.26129
  Beta  occ. eigenvalues --   -0.23425  -0.23275  -0.23005  -0.20023  -0.18355
  Beta  occ. eigenvalues --   -0.16517  -0.14772  -0.14148  -0.12691  -0.12510
  Beta  occ. eigenvalues --   -0.11039
  Beta virt. eigenvalues --    0.05791   0.06538   0.06733   0.07631   0.08353
  Beta virt. eigenvalues --    0.09054   0.09119   0.09333   0.09868   0.10772
  Beta virt. eigenvalues --    0.11014   0.11133   0.11500   0.12045   0.12398

 Mulliken charges and spin densities:
               1          2
     1  C   -0.467742   0.002810
     2  C    0.851464  -0.063394
     3  C   -0.749626   0.120650
     4  C    0.602009  -0.064109
     5  C   -0.632749  -0.117906
     6  C   -0.553040   0.064198
     7  C   -0.194802   0.094602
     8  O   -0.042065   0.015030
     9  C   -0.232493   0.228430
    10  C    0.451957   0.021099
    11  C   -0.179337   0.155115
    12  O   -0.378617   0.066269
    13  N   -0.097276  -0.004254
    14  C   -0.648059  -0.623225
    15  C    0.742858  -0.279426
    16  C    0.120015   0.044292
    17  N   -0.047313  -0.099470
    18  N   -0.179614   0.038050
    19  C   -0.135112  -0.061631
    20  N   -0.309804  -0.019996
    21  H    0.145309  -0.001062
    22  H    0.137586  -0.000816
    23  H    0.138138   0.000006
    24  H    0.099293  -0.002688
    25  H    0.143166  -0.004055
    26  H    0.125297  -0.008510
    27  H    0.120230  -0.030192
    28  H    0.278697   0.028226
    29  H   -0.147538   0.311306
    30  H    0.127949   0.068266
    31  H    0.200365   0.123378
    32  H    0.191268  -0.004055
    33  H   -0.428611   0.689629
    34  H   -0.051803   0.313433
 Sum of Mulliken charges =  -1.00000   1.00000

 Dipole moment (field-independent basis, Debye):
    X=             -4.1929    Y=             -3.2686    Z=             -0.1713  Tot=              5.3192
 Quadrupole moment (field-independent basis, Debye-Ang):
   XX=           -187.6524   YY=           -154.8258   ZZ=           -144.9610
   XY=             10.3079   XZ=            -10.0735   YZ=              5.4566

 Summary of Natural Population Analysis:

                                       Natural Population
                Natural  -----------------------------------------------
    Atom  No    Charge         Core      Valence    Rydberg      Total
 -----------------------------------------------------------------------
      C    1   -0.29256      0.99966     2.28642    0.00649     3.29256
      C    2   -0.05276      0.99944     2.03890    0.01442     3.05276
      C    3   -0.08699      0.99947     2.07189    0.01563     3.08699
      C    4   -0.00857      0.99950     2.00269    0.00638     3.00857
      C    5    0.14190      0.99940     1.84323    0.01546     2.85810
      C    6   -0.13049      0.99957     2.11406    0.01687     3.13049
      C    7   -0.03463      0.99946     2.02952    0.00566     3.03463
      O    8   -0.22449      0.99985     3.21635    0.00829     4.22449
      C    9    0.14007      0.99942     1.84549    0.01502     2.85993
      C   10   -0.13534      0.99952     2.12306    0.01277     3.13534
      C   11    0.32837      0.99961     1.65006    0.02195     2.67163
      O   12   -0.29955      0.99988     3.29412    0.00555     4.29955
      N   13   -0.31506      0.99968     2.80644    0.00894     3.81506
      C   14   -0.09745      0.99958     2.08590    0.01196     3.09745
      C   15   -0.10494      0.99945     2.09434    0.01115     3.10494
      C   16    0.17294      0.99946     1.81364    0.01396     2.82706
      N   17   -0.18369      0.99965     2.67106    0.01297     3.68369
      N   18   -0.16588      0.99974     2.65308    0.01305     3.66588
      C   19   -0.00636      0.99959     1.99173    0.01504     3.00636
      N   20   -0.40720      0.99972     2.89717    0.01030     3.90720
      H   21    0.09819      0.00000     0.40083    0.00097     0.40181
      H   22    0.09724      0.00000     0.40152    0.00124     0.40276
      H   23    0.09732      0.00000     0.40145    0.00124     0.40268
      H   24    0.09411      0.00000     0.40437    0.00152     0.40589
      H   25    0.10150      0.00000     0.39695    0.00155     0.39850
      H   26    0.08530      0.00000     0.41274    0.00196     0.41470
      H   27    0.11076      0.00000     0.38752    0.00171     0.38924
      H   28    0.19015      0.00000     0.30738    0.00246     0.30985
      H   29    0.09736      0.00000     0.40112    0.00152     0.40264
      H   30    0.10963      0.00000     0.38878    0.00160     0.39037
      H   31    0.19667      0.00000     0.30103    0.00230     0.30333
      H   32    0.10318      0.00000     0.39567    0.00116     0.39682
      H   33    0.19140      0.00000     0.29865    0.00995     0.30860
      H   34    0.19081      0.00000     0.30643    0.00276     0.30919
 =======================================================================
   * Total *    0.00096     19.99166    50.73358    0.27379    70.99904

 Normal termination of Gaussian 16 at Sun Dec 13 18:50:32 2020.
