 Gaussian 16, Revision A.03,

 -----------------------------------------------------------
 # opt freq B3LYP/6-31G(d) empiricaldispersion=gd3bj scf=xqc
 -----------------------------------------------------------

 ------------------------------
 CID_90433675_JID_5483_neutraal
 ------------------------------
 Symbolic Z-matrix:
 Charge =  0 Multiplicity = 1

 SCF Done:  E(RB3LYP) =  -645.452167521     A.U. after   14 cycles
 SCF Done:  E(RB3LYP) =  -645.453493289     A.U. after   13 cycles
 SCF Done:  E(RB3LYP) =  -645.459209041     A.U. after   13 cycles
 SCF Done:  E(RB3LYP) =  -645.462281888     A.U. after   12 cycles
 SCF Done:  E(RB3LYP) =  -645.464201770     A.U. after   12 cycles
 SCF Done:  E(RB3LYP) =  -645.464901663     A.U. after   12 cycles
 SCF Done:  E(RB3LYP) =  -645.465241626     A.U. after   12 cycles
 SCF Done:  E(RB3LYP) =  -645.465396815     A.U. after   11 cycles
 SCF Done:  E(RB3LYP) =  -645.465489820     A.U. after   11 cycles
 SCF Done:  E(RB3LYP) =  -645.465555215     A.U. after   11 cycles
 SCF Done:  E(RB3LYP) =  -645.465855572     A.U. after   11 cycles
 SCF Done:  E(RB3LYP) =  -645.465883052     A.U. after   11 cycles
 SCF Done:  E(RB3LYP) =  -645.465885072     A.U. after    9 cycles
 SCF Done:  E(RB3LYP) =  -645.465885632     A.U. after    8 cycles
 SCF Done:  E(RB3LYP) =  -645.465885709     A.U. after    7 cycles
 Optimization completed.
    -- Stationary point found.
 Normal termination of Gaussian 16 at Thu Dec 10 16:21:39 2020.

 --------------------------------------------------------------------
 #N Geom=AllCheck Guess=TCheck SCRF=Check GenChk RB3LYP/6-31G(d) Freq
 --------------------------------------------------------------------

 Structure from the checkpoint file:  "JID_5483.chk"
 ------------------------------
 CID_90433675_JID_5483_neutraal
 ------------------------------
 Charge =  0 Multiplicity = 1

 SCF Done:  E(RB3LYP) =  -645.465885709     A.U. after    1 cycles

  Exact polarizability: 224.219   0.587 138.683  -7.681  -2.635  73.129
 Approx polarizability: 309.700  -5.977 246.821 -19.345  -3.737 122.001

                      1                      2                      3
                      A                      A                      A
 Frequencies --     41.3187                54.1937                83.3076
 Red. masses --      5.0681                 3.9910                 1.1420
 Frc consts  --      0.0051                 0.0069                 0.0047
 IR Inten    --      0.1449                 2.8916                 0.0419

                      4                      5                      6
                      A                      A                      A
 Frequencies --    100.1629               144.9451               178.1522
 Red. masses --      3.5791                 3.9060                 4.4895
 Frc consts  --      0.0212                 0.0483                 0.0840
 IR Inten    --      1.8923                 3.5812                 0.1330

                      7                      8                      9
                      A                      A                      A
 Frequencies --    269.8939               278.1804               299.3947
 Red. masses --      4.6370                 4.9533                 4.3284
 Frc consts  --      0.1990                 0.2258                 0.2286
 IR Inten    --      5.1216                 1.3381                 3.2996

                     10                     11                     12
                      A                      A                      A
 Frequencies --    325.2325               353.9806               428.2111
 Red. masses --      3.2666                 3.1043                 3.9403
 Frc consts  --      0.2036                 0.2292                 0.4257
 IR Inten    --      0.5550                 2.1652                 2.2761

                     13                     14                     15
                      A                      A                      A
 Frequencies --    433.5007               465.3677               471.1421
 Red. masses --      3.1140                 2.9746                 1.1618
 Frc consts  --      0.3448                 0.3796                 0.1519
 IR Inten    --     10.7972                 6.0304                 8.0189

                     16                     17                     18
                      A                      A                      A
 Frequencies --    497.0965               524.1229               531.6586
 Red. masses --      1.3738                 4.8841                 2.2863
 Frc consts  --      0.2000                 0.7905                 0.3808
 IR Inten    --     97.6249                 5.3665                28.5989

                     19                     20                     21
                      A                      A                      A
 Frequencies --    589.1067               590.8516               663.4072
 Red. masses --      5.7869                 4.7230                 7.2641
 Frc consts  --      1.1833                 0.9715                 1.8836
 IR Inten    --      2.8303                41.6114                 2.5409

                     22                     23                     24
                      A                      A                      A
 Frequencies --    695.2404               731.8815               755.9190
 Red. masses --      5.8058                 2.3072                 4.2503
 Frc consts  --      1.6534                 0.7282                 1.4309
 IR Inten    --      2.9459                92.2076                 0.8548

                     25                     26                     27
                      A                      A                      A
 Frequencies --    774.7986               803.5268               811.8916
 Red. masses --      2.0296                 3.6103                 4.4453
 Frc consts  --      0.7179                 1.3734                 1.7264
 IR Inten    --    137.9856                22.4688                 3.0709

                     28                     29                     30
                      A                      A                      A
 Frequencies --    825.8637               834.5047               893.9999
 Red. masses --      1.6824                 1.5183                 4.1022
 Frc consts  --      0.6761                 0.6230                 1.9317
 IR Inten    --     38.8986                93.4537                 6.4338

                     31                     32                     33
                      A                      A                      A
 Frequencies --    926.2270               929.0573               940.1145
 Red. masses --      2.6449                 1.9364                 1.3065
 Frc consts  --      1.3369                 0.9847                 0.6803
 IR Inten    --      8.1469                 0.7650                 1.1786

                     34                     35                     36
                      A                      A                      A
 Frequencies --    966.1239               976.4121              1018.4604
 Red. masses --      1.3994                 1.3159                 1.5562
 Frc consts  --      0.7696                 0.7392                 0.9511
 IR Inten    --      0.4004                 0.0630                 4.8601

                     37                     38                     39
                      A                      A                      A
 Frequencies --   1051.5951              1079.7122              1083.9972
 Red. masses --      2.5965                 1.4823                 2.3000
 Frc consts  --      1.6917                 1.0181                 1.5923
 IR Inten    --      6.4743                 3.2111                 4.6306

                     40                     41                     42
                      A                      A                      A
 Frequencies --   1146.9031              1181.1064              1233.3893
 Red. masses --      1.5516                 1.2170                 1.6459
 Frc consts  --      1.2025                 1.0003                 1.4752
 IR Inten    --      6.8196                13.5475                11.1792

                     43                     44                     45
                      A                      A                      A
 Frequencies --   1256.6517              1262.8803              1292.2540
 Red. masses --      3.9817                 2.3352                 2.1454
 Frc consts  --      3.7047                 2.1943                 2.1109
 IR Inten    --     10.2030                 2.3178                39.7018

                     46                     47                     48
                      A                      A                      A
 Frequencies --   1325.3555              1348.0800              1352.0969
 Red. masses --      2.8352                 2.2812                 3.2104
 Frc consts  --      2.9342                 2.4425                 3.4580
 IR Inten    --     52.4156                 5.1439                48.3494

                     49                     50                     51
                      A                      A                      A
 Frequencies --   1378.6616              1393.4183              1424.3583
 Red. masses --      1.9531                 2.3738                 2.1544
 Frc consts  --      2.1872                 2.7155                 2.5753
 IR Inten    --     18.8119                72.8209                64.2415

                     52                     53                     54
                      A                      A                      A
 Frequencies --   1448.2764              1456.8596              1514.6519
 Red. masses --      1.2531                 2.4317                 1.0438
 Frc consts  --      1.5486                 3.0409                 1.4109
 IR Inten    --      2.2964                36.8137                 5.5125

                     55                     56                     57
                      A                      A                      A
 Frequencies --   1520.9290              1545.8621              1556.7841
 Red. masses --      1.1942                 2.0809                 2.8476
 Frc consts  --      1.6276                 2.9298                 4.0662
 IR Inten    --      8.1220                12.1558               211.0389

                     58                     59                     60
                      A                      A                      A
 Frequencies --   1558.8999              1627.4402              1632.4417
 Red. masses --      2.5535                 5.4354                 4.4917
 Frc consts  --      3.6562                 8.4819                 7.0524
 IR Inten    --    365.7020                40.1506                31.3907

                     61                     62                     63
                      A                      A                      A
 Frequencies --   1653.6483              1679.2721              1713.1110
 Red. masses --      3.3344                 5.4505                 1.2619
 Frc consts  --      5.3723                 9.0558                 2.1819
 IR Inten    --     55.2057               202.1443                86.9782

                     64                     65                     66
                      A                      A                      A
 Frequencies --   3041.5042              3092.2626              3123.2370
 Red. masses --      1.0374                 1.1014                 1.1005
 Frc consts  --      5.6541                 6.2049                 6.3247
 IR Inten    --     51.1331                21.4954                14.5593

                     67                     68                     69
                      A                      A                      A
 Frequencies --   3135.4640              3164.0771              3168.6540
 Red. masses --      1.0892                 1.0904                 1.0870
 Frc consts  --      6.3091                 6.4319                 6.4303
 IR Inten    --     38.3011                36.9535                20.0511

                     70                     71                     72
                      A                      A                      A
 Frequencies --   3179.3470              3189.3349              3197.2477
 Red. masses --      1.0874                 1.0950                 1.0955
 Frc consts  --      6.4760                 6.5627                 6.5982
 IR Inten    --     13.5901                34.9148                15.8328

                     73                     74                     75
                      A                      A                      A
 Frequencies --   3424.9026              3602.9609              3604.8207
 Red. masses --      1.0586                 1.0759                 1.0868
 Frc consts  --      7.3159                 8.2289                 8.3208
 IR Inten    --    262.5478                23.9423                37.0119

 - Thermochemistry -
 -------------------
 Temperature   298.150 Kelvin.  Pressure   1.00000 Atm.
 Atom     1 has atomic number  6 and mass  12.00000

 Molecular mass:   200.10620 amu.
 Principal axes and moments of inertia in atomic units:
                           1         2         3
     Eigenvalues --  1060.652285825.024846436.08210
           X            0.99999   0.00224   0.00419
           Y           -0.00216   0.99980  -0.01967
           Z           -0.00423   0.01966   0.99980
 This molecule is an asymmetric top.
 Rotational symmetry number  1.
 Warning -- assumption of classical behavior for rotation
           may cause significant error
 Rotational temperatures (Kelvin)      0.08166     0.01487     0.01346
 Rotational constants (GHZ):           1.70154     0.30983     0.28041
 Zero-point vibrational energy     579289.8 (Joules/Mol)
                                  138.45359 (Kcal/Mol)
 Warning -- explicit consideration of  20 degrees of freedom as
           vibrations may cause significant error
 Vibrational temperatures:     59.45    77.97   119.86   144.11   208.54
          (Kelvin)            256.32   388.32   400.24   430.76   467.94
                              509.30   616.10   623.71   669.56   677.87
                              715.21   754.10   764.94   847.59   850.10
                              954.50  1000.30  1053.01  1087.60  1114.76
                             1156.10  1168.13  1188.23  1200.67  1286.27
                             1332.63  1336.71  1352.62  1390.04  1404.84
                             1465.34  1513.01  1553.47  1559.63  1650.14
                             1699.35  1774.57  1808.04  1817.00  1859.27
                             1906.89  1939.59  1945.37  1983.59  2004.82
                             2049.33  2083.75  2096.10  2179.25  2188.28
                             2224.15  2239.87  2242.91  2341.52  2348.72
                             2379.23  2416.10  2464.78  4376.05  4449.08
                             4493.64  4511.23  4552.40  4558.99  4574.37
                             4588.74  4600.13  4927.67  5183.86  5186.53

 Zero-point correction=                           0.220640 (Hartree/Particle)
 Thermal correction to Energy=                    0.233401
 Thermal correction to Enthalpy=                  0.234345
 Thermal correction to Gibbs Free Energy=         0.180812
 Sum of electronic and zero-point Energies=           -645.245246
 Sum of electronic and thermal Energies=              -645.232485
 Sum of electronic and thermal Enthalpies=            -645.231540
 Sum of electronic and thermal Free Energies=         -645.285074

                     E (Thermal)             CV                S
                      KCal/Mol        Cal/Mol-Kelvin    Cal/Mol-Kelvin
 Total                  146.461             50.041            112.671
 Electronic               0.000              0.000              0.000
 Translational            0.889              2.981             41.786
 Rotational               0.889              2.981             32.053
 Vibrational            144.684             44.080             38.832
 Vibration     1          0.594              1.981              5.195
 Vibration     2          0.596              1.976              4.658
 Vibration     3          0.600              1.961              3.811
 Vibration     4          0.604              1.949              3.451
 Vibration     5          0.616              1.908              2.738
 Vibration     6          0.629              1.869              2.348
 Vibration     7          0.674              1.729              1.597
 Vibration     8          0.679              1.714              1.545
 Vibration     9          0.692              1.675              1.420
 Vibration    10          0.709              1.625              1.284
 Vibration    11          0.730              1.567              1.148
 Vibration    12          0.790              1.409              0.865
 Vibration    13          0.794              1.397              0.847
 Vibration    14          0.823              1.327              0.751
 Vibration    15          0.828              1.314              0.734
 Vibration    16          0.853              1.256              0.665
 Vibration    17          0.879              1.197              0.600
 Vibration    18          0.887              1.180              0.584
 Vibration    19          0.946              1.055              0.469
 Vibration    20          0.948              1.051              0.466

 Optimization completed.
    -- Stationary point found.
 Normal termination of Gaussian 16 at Thu Dec 10 16:29:25 2020.

 ----------------------------------------------------------------------
 # B3LYP/6-311++G(d,p) empiricaldispersion=gd3bj scf=xqc pop=npa geom=c
 heck
 ----------------------------------------------------------------------

 --------------------------------------
 CID_90433675_JID_5483_Energie_neutraal
 --------------------------------------
 Structure from the checkpoint file:  "JID_5483.chk"
 Charge =  0 Multiplicity = 1

 SCF Done:  E(RB3LYP) =  -645.642146354     A.U. after   16 cycles
 Normal termination of Gaussian 16 at Thu Dec 10 16:33:09 2020.

 ----------------------------------------------------------------------
 # B3LYP/6-311++G(d,p) empiricaldispersion=gd3bj scf=xqc pop=npa geom=c
 heck
 ----------------------------------------------------------------------

 ------------------------------------
 CID_90433675_JID_5483_Energie_kation
 ------------------------------------
 Structure from the checkpoint file:  "JID_5483.chk"
 Charge =  1 Multiplicity = 2

 SCF Done:  E(UB3LYP) =  -645.372334985     A.U. after   25 cycles
 Normal termination of Gaussian 16 at Thu Dec 10 16:40:24 2020.
 Gaussian 16:  ES64L-G16RevA.03 25-Dec-2016

 ----------------------------------------------------------------------
 # B3LYP/6-311++G(d,p) empiricaldispersion=gd3bj scf=xqc pop=npa geom=c
 heck
 ----------------------------------------------------------------------

 -----------------------------------
 CID_90433675_JID_5483_Energie_anion
 -----------------------------------
 Structure from the checkpoint file:  "JID_5483.chk"
 Charge = -1 Multiplicity = 2

                         Standard orientation:
 ---------------------------------------------------------------------
 Center     Atomic      Atomic             Coordinates (Angstroms)
 Number     Number       Type             X           Y           Z
 ---------------------------------------------------------------------
      1          6           0       -4.854465    0.704889   -0.648608
      2          6           0       -3.477628    0.211502   -0.288841
      3          6           0       -2.341873    0.986266   -0.490795
      4          7           0       -1.086992    0.603025   -0.203209
      5          6           0       -0.901280   -0.614771    0.320202
      6          6           0       -1.985583   -1.482407    0.585270
      7          6           0       -3.263004   -1.059727    0.275416
      8          7           0        0.382649   -1.020167    0.632606
      9          6           0        1.613163   -0.482397    0.170043
     10          6           0        2.021490    0.854203    0.394256
     11          6           0        3.325299    1.181451   -0.018732
     12          6           0        4.143429    0.216757   -0.589096
     13          7           0        3.766226   -1.051926   -0.801930
     14          6           0        2.522107   -1.358970   -0.428102
     15          7           0        1.213678    1.764764    1.043825
     16          1           0       -4.815294    1.721956   -1.051342
     17          1           0       -5.326887    0.066631   -1.405702
     18          1           0       -5.519556    0.717857    0.223702
     19          1           0       -2.435483    1.986101   -0.912719
     20          1           0       -1.810551   -2.463186    1.018707
     21          1           0       -4.108360   -1.716901    0.466152
     22          1           0        0.446645   -1.995538    0.890798
     23          1           0        3.693010    2.193988    0.128110
     24          1           0        5.154408    0.476308   -0.898040
     25          1           0        2.207973   -2.389903   -0.600991
     26          1           0        1.543369    2.720566    0.977718
     27          1           0        0.231881    1.671471    0.778487
 ---------------------------------------------------------------------

 SCF Done:  E(UB3LYP) =  -645.632532023     A.U. after   33 cycles
 SCF Done:  E(UB3LYP) =  -645.632535766     a.u. after    3 cycles

 The electronic state is 2-A.
 Alpha  occ. eigenvalues --  -14.23571 -14.20905 -14.19866 -14.18197 -10.13253
 Alpha  occ. eigenvalues --  -10.12370 -10.11244 -10.09916 -10.09814 -10.08176
 Alpha  occ. eigenvalues --  -10.07171 -10.06322 -10.06291 -10.05880 -10.05820
 Alpha  occ. eigenvalues --   -0.87126  -0.83798  -0.81120  -0.79933  -0.69577
 Alpha  occ. eigenvalues --   -0.67582  -0.66461  -0.63685  -0.58239  -0.54353
 Alpha  occ. eigenvalues --   -0.52664  -0.51177  -0.48493  -0.44010  -0.43241
 Alpha  occ. eigenvalues --   -0.41625  -0.40448  -0.36958  -0.35539  -0.34965
 Alpha  occ. eigenvalues --   -0.33699  -0.33317  -0.32342  -0.31978  -0.30851
 Alpha  occ. eigenvalues --   -0.28848  -0.28663  -0.28116  -0.26758  -0.25338
 Alpha  occ. eigenvalues --   -0.23751  -0.21905  -0.17215  -0.16020  -0.15818
 Alpha  occ. eigenvalues --   -0.15422  -0.12934  -0.09661   0.04611
 Alpha virt. eigenvalues --    0.06321   0.06870   0.07111   0.08254   0.08373
 Alpha virt. eigenvalues --    0.08616   0.08969   0.09962   0.10049   0.10751
 Alpha virt. eigenvalues --    0.11559   0.11977   0.12425   0.13120   0.14252

  Beta  occ. eigenvalues --  -14.23571 -14.20876 -14.19867 -14.18014 -10.13245
  Beta  occ. eigenvalues --  -10.12372 -10.11238 -10.09904 -10.09769 -10.08068
  Beta  occ. eigenvalues --  -10.07135 -10.06347 -10.06284 -10.05797 -10.05625
  Beta  occ. eigenvalues --   -0.87042  -0.83723  -0.81074  -0.79774  -0.69350
  Beta  occ. eigenvalues --   -0.67479  -0.66372  -0.63568  -0.58121  -0.54205
  Beta  occ. eigenvalues --   -0.52561  -0.50998  -0.48350  -0.43924  -0.43174
  Beta  occ. eigenvalues --   -0.41569  -0.40375  -0.36865  -0.35450  -0.34897
  Beta  occ. eigenvalues --   -0.33653  -0.33251  -0.32227  -0.31799  -0.30762
  Beta  occ. eigenvalues --   -0.28644  -0.28515  -0.27993  -0.26708  -0.25237
  Beta  occ. eigenvalues --   -0.23668  -0.21614  -0.16201  -0.15989  -0.15583
  Beta  occ. eigenvalues --   -0.15188  -0.12796  -0.09392
  Beta virt. eigenvalues --    0.06871   0.07135   0.07402   0.08044   0.08591
  Beta virt. eigenvalues --    0.08779   0.09084   0.09380   0.10093   0.10385
  Beta virt. eigenvalues --    0.10999   0.11712   0.12243   0.12681   0.13252

 Mulliken charges and spin densities:
               1          2
     1  C    1.997274  -2.742330
     2  C   -0.064919   0.425255
     3  C   -0.994952   0.400263
     4  N   -0.188860   0.147256
     5  C    0.845229  -1.072657
     6  C   -0.516914   0.489900
     7  C   -0.507636   0.703922
     8  N   -0.029344   0.004953
     9  C    0.395944  -0.092671
    10  C    0.183703  -0.541849
    11  C   -0.078142   0.352013
    12  C    0.019076  -0.532781
    13  N   -0.128676   0.014606
    14  C   -0.517732   0.233728
    15  N   -0.328245   0.039930
    16  H   -0.138779   0.269750
    17  H    0.077339   0.057095
    18  H   -0.217789   0.366365
    19  H   -0.225218   0.364654
    20  H   -0.473118   0.585728
    21  H   -0.501105   0.667571
    22  H    0.351080  -0.087295
    23  H   -0.355979   0.510593
    24  H    0.140624  -0.002926
    25  H   -0.046680   0.191563
    26  H   -0.022152   0.253044
    27  H    0.325970  -0.005680
 Sum of Mulliken charges =  -1.00000   1.00000

 Dipole moment (field-independent basis, Debye):
    X=              3.2339    Y=             -0.2579    Z=              0.2998  Tot=              3.2580
 Quadrupole moment (field-independent basis, Debye-Ang):
   XX=           -171.9086   YY=           -119.2507   ZZ=           -113.4490
   XY=             -0.7983   XZ=              6.9046   YZ=             -1.2049

 Summary of Natural Population Analysis:

                                       Natural Population
                Natural  -----------------------------------------------
    Atom  No    Charge         Core      Valence    Rydberg      Total
 -----------------------------------------------------------------------
      C    1   -0.28686      0.99964     2.28241    0.00481     3.28686
      C    2   -0.06515      0.99951     2.05690    0.00874     3.06515
      C    3    0.05488      0.99952     1.93267    0.01293     2.94512
      N    4   -0.26241      0.99966     2.75106    0.01169     3.76241
      C    5    0.20510      0.99952     1.78053    0.01484     2.79490
      C    6   -0.13099      0.99953     2.12176    0.00970     3.13099
      C    7   -0.03590      0.99952     2.02605    0.01033     3.03590
      N    8   -0.30294      0.99965     2.79341    0.00988     3.80294
      C    9    0.04272      0.99942     1.94721    0.01065     2.95728
      C   10    0.09927      0.99947     1.88982    0.01145     2.90073
      C   11   -0.14169      0.99953     2.13282    0.00934     3.14169
      C   12    0.02000      0.99959     1.96602    0.01438     2.98000
      N   13   -0.25377      0.99972     2.74123    0.01282     3.75377
      C   14    0.02590      0.99955     1.96066    0.01390     2.97410
      N   15   -0.39572      0.99970     2.88643    0.00959     3.89572
      H   16    0.09956      0.00000     0.39918    0.00127     0.40044
      H   17    0.09791      0.00000     0.40069    0.00139     0.40209
      H   18    0.10227      0.00000     0.39570    0.00203     0.39773
      H   19    0.08427      0.00000     0.41440    0.00133     0.41573
      H   20    0.09722      0.00000     0.40149    0.00128     0.40278
      H   21    0.09618      0.00000     0.40254    0.00128     0.40382
      H   22    0.18844      0.00000     0.30921    0.00235     0.31156
      H   23    0.10047      0.00000     0.39829    0.00124     0.39953
      H   24    0.08589      0.00000     0.41284    0.00127     0.41411
      H   25    0.08596      0.00000     0.41233    0.00171     0.41404
      H   26    0.18121      0.00000     0.31651    0.00228     0.31879
      H   27    0.20817      0.00000     0.28899    0.00284     0.29183
 =======================================================================
   * Total *   -0.00000     14.99352    37.82117    0.18531    53.00000

 Normal termination of Gaussian 16 at Thu Dec 10 17:05:37 2020.
