 Gaussian 16, Revision A.03,

 -----------------------------------------------------------
 # opt freq B3LYP/6-31G(d) empiricaldispersion=gd3bj scf=xqc
 -----------------------------------------------------------

 -------------------------------
 CID_115757434_JID_6895_neutraal
 -------------------------------
 Symbolic Z-matrix:
 Charge =  0 Multiplicity = 1

 SCF Done:  E(RB3LYP) =  -1036.24111197     A.U. after   13 cycles
 SCF Done:  E(RB3LYP) =  -1036.24481963     A.U. after   12 cycles
 SCF Done:  E(RB3LYP) =  -1036.24550425     A.U. after   11 cycles
 SCF Done:  E(RB3LYP) =  -1036.24586451     A.U. after   12 cycles
 SCF Done:  E(RB3LYP) =  -1036.24600538     A.U. after   11 cycles
 SCF Done:  E(RB3LYP) =  -1036.24621343     A.U. after   12 cycles
 SCF Done:  E(RB3LYP) =  -1036.24623266     A.U. after   11 cycles
 SCF Done:  E(RB3LYP) =  -1036.24630529     A.U. after   10 cycles
 SCF Done:  E(RB3LYP) =  -1036.24635022     A.U. after   11 cycles
 SCF Done:  E(RB3LYP) =  -1036.24635554     A.U. after    8 cycles
 SCF Done:  E(RB3LYP) =  -1036.25109209     A.U. after    9 cycles
 SCF Done:  E(RB3LYP) =  -1036.25109254     A.U. after    7 cycles
 SCF Done:  E(RB3LYP) =  -1036.25109272     A.U. after    7 cycles
 SCF Done:  E(RB3LYP) =  -1036.25109280     A.U. after    7 cycles
 SCF Done:  E(RB3LYP) =  -1036.25109281     A.U. after    7 cycles
 Optimization completed.
    -- Stationary point found.
 Normal termination of Gaussian 16 at Fri Dec 11 01:25:36 2020.

 --------------------------------------------------------------------
 #N Geom=AllCheck Guess=TCheck SCRF=Check GenChk RB3LYP/6-31G(d) Freq
 --------------------------------------------------------------------

 Structure from the checkpoint file:  "JID_6895.chk"
 -------------------------------
 CID_115757434_JID_6895_neutraal
 -------------------------------
 Charge =  0 Multiplicity = 1

 SCF Done:  E(RB3LYP) =  -1036.25109281     A.U. after    1 cycles

  Exact polarizability: 238.041  -3.976 156.090 -11.443  -2.915 109.847
 Approx polarizability: 296.331  -7.910 250.834 -21.209  -7.822 168.457

                      1                      2                      3
                      A                      A                      A
 Frequencies --     19.7817                24.7753                41.5497
 Red. masses --      3.6519                 3.8630                 4.4308
 Frc consts  --      0.0008                 0.0014                 0.0045
 IR Inten    --      0.5507                 0.3624                 0.1330

                      4                      5                      6
                      A                      A                      A
 Frequencies --     50.9372                68.3721                95.4680
 Red. masses --      2.8245                 3.1320                 2.8380
 Frc consts  --      0.0043                 0.0086                 0.0152
 IR Inten    --      0.8440                 2.1664                 2.6736

                      7                      8                      9
                      A                      A                      A
 Frequencies --    119.3113               143.0098               156.8453
 Red. masses --      4.0171                 1.1173                 1.6887
 Frc consts  --      0.0337                 0.0135                 0.0245
 IR Inten    --      0.6756                 0.3140                 0.4389

                     10                     11                     12
                      A                      A                      A
 Frequencies --    165.3119               189.1343               218.1172
 Red. masses --      1.9865                 1.9533                 2.6755
 Frc consts  --      0.0320                 0.0412                 0.0750
 IR Inten    --      1.3539                 1.1886                 1.9133

                     13                     14                     15
                      A                      A                      A
 Frequencies --    229.6212               236.1546               258.0171
 Red. masses --      1.6562                 2.4928                 2.1291
 Frc consts  --      0.0515                 0.0819                 0.0835
 IR Inten    --      1.0987                 1.4731                 1.4853

                     16                     17                     18
                      A                      A                      A
 Frequencies --    262.1420               284.2209               303.0230
 Red. masses --      1.4486                 2.1299                 2.4951
 Frc consts  --      0.0587                 0.1014                 0.1350
 IR Inten    --      0.5672                 1.3772                 1.5139

                     19                     20                     21
                      A                      A                      A
 Frequencies --    344.8248               365.7166               383.1011
 Red. masses --      3.0234                 3.0817                 3.9772
 Frc consts  --      0.2118                 0.2428                 0.3439
 IR Inten    --      0.4481                 1.2025                 2.3915

                     22                     23                     24
                      A                      A                      A
 Frequencies --    443.4370               448.1655               457.6457
 Red. masses --      5.5912                 2.2670                 3.0647
 Frc consts  --      0.6478                 0.2683                 0.3782
 IR Inten    --      4.6834                 0.5388                 0.5973

                     25                     26                     27
                      A                      A                      A
 Frequencies --    509.4269               546.3931               581.8559
 Red. masses --      4.6583                 3.5362                 3.4818
 Frc consts  --      0.7123                 0.6220                 0.6945
 IR Inten    --      6.4886                 0.6122                 9.9636

                     28                     29                     30
                      A                      A                      A
 Frequencies --    621.3131               679.1960               721.7367
 Red. masses --      4.9061                 3.0412                 3.6343
 Frc consts  --      1.1159                 0.8266                 1.1154
 IR Inten    --      2.4879                 1.1471                12.1119

                     31                     32                     33
                      A                      A                      A
 Frequencies --    728.3049               765.2687               774.2880
 Red. masses --      3.7394                 2.7054                 2.4664
 Frc consts  --      1.1686                 0.9335                 0.8712
 IR Inten    --      0.2483                37.0878                34.8213

                     34                     35                     36
                      A                      A                      A
 Frequencies --    776.4587               831.4740               880.2324
 Red. masses --      2.8210                 1.4861                 2.4164
 Frc consts  --      1.0020                 0.6053                 1.1031
 IR Inten    --     56.5406                29.5676                10.6688

                     37                     38                     39
                      A                      A                      A
 Frequencies --    898.6745               907.9821               950.8038
 Red. masses --      1.6065                 1.3488                 1.2897
 Frc consts  --      0.7644                 0.6552                 0.6870
 IR Inten    --      5.5518                 3.8299                 1.8632

                     40                     41                     42
                      A                      A                      A
 Frequencies --    960.7204               981.5954               986.7428
 Red. masses --      2.7102                 1.2457                 1.1883
 Frc consts  --      1.4739                 0.7072                 0.6817
 IR Inten    --      0.4618                 5.7782                 4.3120

                     43                     44                     45
                      A                      A                      A
 Frequencies --   1002.1876              1032.7425              1048.8874
 Red. masses --      2.0019                 1.6095                 1.8794
 Frc consts  --      1.1847                 1.0114                 1.2182
 IR Inten    --      4.8347                18.5292                28.7540

                     46                     47                     48
                      A                      A                      A
 Frequencies --   1053.0317              1076.0327              1080.3821
 Red. masses --      1.6941                 1.4864                 6.4159
 Frc consts  --      1.1068                 1.0140                 4.4123
 IR Inten    --     28.5417                 1.9689                40.5103

                     49                     50                     51
                      A                      A                      A
 Frequencies --   1123.7016              1161.9157              1166.2335
 Red. masses --      2.2552                 3.7985                 1.7532
 Frc consts  --      1.6778                 3.0214                 1.4049
 IR Inten    --      5.5976                41.2268                91.1955

                     52                     53                     54
                      A                      A                      A
 Frequencies --   1166.9274              1187.0639              1195.8570
 Red. masses --      1.8946                 1.2727                 1.5955
 Frc consts  --      1.5201                 1.0566                 1.3443
 IR Inten    --      3.9625                 0.8287                 3.5627

                     55                     56                     57
                      A                      A                      A
 Frequencies --   1221.8067              1243.9772              1261.8759
 Red. masses --      1.3615                 1.2348                 2.7319
 Frc consts  --      1.1975                 1.1258                 2.5630
 IR Inten    --      5.4758                 3.0741                27.7633

                     58                     59                     60
                      A                      A                      A
 Frequencies --   1292.6367              1303.3219              1320.0350
 Red. masses --      1.2514                 3.5057                 1.4300
 Frc consts  --      1.2319                 3.5085                 1.4681
 IR Inten    --      3.9782               176.4234                54.2955

                     61                     62                     63
                      A                      A                      A
 Frequencies --   1332.2529              1357.8033              1371.8912
 Red. masses --      1.4903                 1.7371                 2.0811
 Frc consts  --      1.5585                 1.8869                 2.3077
 IR Inten    --      4.9961                27.7878                20.0143

                     64                     65                     66
                      A                      A                      A
 Frequencies --   1387.2338              1403.9664              1411.2881
 Red. masses --      1.1906                 1.2783                 1.5432
 Frc consts  --      1.3500                 1.4846                 1.8109
 IR Inten    --      2.3899                 3.1211                31.5530

                     67                     68                     69
                      A                      A                      A
 Frequencies --   1437.6842              1444.2220              1472.3879
 Red. masses --      1.2433                 1.2524                 2.3182
 Frc consts  --      1.5141                 1.5391                 2.9611
 IR Inten    --      8.0282                 0.2482                 5.2321

                     70                     71                     72
                      A                      A                      A
 Frequencies --   1499.6436              1500.9741              1501.9460
 Red. masses --      1.0899                 1.2507                 1.0599
 Frc consts  --      1.4442                 1.6602                 1.4087
 IR Inten    --      9.3359                13.0634                 7.0720

                     73                     74                     75
                      A                      A                      A
 Frequencies --   1507.9159              1512.7154              1515.6954
 Red. masses --      1.0448                 1.2142                 1.0587
 Frc consts  --      1.3997                 1.6370                 1.4330
 IR Inten    --      4.9294                44.0670                 4.2627

                     76                     77                     78
                      A                      A                      A
 Frequencies --   1520.5598              1524.1697              1528.6963
 Red. masses --      1.0479                 1.2157                 1.0465
 Frc consts  --      1.4275                 1.6640                 1.4409
 IR Inten    --      5.2415                 9.7541                11.2116

                     79                     80                     81
                      A                      A                      A
 Frequencies --   1531.3027              1536.1951              1543.3089
 Red. masses --      1.0569                 1.0761                 1.0870
 Frc consts  --      1.4601                 1.4962                 1.5254
 IR Inten    --      1.4768                48.9128                10.2263

                     82                     83                     84
                      A                      A                      A
 Frequencies --   1562.5715              1644.4433              1675.1886
 Red. masses --      2.2227                 7.0441                 5.7622
 Frc consts  --      3.1976                11.2231                 9.5272
 IR Inten    --     96.6947                 1.5894                22.9181

                     85                     86                     87
                      A                      A                      A
 Frequencies --   2950.6194              3022.4397              3024.3832
 Red. masses --      1.0723                 1.0862                 1.0352
 Frc consts  --      5.5004                 5.8464                 5.5791
 IR Inten    --     55.6756                30.9668                59.8622

                     88                     89                     90
                      A                      A                      A
 Frequencies --   3048.8166              3048.8601              3052.6239
 Red. masses --      1.0365                 1.0372                 1.0586
 Frc consts  --      5.6764                 5.6804                 5.8122
 IR Inten    --     50.3230                11.0259                15.7086

                     91                     92                     93
                      A                      A                      A
 Frequencies --   3064.6457              3066.6693              3082.3771
 Red. masses --      1.0829                 1.0323                 1.1065
 Frc consts  --      5.9922                 5.7201                 6.1941
 IR Inten    --      9.2591                21.3314                42.9141

                     94                     95                     96
                      A                      A                      A
 Frequencies --   3099.5383              3100.6241              3108.9393
 Red. masses --      1.1052                 1.1003                 1.1003
 Frc consts  --      6.2559                 6.2326                 6.2661
 IR Inten    --     20.0699                19.2149                55.8447

                     97                     98                     99
                      A                      A                      A
 Frequencies --   3129.9540              3137.8648              3147.4113
 Red. masses --      1.1027                 1.1011                 1.1073
 Frc consts  --      6.3647                 6.3880                 6.4628
 IR Inten    --     17.5933                19.2929                12.0537

                    100                    101                    102
                      A                      A                      A
 Frequencies --   3154.6399              3155.9526              3166.6184
 Red. masses --      1.1036                 1.0998                 1.0894
 Frc consts  --      6.4711                 6.4538                 6.4364
 IR Inten    --      8.4831                29.2903                20.9288

                    103                    104                    105
                      A                      A                      A
 Frequencies --   3208.4614              3226.5567              3506.1190
 Red. masses --      1.0877                 1.0926                 1.0740
 Frc consts  --      6.5969                 6.7017                 7.7784
 IR Inten    --      5.4461                13.4996                 0.2387

 - Thermochemistry -
 -------------------
 Temperature   298.150 Kelvin.  Pressure   1.00000 Atm.
 Atom     1 has atomic number  6 and mass  12.00000

 Molecular mass:   239.13439 amu.
 Principal axes and moments of inertia in atomic units:
                           1         2         3
     Eigenvalues --  1245.48433********************
           X            0.99998  -0.00260   0.00548
           Y            0.00259   1.00000   0.00078
           Z           -0.00549  -0.00077   0.99998
 This molecule is an asymmetric top.
 Rotational symmetry number  1.
 Warning -- assumption of classical behavior for rotation
           may cause significant error
 Rotational temperatures (Kelvin)      0.06954     0.00676     0.00643
 Rotational constants (GHZ):           1.44903     0.14094     0.13388
 Zero-point vibrational energy     846824.1 (Joules/Mol)
                                  202.39582 (Kcal/Mol)
 Warning -- explicit consideration of  27 degrees of freedom as
           vibrations may cause significant error
 Vibrational temperatures:     28.46    35.65    59.78    73.29    98.37
          (Kelvin)            137.36   171.66   205.76   225.67   237.85
                              272.12   313.82   330.37   339.77   371.23
                              377.16   408.93   435.98   496.13   526.18
                              551.20   638.01   644.81   658.45   732.95
                              786.14   837.16   893.93   977.21  1038.42
                             1047.87  1101.05  1114.03  1117.15  1196.31
                             1266.46  1292.99  1306.38  1367.99  1382.26
                             1412.30  1419.70  1441.92  1485.89  1509.12
                             1515.08  1548.17  1554.43  1616.76  1671.74
                             1677.95  1678.95  1707.92  1720.57  1757.91
                             1789.81  1815.56  1859.82  1875.19  1899.24
                             1916.81  1953.58  1973.85  1995.92  2019.99
                             2030.53  2068.51  2077.91  2118.44  2157.65
                             2159.57  2160.97  2169.55  2176.46  2180.75
                             2187.75  2192.94  2199.45  2203.20  2210.24
                             2220.48  2248.19  2365.99  2410.22  4245.28
                             4348.62  4351.41  4386.57  4386.63  4392.04
                             4409.34  4412.25  4434.85  4459.54  4461.11
                             4473.07  4503.31  4514.69  4528.42  4538.82
                             4540.71  4556.06  4616.26  4642.30  5044.52

 Zero-point correction=                           0.322538 (Hartree/Particle)
 Thermal correction to Energy=                    0.340974
 Thermal correction to Enthalpy=                  0.341918
 Thermal correction to Gibbs Free Energy=         0.273795
 Sum of electronic and zero-point Energies=          -1035.928555
 Sum of electronic and thermal Energies=             -1035.910119
 Sum of electronic and thermal Enthalpies=           -1035.909175
 Sum of electronic and thermal Free Energies=        -1035.977298

                     E (Thermal)             CV                S
                      KCal/Mol        Cal/Mol-Kelvin    Cal/Mol-Kelvin
 Total                  213.964             67.245            143.376
 Electronic               0.000              0.000              0.000
 Translational            0.889              2.981             42.317
 Rotational               0.889              2.981             33.730
 Vibrational            212.187             61.284             67.329
 Vibration     1          0.593              1.986              6.656
 Vibration     2          0.593              1.985              6.209
 Vibration     3          0.594              1.981              5.184
 Vibration     4          0.595              1.977              4.781
 Vibration     5          0.598              1.969              4.200
 Vibration     6          0.603              1.952              3.545
 Vibration     7          0.609              1.933              3.111
 Vibration     8          0.616              1.910              2.763
 Vibration     9          0.621              1.895              2.587
 Vibration    10          0.624              1.885              2.488
 Vibration    11          0.633              1.855              2.236
 Vibration    12          0.646              1.813              1.975
 Vibration    13          0.652              1.796              1.882
 Vibration    14          0.655              1.785              1.832
 Vibration    15          0.667              1.749              1.675
 Vibration    16          0.669              1.742              1.647
 Vibration    17          0.683              1.703              1.508
 Vibration    18          0.694              1.668              1.400
 Vibration    19          0.723              1.586              1.190
 Vibration    20          0.739              1.543              1.098
 Vibration    21          0.752              1.506              1.027
 Vibration    22          0.803              1.375              0.816
 Vibration    23          0.807              1.365              0.801
 Vibration    24          0.816              1.344              0.773
 Vibration    25          0.865              1.229              0.635
 Vibration    26          0.902              1.148              0.552
 Vibration    27          0.939              1.071              0.482

 Optimization completed.
    -- Stationary point found.
 Normal termination of Gaussian 16 at Fri Dec 11 01:37:45 2020.

 ----------------------------------------------------------------------
 # B3LYP/6-311++G(d,p) empiricaldispersion=gd3bj scf=xqc pop=npa geom=c
 heck
 ----------------------------------------------------------------------

 ---------------------------------------
 CID_115757434_JID_6895_Energie_neutraal
 ---------------------------------------
 Structure from the checkpoint file:  "JID_6895.chk"
 Charge =  0 Multiplicity = 1

 SCF Done:  E(RB3LYP) =  -1036.45522564     A.U. after   14 cycles
 Normal termination of Gaussian 16 at Fri Dec 11 01:44:19 2020.

 ----------------------------------------------------------------------
 # B3LYP/6-311++G(d,p) empiricaldispersion=gd3bj scf=xqc pop=npa geom=c
 heck
 ----------------------------------------------------------------------

 -------------------------------------
 CID_115757434_JID_6895_Energie_kation
 -------------------------------------
 Structure from the checkpoint file:  "JID_6895.chk"
 Charge =  1 Multiplicity = 2

 SCF Done:  E(UB3LYP) =  -1036.18781904     A.U. after   25 cycles
 Normal termination of Gaussian 16 at Fri Dec 11 02:01:04 2020.
 Gaussian 16:  ES64L-G16RevA.03 25-Dec-2016

 ----------------------------------------------------------------------
 # B3LYP/6-311++G(d,p) empiricaldispersion=gd3bj scf=xqc pop=npa geom=c
 heck
 ----------------------------------------------------------------------

 ------------------------------------
 CID_115757434_JID_6895_Energie_anion
 ------------------------------------
 Structure from the checkpoint file:  "JID_6895.chk"
 Charge = -1 Multiplicity = 2

                         Standard orientation:
 ---------------------------------------------------------------------
 Center     Atomic      Atomic             Coordinates (Angstroms)
 Number     Number       Type             X           Y           Z
 ---------------------------------------------------------------------
      1          6           0       -4.046467    2.343618    0.066480
      2          6           0       -3.200787    1.106901   -0.083567
      3          6           0       -3.790719   -0.165947    0.039996
      4          6           0       -3.017332   -1.322652   -0.087311
      5          6           0       -1.649264   -1.219466   -0.345284
      6          6           0       -1.038569    0.027680   -0.476400
      7          6           0       -1.832381    1.172654   -0.336164
      8          6           0        0.439156    0.143456   -0.777376
      9          7           0        1.213634   -0.825803   -0.005959
     10          6           0        2.643268   -0.850565   -0.290229
     11          6           0        3.415668    0.466079   -0.050841
     12          6           0        3.245591    1.006138    1.368855
     13         16           0        5.184547    0.304223   -0.554383
     14          6           0        5.843559   -0.856028    0.694539
     15          8           0       -5.136076   -0.162461    0.292902
     16          6           0       -5.790086   -1.411065    0.430681
     17          1           0       -4.850589    2.368045   -0.678328
     18          1           0       -4.532519    2.377080    1.048619
     19          1           0       -3.439790    3.246518   -0.050489
     20          1           0       -3.466955   -2.303790    0.011804
     21          1           0       -1.043255   -2.115452   -0.433911
     22          1           0       -1.368780    2.153493   -0.425472
     23          1           0        0.631373   -0.071778   -1.839187
     24          1           0        0.749127    1.192547   -0.620565
     25          1           0        1.041389   -0.687057    0.987262
     26          1           0        3.082803   -1.642603    0.327516
     27          1           0        2.779005   -1.148419   -1.336436
     28          1           0        3.054608    1.221086   -0.759226
     29          1           0        3.579454    0.276861    2.116015
     30          1           0        3.817693    1.927099    1.510461
     31          1           0        2.190646    1.226368    1.571807
     32          1           0        5.778958   -0.444049    1.704990
     33          1           0        5.343993   -1.827528    0.658449
     34          1           0        6.898067   -0.999978    0.445636
     35          1           0       -5.711611   -2.010552   -0.485941
     36          1           0       -5.383464   -1.988516    1.271585
     37          1           0       -6.839546   -1.181455    0.623758
 ---------------------------------------------------------------------

 SCF Done:  E(UB3LYP) =  -1036.44349706     A.U. after   33 cycles
 SCF Done:  E(UB3LYP) =  -1036.44349706     a.u. after    1 cycles

 The electronic state is 2-A.
 Alpha  occ. eigenvalues --  -88.74934 -19.06750 -14.21566 -10.14508 -10.13299
 Alpha  occ. eigenvalues --  -10.11867 -10.11536 -10.11043 -10.10204 -10.09492
 Alpha  occ. eigenvalues --  -10.08860 -10.08701 -10.08569 -10.08386 -10.08336
 Alpha  occ. eigenvalues --  -10.08059  -7.83532  -5.79938  -5.79564  -5.78894
 Alpha  occ. eigenvalues --   -0.98306  -0.82919  -0.77229  -0.72871  -0.69571
 Alpha  occ. eigenvalues --   -0.67494  -0.65601  -0.63042  -0.60935  -0.59166
 Alpha  occ. eigenvalues --   -0.57371  -0.54437  -0.51710  -0.48876  -0.47503
 Alpha  occ. eigenvalues --   -0.44495  -0.42039  -0.41276  -0.38425  -0.37625
 Alpha  occ. eigenvalues --   -0.37116  -0.36436  -0.36117  -0.35053  -0.34046
 Alpha  occ. eigenvalues --   -0.33556  -0.33459  -0.32545  -0.32251  -0.31620
 Alpha  occ. eigenvalues --   -0.30763  -0.30170  -0.28617  -0.27639  -0.27632
 Alpha  occ. eigenvalues --   -0.27140  -0.26234  -0.25203  -0.24136  -0.23250
 Alpha  occ. eigenvalues --   -0.22297  -0.16561  -0.15458  -0.13579  -0.12890
 Alpha  occ. eigenvalues --    0.03779
 Alpha virt. eigenvalues --    0.04860   0.06044   0.06775   0.07119   0.07399
 Alpha virt. eigenvalues --    0.07592   0.08057   0.08564   0.08911   0.09210
 Alpha virt. eigenvalues --    0.09615   0.09988   0.10426   0.10668   0.10940

  Beta  occ. eigenvalues --  -88.74928 -19.06742 -14.21558 -10.14509 -10.13248
  Beta  occ. eigenvalues --  -10.11865 -10.11531 -10.11032 -10.10142 -10.09489
  Beta  occ. eigenvalues --  -10.08860 -10.08696 -10.08558 -10.08377 -10.08329
  Beta  occ. eigenvalues --  -10.08027  -7.83527  -5.79927  -5.79555  -5.78891
  Beta  occ. eigenvalues --   -0.98290  -0.82906  -0.77219  -0.72841  -0.69554
  Beta  occ. eigenvalues --   -0.67475  -0.65544  -0.62993  -0.60911  -0.59125
  Beta  occ. eigenvalues --   -0.57323  -0.54388  -0.51676  -0.48854  -0.47466
  Beta  occ. eigenvalues --   -0.44465  -0.42020  -0.41251  -0.38395  -0.37601
  Beta  occ. eigenvalues --   -0.37083  -0.36416  -0.36093  -0.35020  -0.34004
  Beta  occ. eigenvalues --   -0.33528  -0.33429  -0.32512  -0.32215  -0.31596
  Beta  occ. eigenvalues --   -0.30724  -0.30155  -0.28579  -0.27614  -0.27606
  Beta  occ. eigenvalues --   -0.27116  -0.26218  -0.25175  -0.24110  -0.23231
  Beta  occ. eigenvalues --   -0.22254  -0.16543  -0.15442  -0.13562  -0.12874
  Beta virt. eigenvalues --    0.05681   0.06089   0.06424   0.06914   0.07132
  Beta virt. eigenvalues --    0.07632   0.07909   0.08409   0.08877   0.09297
  Beta virt. eigenvalues --    0.09368   0.09903   0.10236   0.10590   0.10880

 Mulliken charges and spin densities:
               1          2
     1  C    0.041585  -0.387804
     2  C   -0.179494   0.600164
     3  C   -1.556024   0.656312
     4  C    0.278689  -0.432642
     5  C    0.003303  -0.278544
     6  C    0.936535  -0.629895
     7  C   -0.239515   0.028929
     8  C    0.107486  -0.407336
     9  N    0.046684   0.007809
    10  C   -0.269804  -0.614710
    11  C   -0.320853   1.011874
    12  C    0.463886  -1.165839
    13  S   -0.330394   0.270133
    14  C    0.625843  -1.242142
    15  O   -0.213565   0.066481
    16  C    0.985386  -1.307192
    17  H    0.087119   0.079630
    18  H    0.065966   0.104522
    19  H    0.009867   0.131850
    20  H   -0.045283   0.227872
    21  H   -0.057835   0.255742
    22  H   -0.033375   0.126152
    23  H    0.136641   0.007816
    24  H    0.141351  -0.012925
    25  H    0.160532   0.049514
    26  H    0.080255   0.118816
    27  H    0.102007   0.030879
    28  H    0.171104   0.056624
    29  H   -0.187775   0.369404
    30  H   -0.051170   0.197774
    31  H    0.019712   0.121263
    32  H   -0.302538   0.474495
    33  H   -0.285443   0.443292
    34  H   -0.243766   0.401935
    35  H   -0.238363   0.393448
    36  H   -0.256286   0.415392
    37  H   -0.652469   0.830908
 Sum of Mulliken charges =  -1.00000   1.00000

 Dipole moment (field-independent basis, Debye):
    X=              0.7068    Y=              3.8313    Z=             -3.5678  Tot=              5.2828
 Quadrupole moment (field-independent basis, Debye-Ang):
   XX=           -279.0880   YY=           -143.4073   ZZ=           -141.1052
   XY=             -7.4167   XZ=             -5.9172   YZ=              1.2777

 Summary of Natural Population Analysis:

                                       Natural Population
                Natural  -----------------------------------------------
    Atom  No    Charge         Core      Valence    Rydberg      Total
 -----------------------------------------------------------------------
      C    1   -0.29082      0.99964     2.28620    0.00499     3.29082
      C    2   -0.03272      0.99949     2.02479    0.00844     3.03272
      C    3    0.16083      0.99934     1.82688    0.01295     2.83917
      C    4   -0.13740      0.99952     2.12916    0.00871     3.13740
      C    5   -0.09015      0.99952     2.08201    0.00862     3.09015
      C    6   -0.03600      0.99950     2.02715    0.00935     3.03600
      C    7   -0.09310      0.99948     2.08555    0.00807     3.09310
      C    8   -0.09080      0.99959     2.08162    0.00959     3.09080
      N    9   -0.33559      0.99975     2.82497    0.01087     3.83559
      C   10   -0.09311      0.99959     2.07952    0.01401     3.09311
      C   11   -0.17677      0.99958     2.16448    0.01272     3.17677
      C   12   -0.29730      0.99963     2.28995    0.00771     3.29730
      S   13    0.08605      4.99962     2.89571    0.01862     7.91395
      C   14   -0.35343      0.99962     2.34716    0.00665     3.35343
      O   15   -0.27507      0.99986     3.26472    0.01049     4.27507
      C   16   -0.10036      0.99960     2.09148    0.00928     3.10036
      H   17    0.10572      0.00000     0.39278    0.00150     0.39428
      H   18    0.10682      0.00000     0.39161    0.00157     0.39318
      H   19    0.09811      0.00000     0.40102    0.00087     0.40189
      H   20    0.10650      0.00000     0.39227    0.00123     0.39350
      H   21    0.10845      0.00000     0.39016    0.00139     0.39155
      H   22    0.09706      0.00000     0.40181    0.00113     0.40294
      H   23    0.09463      0.00000     0.40423    0.00114     0.40537
      H   24    0.07962      0.00000     0.41788    0.00249     0.42038
      H   25    0.17480      0.00000     0.32263    0.00257     0.32520
      H   26    0.09697      0.00000     0.40187    0.00116     0.40303
      H   27    0.09542      0.00000     0.40321    0.00137     0.40458
      H   28    0.10158      0.00000     0.39713    0.00129     0.39842
      H   29    0.10197      0.00000     0.39666    0.00136     0.39803
      H   30    0.10527      0.00000     0.39346    0.00127     0.39473
      H   31    0.10133      0.00000     0.39747    0.00120     0.39867
      H   32    0.10416      0.00000     0.39366    0.00218     0.39584
      H   33    0.10175      0.00000     0.39640    0.00185     0.39825
      H   34    0.10910      0.00000     0.38975    0.00116     0.39090
      H   35    0.08464      0.00000     0.41350    0.00186     0.41536
      H   36    0.08579      0.00000     0.41223    0.00198     0.41421
      H   37    0.09607      0.00000     0.40226    0.00168     0.40393
 =======================================================================
   * Total *    0.00000     19.99333    44.81334    0.19333    65.00000

 Normal termination of Gaussian 16 at Fri Dec 11 02:22:24 2020.
