 Gaussian 16, Revision A.03,

 -----------------------------------------------------------
 # opt freq B3LYP/6-31G(d) empiricaldispersion=gd3bj scf=xqc
 -----------------------------------------------------------

 -------------------------------
 CID_28303779_JID_10589_neutraal
 -------------------------------
 Symbolic Z-matrix:
 Charge =  0 Multiplicity = 1

 SCF Done:  E(RB3LYP) =  -823.596637387     A.U. after   14 cycles
 SCF Done:  E(RB3LYP) =  -823.602760870     A.U. after   13 cycles
 SCF Done:  E(RB3LYP) =  -823.603329365     A.U. after   12 cycles
 SCF Done:  E(RB3LYP) =  -823.604317746     A.U. after   12 cycles
 SCF Done:  E(RB3LYP) =  -823.604747084     A.U. after   12 cycles
 SCF Done:  E(RB3LYP) =  -823.604827768     A.U. after   12 cycles
 SCF Done:  E(RB3LYP) =  -823.604943409     A.U. after   11 cycles
 SCF Done:  E(RB3LYP) =  -823.604990642     A.U. after   11 cycles
 SCF Done:  E(RB3LYP) =  -823.605048214     A.U. after   11 cycles
 SCF Done:  E(RB3LYP) =  -823.605072773     A.U. after   10 cycles
 SCF Done:  E(RB3LYP) =  -823.605082786     A.U. after    9 cycles
 SCF Done:  E(RB3LYP) =  -823.605083495     A.U. after    8 cycles
 SCF Done:  E(RB3LYP) =  -823.605083587     A.U. after    8 cycles
 SCF Done:  E(RB3LYP) =  -823.605083646     A.U. after    7 cycles
 Optimization completed.
    -- Stationary point found.
 Normal termination of Gaussian 16 at Sat Dec 12 16:03:38 2020.

 --------------------------------------------------------------------
 #N Geom=AllCheck Guess=TCheck SCRF=Check GenChk RB3LYP/6-31G(d) Freq
 --------------------------------------------------------------------

 Structure from the checkpoint file:  "JID_10589.chk"
 -------------------------------
 CID_28303779_JID_10589_neutraal
 -------------------------------
 Charge =  0 Multiplicity = 1

 SCF Done:  E(RB3LYP) =  -823.605083646     A.U. after    1 cycles

  Exact polarizability: 211.157 -33.495 211.237  27.925  26.986 126.556
 Approx polarizability: 330.382 -58.308 340.548  61.784  63.005 219.519

                      1                      2                      3
                      A                      A                      A
 Frequencies --     17.5773                32.5591                49.0789
 Red. masses --      4.8539                 4.2622                 4.4645
 Frc consts  --      0.0009                 0.0027                 0.0063
 IR Inten    --      0.0840                 0.3350                 0.6960

                      4                      5                      6
                      A                      A                      A
 Frequencies --     70.8789                78.4650               101.2790
 Red. masses --      4.3523                 3.4988                 4.3840
 Frc consts  --      0.0129                 0.0127                 0.0265
 IR Inten    --      0.0252                 0.9712                 0.6287

                      7                      8                      9
                      A                      A                      A
 Frequencies --    109.8996               173.4144               213.1290
 Red. masses --      3.8730                 4.3570                 3.4019
 Frc consts  --      0.0276                 0.0772                 0.0910
 IR Inten    --      3.9306                 0.8302                 2.3720

                     10                     11                     12
                      A                      A                      A
 Frequencies --    229.3542               254.2095               268.3123
 Red. masses --      4.2333                 1.9931                 3.3756
 Frc consts  --      0.1312                 0.0759                 0.1432
 IR Inten    --      0.2254                13.2710                 0.8075

                     13                     14                     15
                      A                      A                      A
 Frequencies --    290.8828               320.4662               326.5341
 Red. masses --      1.9208                 2.6097                 1.5139
 Frc consts  --      0.0958                 0.1579                 0.0951
 IR Inten    --     13.8629                 6.5787                24.9071

                     16                     17                     18
                      A                      A                      A
 Frequencies --    366.9773               406.5768               414.7517
 Red. masses --      2.8959                 3.8983                 2.9872
 Frc consts  --      0.2298                 0.3797                 0.3028
 IR Inten    --      0.6882                 4.1003                 0.1139

                     19                     20                     21
                      A                      A                      A
 Frequencies --    455.1014               464.6786               486.9262
 Red. masses --      3.2322                 3.7376                 3.3838
 Frc consts  --      0.3944                 0.4755                 0.4727
 IR Inten    --      6.5733                 0.5544                 5.8223

                     22                     23                     24
                      A                      A                      A
 Frequencies --    528.4768               550.0200               566.7210
 Red. masses --      4.1581                 4.1255                 3.3248
 Frc consts  --      0.6842                 0.7353                 0.6292
 IR Inten    --      1.6951                 4.1512                 1.3283

                     25                     26                     27
                      A                      A                      A
 Frequencies --    590.5326               628.4041               638.0636
 Red. masses --      4.1283                 4.3690                 6.2396
 Frc consts  --      0.8482                 1.0165                 1.4967
 IR Inten    --      0.6330                 2.0175                 0.0943

                     28                     29                     30
                      A                      A                      A
 Frequencies --    671.4137               707.6748               720.9387
 Red. masses --      5.2057                 2.5938                 2.0454
 Frc consts  --      1.3826                 0.7653                 0.6263
 IR Inten    --      1.9103                 8.7619                18.3053

                     31                     32                     33
                      A                      A                      A
 Frequencies --    746.6188               750.3437               760.1117
 Red. masses --      2.6683                 1.6752                 1.8596
 Frc consts  --      0.8764                 0.5557                 0.6330
 IR Inten    --      3.1125                24.9147                51.8090

                     34                     35                     36
                      A                      A                      A
 Frequencies --    775.4712               780.0230               825.5617
 Red. masses --      3.0389                 3.6667                 2.1890
 Frc consts  --      1.0767                 1.3145                 0.8790
 IR Inten    --      7.7037                12.6553                 4.9558

                     37                     38                     39
                      A                      A                      A
 Frequencies --    860.1057               864.8247               875.3479
 Red. masses --      1.2570                 1.5006                 2.1102
 Frc consts  --      0.5479                 0.6613                 0.9527
 IR Inten    --      0.3989                 0.2429                38.4724

                     40                     41                     42
                      A                      A                      A
 Frequencies --    886.4173               900.8540               916.6118
 Red. masses --      2.6687                 1.7520                 2.1083
 Frc consts  --      1.2354                 0.8377                 1.0437
 IR Inten    --      0.0738                55.8825                 2.1268

                     43                     44                     45
                      A                      A                      A
 Frequencies --    929.1656               933.1242               964.9747
 Red. masses --      2.3187                 1.3687                 1.3525
 Frc consts  --      1.1794                 0.7022                 0.7420
 IR Inten    --     11.9935                 2.5160                 0.2315

                     46                     47                     48
                      A                      A                      A
 Frequencies --    969.9728               990.6268              1015.1241
 Red. masses --      1.2259                 1.2563                 2.0078
 Frc consts  --      0.6796                 0.7264                 1.2190
 IR Inten    --      0.0881                 0.2210                 7.9876

                     49                     50                     51
                      A                      A                      A
 Frequencies --   1023.8743              1027.1920              1042.2708
 Red. masses --      4.6402                 2.1454                 2.0997
 Frc consts  --      2.8660                 1.3337                 1.3439
 IR Inten    --      3.3560                40.4015                 8.1713

                     52                     53                     54
                      A                      A                      A
 Frequencies --   1049.1757              1060.2226              1069.3487
 Red. masses --      2.3579                 2.2995                 1.9796
 Frc consts  --      1.5292                 1.5230                 1.3337
 IR Inten    --      1.1629                 6.6550                 1.7403

                     55                     56                     57
                      A                      A                      A
 Frequencies --   1091.3115              1129.5109              1138.2082
 Red. masses --      1.9720                 1.9306                 1.9502
 Frc consts  --      1.3837                 1.4512                 1.4886
 IR Inten    --      6.3447                 2.0271                 1.0571

                     58                     59                     60
                      A                      A                      A
 Frequencies --   1172.1782              1185.6831              1192.9904
 Red. masses --      1.5542                 1.2158                 1.2866
 Frc consts  --      1.2582                 1.0071                 1.0789
 IR Inten    --      4.4673                 4.0173                 7.4026

                     61                     62                     63
                      A                      A                      A
 Frequencies --   1193.5796              1217.0097              1223.0285
 Red. masses --      1.1121                 1.1906                 1.2499
 Frc consts  --      0.9334                 1.0390                 1.1016
 IR Inten    --      0.3820                 0.5739                 1.2782

                     64                     65                     66
                      A                      A                      A
 Frequencies --   1234.5803              1257.9462              1276.3008
 Red. masses --      2.4773                 1.8661                 2.2668
 Frc consts  --      2.2247                 1.7399                 2.1755
 IR Inten    --      0.2534                 0.2637                19.3022

                     67                     68                     69
                      A                      A                      A
 Frequencies --   1312.5074              1322.3285              1331.3840
 Red. masses --      1.6499                 1.2882                 1.4277
 Frc consts  --      1.6746                 1.3271                 1.4910
 IR Inten    --     11.4308                 7.9351                 3.9237

                     70                     71                     72
                      A                      A                      A
 Frequencies --   1344.0684              1368.1556              1376.0403
 Red. masses --      2.2397                 2.2876                 2.4443
 Frc consts  --      2.3839                 2.5229                 2.7268
 IR Inten    --      6.1181                 2.3185                25.5666

                     73                     74                     75
                      A                      A                      A
 Frequencies --   1390.8933              1409.4533              1415.1846
 Red. masses --      2.0002                 2.0860                 1.6565
 Frc consts  --      2.2799                 2.4416                 1.9546
 IR Inten    --     17.3459                24.9791                11.9810

                     76                     77                     78
                      A                      A                      A
 Frequencies --   1420.6315              1436.3548              1467.7960
 Red. masses --      1.5834                 1.4256                 2.1581
 Frc consts  --      1.8828                 1.7329                 2.7393
 IR Inten    --      8.1413                26.9216                52.3263

                     79                     80                     81
                      A                      A                      A
 Frequencies --   1497.2541              1499.6796              1512.6410
 Red. masses --      2.6418                 1.8070                 1.1765
 Frc consts  --      3.4893                 2.3945                 1.5861
 IR Inten    --     44.5111                 0.3775                 7.9012

                     82                     83                     84
                      A                      A                      A
 Frequencies --   1517.7262              1527.2458              1532.5675
 Red. masses --      1.1429                 1.1555                 2.9171
 Frc consts  --      1.5511                 1.5879                 4.0368
 IR Inten    --      3.6648                17.1623                 1.3059

                     85                     86                     87
                      A                      A                      A
 Frequencies --   1537.1554              1550.2217              1574.3368
 Red. masses --      1.1125                 2.1993                 7.1224
 Frc consts  --      1.5488                 3.1141                10.4009
 IR Inten    --      6.7167                 8.2983                18.9234

                     88                     89                     90
                      A                      A                      A
 Frequencies --   1640.6499              1645.4851              1668.9466
 Red. masses --      6.4598                 5.4315                 5.5970
 Frc consts  --     10.2447                 8.6647                 9.1853
 IR Inten    --      1.7684                 0.7631                 4.4196

                     91                     92                     93
                      A                      A                      A
 Frequencies --   1674.0790              1689.5732              3025.3001
 Red. masses --      5.8872                 1.1256                 1.0657
 Frc consts  --      9.7210                 1.8932                 5.7465
 IR Inten    --     11.2854                32.9001                51.1379

                     94                     95                     96
                      A                      A                      A
 Frequencies --   3034.4149              3050.5156              3064.0832
 Red. masses --      1.0696                 1.0676                 1.0705
 Frc consts  --      5.8026                 5.8534                 5.9216
 IR Inten    --     25.4418                19.6719                50.1445

                     97                     98                     99
                      A                      A                      A
 Frequencies --   3082.9028              3096.0097              3117.6712
 Red. masses --      1.0967                 1.0923                 1.0957
 Frc consts  --      6.1414                 6.1687                 6.2747
 IR Inten    --     30.1927                24.5417                 0.4615

                    100                    101                    102
                      A                      A                      A
 Frequencies --   3139.7727              3175.7751              3183.7279
 Red. masses --      1.0957                 1.0851                 1.0866
 Frc consts  --      6.3640                 6.4480                 6.4891
 IR Inten    --     15.3306                 5.0963                 1.4272

                    103                    104                    105
                      A                      A                      A
 Frequencies --   3185.6141              3191.0485              3199.4131
 Red. masses --      1.0858                 1.0906                 1.0939
 Frc consts  --      6.4919                 6.5429                 6.5974
 IR Inten    --      4.5374                13.4935                41.6890

                    106                    107                    108
                      A                      A                      A
 Frequencies --   3200.1628              3210.6072              3214.0519
 Red. masses --      1.0901                 1.0979                 1.0938
 Frc consts  --      6.5772                 6.6680                 6.6571
 IR Inten    --     16.1382                16.3802                26.1441

                    109                    110                    111
                      A                      A                      A
 Frequencies --   3219.2601              3459.3608              3547.3362
 Red. masses --      1.0953                 1.0497                 1.0927
 Frc consts  --      6.6883                 7.4011                 8.1016
 IR Inten    --      9.4672                 3.7111                 1.3684

 - Thermochemistry -
 -------------------
 Temperature   298.150 Kelvin.  Pressure   1.00000 Atm.
 Atom     1 has atomic number  6 and mass  12.00000

 Molecular mass:   265.15790 amu.
 Principal axes and moments of inertia in atomic units:
                           1         2         3
     Eigenvalues --  3740.666275580.536058164.17132
           X            0.99877  -0.04902   0.00712
           Y            0.04894   0.99875   0.01024
           Z           -0.00761  -0.00987   0.99992
 This molecule is an asymmetric top.
 Rotational symmetry number  1.
 Warning -- assumption of classical behavior for rotation
           may cause significant error
 Rotational temperatures (Kelvin)      0.02315     0.01552     0.01061
 Rotational constants (GHZ):           0.48247     0.32340     0.22106
 Zero-point vibrational energy     874005.9 (Joules/Mol)
                                  208.89242 (Kcal/Mol)
 Warning -- explicit consideration of  25 degrees of freedom as
           vibrations may cause significant error
 Vibrational temperatures:     25.29    46.85    70.61   101.98   112.89
          (Kelvin)            145.72   158.12   249.50   306.65   329.99
                              365.75   386.04   418.52   461.08   469.81
                              528.00   584.97   596.74   654.79   668.57
                              700.58   760.36   791.36   815.39   849.64
                              904.13   918.03   966.01  1018.19  1037.27
                             1074.22  1079.58  1093.63  1115.73  1122.28
                             1187.80  1237.50  1244.29  1259.43  1275.36
                             1296.13  1318.80  1336.86  1342.56  1388.38
                             1395.57  1425.29  1460.54  1473.13  1477.90
                             1499.60  1509.53  1525.42  1538.55  1570.15
                             1625.11  1637.63  1686.50  1705.93  1716.45
                             1717.29  1751.01  1759.67  1776.29  1809.90
                             1836.31  1888.41  1902.54  1915.56  1933.81
                             1968.47  1979.82  2001.19  2027.89  2036.13
                             2043.97  2066.59  2111.83  2154.21  2157.70
                             2176.35  2183.67  2197.37  2205.02  2211.62
                             2230.42  2265.12  2360.53  2367.49  2401.24
                             2408.63  2430.92  4352.73  4365.85  4389.01
                             4408.53  4435.61  4454.47  4485.63  4517.43
                             4569.23  4580.67  4583.39  4591.21  4603.24
                             4604.32  4619.35  4624.30  4631.80  4977.25
                             5103.83

 Zero-point correction=                           0.332891 (Hartree/Particle)
 Thermal correction to Energy=                    0.349885
 Thermal correction to Enthalpy=                  0.350829
 Thermal correction to Gibbs Free Energy=         0.286578
 Sum of electronic and zero-point Energies=           -823.272192
 Sum of electronic and thermal Energies=              -823.255199
 Sum of electronic and thermal Enthalpies=            -823.254255
 Sum of electronic and thermal Free Energies=         -823.318505

                     E (Thermal)             CV                S
                      KCal/Mol        Cal/Mol-Kelvin    Cal/Mol-Kelvin
 Total                  219.556             67.474            135.226
 Electronic               0.000              0.000              0.000
 Translational            0.889              2.981             42.625
 Rotational               0.889              2.981             33.499
 Vibrational            217.778             61.512             59.102
 Vibration     1          0.593              1.986              6.891
 Vibration     2          0.594              1.983              5.667
 Vibration     3          0.595              1.978              4.854
 Vibration     4          0.598              1.968              4.129
 Vibration     5          0.600              1.964              3.929
 Vibration     6          0.604              1.948              3.430
 Vibration     7          0.606              1.941              3.271
 Vibration     8          0.627              1.875              2.398
 Vibration     9          0.644              1.821              2.017
 Vibration    10          0.652              1.796              1.884
 Vibration    11          0.665              1.756              1.701
 Vibration    12          0.673              1.731              1.607
 Vibration    13          0.687              1.691              1.469
 Vibration    14          0.706              1.634              1.308
 Vibration    15          0.710              1.622              1.277
 Vibration    16          0.740              1.540              1.092
 Vibration    17          0.771              1.456              0.939
 Vibration    18          0.778              1.438              0.910
 Vibration    19          0.813              1.350              0.780
 Vibration    20          0.822              1.328              0.753
 Vibration    21          0.843              1.279              0.692
 Vibration    22          0.883              1.187              0.591
 Vibration    23          0.905              1.140              0.544
 Vibration    24          0.923              1.103              0.511
 Vibration    25          0.948              1.052              0.466

                           ! Non-Optimized Parameters !
 Normal termination of Gaussian 16 at Sat Dec 12 16:27:48 2020.

 ----------------------------------------------------------------------
 # B3LYP/6-311++G(d,p) empiricaldispersion=gd3bj scf=xqc pop=npa geom=c
 heck
 ----------------------------------------------------------------------

 ---------------------------------------
 CID_28303779_JID_10589_Energie_neutraal
 ---------------------------------------
 Structure from the checkpoint file:  "JID_10589.chk"
 Charge =  0 Multiplicity = 1

 SCF Done:  E(RB3LYP) =  -823.822698193     A.U. after   15 cycles
 Normal termination of Gaussian 16 at Sat Dec 12 16:36:55 2020.

 ----------------------------------------------------------------------
 # B3LYP/6-311++G(d,p) empiricaldispersion=gd3bj scf=xqc pop=npa geom=c
 heck
 ----------------------------------------------------------------------

 -------------------------------------
 CID_28303779_JID_10589_Energie_kation
 -------------------------------------
 Structure from the checkpoint file:  "JID_10589.chk"
 Charge =  1 Multiplicity = 2

 SCF Done:  E(UB3LYP) =  -823.540971407     A.U. after   33 cycles
 SCF Done:  E(UB3LYP) =  -823.540971881     a.u. after    2 cycles
 Normal termination of Gaussian 16 at Sat Dec 12 17:28:35 2020.
 Gaussian 16:  ES64L-G16RevA.03 25-Dec-2016

 ----------------------------------------------------------------------
 # B3LYP/6-311++G(d,p) empiricaldispersion=gd3bj scf=xqc pop=npa geom=c
 heck
 ----------------------------------------------------------------------

 ------------------------------------
 CID_28303779_JID_10589_Energie_anion
 ------------------------------------
 Structure from the checkpoint file:  "JID_10589.chk"
 Charge = -1 Multiplicity = 2

                         Standard orientation:
 ---------------------------------------------------------------------
 Center     Atomic      Atomic             Coordinates (Angstroms)
 Number     Number       Type             X           Y           Z
 ---------------------------------------------------------------------
      1          6           0       -4.100053    0.093138    0.124303
      2          6           0       -3.798162   -1.027326   -0.652193
      3          6           0       -2.623022   -1.743478   -0.422664
      4          6           0       -1.722655   -1.350551    0.576966
      5          6           0       -2.040478   -0.226443    1.347017
      6          6           0       -3.217784    0.487959    1.129709
      7          6           0       -0.432656   -2.102956    0.826691
      8          6           0        0.351062   -2.517663   -0.427335
      9          6           0        0.660283   -1.363876   -1.391090
     10          7           0        1.276300   -0.203450   -0.757015
     11          6           0        0.677171    1.037232   -0.571229
     12          6           0       -0.576667    1.542861   -0.920044
     13          6           0       -0.840319    2.862963   -0.568826
     14          6           0        0.112696    3.654559    0.103891
     15          6           0        1.361165    3.146689    0.444969
     16          6           0        1.647729    1.819719    0.101083
     17          7           0        2.799912    1.074757    0.307140
     18          6           0        2.545917   -0.107346   -0.213291
     19          6           0        3.521505   -1.241116   -0.164031
     20          7           0        3.296850   -2.046841    1.050681
     21          1           0       -5.013373    0.653293   -0.055489
     22          1           0       -4.479212   -1.345833   -1.436959
     23          1           0       -2.403891   -2.616366   -1.032515
     24          1           0       -1.341349    0.107601    2.108871
     25          1           0       -3.433742    1.365145    1.732939
     26          1           0        0.223120   -1.491955    1.455815
     27          1           0       -0.641476   -3.013291    1.405849
     28          1           0        1.285209   -2.974585   -0.089426
     29          1           0       -0.198182   -3.277354   -0.998248
     30          1           0        1.313995   -1.717528   -2.196989
     31          1           0       -0.259199   -1.007214   -1.859396
     32          1           0       -1.330142    0.935916   -1.410203
     33          1           0       -1.810017    3.287731   -0.811360
     34          1           0       -0.137369    4.680304    0.359633
     35          1           0        2.102526    3.748531    0.961113
     36          1           0        3.393882   -1.896381   -1.033368
     37          1           0        4.524693   -0.795875   -0.226323
     38          1           0        4.020333   -2.762067    1.117837
     39          1           0        3.418374   -1.437526    1.859026
 ---------------------------------------------------------------------

 SCF Done:  E(UB3LYP) =  -823.813252907     A.U. after   33 cycles
 SCF Done:  E(UB3LYP) =  -823.813252907     a.u. after    1 cycles

 The electronic state is 2-A.
 Alpha  occ. eigenvalues --  -14.26736 -14.19629 -14.19448 -10.13511 -10.12123
 Alpha  occ. eigenvalues --  -10.10844 -10.10522 -10.09399 -10.08923 -10.08602
 Alpha  occ. eigenvalues --  -10.08456 -10.08402 -10.08046 -10.08041 -10.07705
 Alpha  occ. eigenvalues --  -10.07609 -10.07578 -10.07498 -10.07406 -10.07327
 Alpha  occ. eigenvalues --   -0.92037  -0.79766  -0.78696  -0.76899  -0.74665
 Alpha  occ. eigenvalues --   -0.70444  -0.66531  -0.65624  -0.64813  -0.64261
 Alpha  occ. eigenvalues --   -0.60230  -0.58567  -0.53580  -0.51563  -0.51086
 Alpha  occ. eigenvalues --   -0.50191  -0.48742  -0.46063  -0.42872  -0.42045
 Alpha  occ. eigenvalues --   -0.41298  -0.39499  -0.38262  -0.37602  -0.36376
 Alpha  occ. eigenvalues --   -0.35982  -0.35410  -0.35180  -0.34254  -0.33274
 Alpha  occ. eigenvalues --   -0.32615  -0.32396  -0.31842  -0.30805  -0.28980
 Alpha  occ. eigenvalues --   -0.28467  -0.27464  -0.26958  -0.26759  -0.26284
 Alpha  occ. eigenvalues --   -0.25558  -0.24149  -0.23954  -0.23651  -0.20268
 Alpha  occ. eigenvalues --   -0.17802  -0.16615  -0.15671  -0.15207  -0.13273
 Alpha  occ. eigenvalues --   -0.12927   0.04057
 Alpha virt. eigenvalues --    0.05527   0.06512   0.06797   0.07053   0.07494
 Alpha virt. eigenvalues --    0.07682   0.08142   0.08445   0.09057   0.09682
 Alpha virt. eigenvalues --    0.09819   0.10205   0.10293   0.10666   0.11495

  Beta  occ. eigenvalues --  -14.26711 -14.19562 -14.19429 -10.13462 -10.12115
  Beta  occ. eigenvalues --  -10.10855 -10.10503 -10.09397 -10.08914 -10.08594
  Beta  occ. eigenvalues --  -10.08438 -10.08384 -10.08044 -10.08013 -10.07655
  Beta  occ. eigenvalues --  -10.07603 -10.07580 -10.07479 -10.07358 -10.07307
  Beta  occ. eigenvalues --   -0.91985  -0.79713  -0.78588  -0.76864  -0.74603
  Beta  occ. eigenvalues --   -0.70409  -0.66489  -0.65578  -0.64724  -0.64189
  Beta  occ. eigenvalues --   -0.60190  -0.58475  -0.53529  -0.51531  -0.51066
  Beta  occ. eigenvalues --   -0.50109  -0.48698  -0.46016  -0.42836  -0.41984
  Beta  occ. eigenvalues --   -0.41256  -0.39415  -0.38203  -0.37570  -0.36333
  Beta  occ. eigenvalues --   -0.35907  -0.35355  -0.35152  -0.34215  -0.33247
  Beta  occ. eigenvalues --   -0.32541  -0.32367  -0.31809  -0.30737  -0.28911
  Beta  occ. eigenvalues --   -0.28411  -0.27433  -0.26930  -0.26726  -0.26233
  Beta  occ. eigenvalues --   -0.25520  -0.24109  -0.23820  -0.23604  -0.20118
  Beta  occ. eigenvalues --   -0.17767  -0.16520  -0.15589  -0.15140  -0.13135
  Beta  occ. eigenvalues --   -0.12676
  Beta virt. eigenvalues --    0.05972   0.06627   0.06997   0.07220   0.07263
  Beta virt. eigenvalues --    0.07553   0.08150   0.08496   0.08722   0.09289
  Beta virt. eigenvalues --    0.09741   0.10032   0.10527   0.10627   0.10810

 Mulliken charges and spin densities:
               1          2
     1  C    0.233746  -0.649350
     2  C    0.164386  -0.332403
     3  C   -0.148433  -0.384964
     4  C    0.010522   0.523416
     5  C   -0.558964   0.608984
     6  C   -0.348811   0.105279
     7  C    0.607418  -1.072498
     8  C   -0.085968  -0.149239
     9  C    0.206832  -0.404616
    10  N    0.153555   0.003839
    11  C   -0.075955   0.119534
    12  C    0.169602   0.038749
    13  C   -0.330306  -0.028398
    14  C   -0.425007  -0.078534
    15  C   -0.304273   0.079630
    16  C   -0.136751   0.126350
    17  N   -0.078769   0.068400
    18  C   -0.244075   0.439741
    19  C    1.033827  -1.831065
    20  N   -0.262977  -0.065125
    21  H   -0.035390   0.177658
    22  H   -0.549406   0.737600
    23  H   -0.028760   0.163672
    24  H    0.118523   0.033670
    25  H    0.121018   0.041425
    26  H    0.089937   0.057383
    27  H   -0.030047   0.234669
    28  H    0.368343  -0.131939
    29  H   -0.523217   0.693402
    30  H    0.010212   0.201337
    31  H    0.103851   0.006621
    32  H    0.162624  -0.020665
    33  H    0.105054   0.062733
    34  H    0.124818   0.004427
    35  H    0.133876   0.021910
    36  H   -0.382826   0.561844
    37  H   -0.051422   0.229228
    38  H   -0.397880   0.657679
    39  H    0.081095   0.149614
 Sum of Mulliken charges =  -1.00000   1.00000

 Dipole moment (field-independent basis, Debye):
    X=             -4.0288    Y=              5.9889    Z=              0.1772  Tot=              7.2200
 Quadrupole moment (field-independent basis, Debye-Ang):
   XX=           -203.4844   YY=           -177.2597   ZZ=           -146.3501
   XY=              7.8628   XZ=             -9.1242   YZ=              1.7272

 Summary of Natural Population Analysis:

                                       Natural Population
                Natural  -----------------------------------------------
    Atom  No    Charge         Core      Valence    Rydberg      Total
 -----------------------------------------------------------------------
      C    1   -0.10973      0.99956     2.09974    0.01043     3.10973
      C    2   -0.10142      0.99956     2.09153    0.01033     3.10142
      C    3   -0.10433      0.99950     2.09518    0.00965     3.10433
      C    4   -0.01303      0.99950     2.00294    0.01059     3.01303
      C    5   -0.09793      0.99951     2.08916    0.00927     3.09793
      C    6   -0.09498      0.99956     2.08618    0.00924     3.09498
      C    7   -0.19997      0.99959     2.19126    0.00911     3.19997
      C    8   -0.19699      0.99962     2.18855    0.00882     3.19699
      C    9   -0.08314      0.99961     2.07343    0.01011     3.08314
      N   10   -0.21188      0.99958     2.70265    0.00964     3.71188
      C   11    0.07058      0.99945     1.92005    0.00992     2.92942
      C   12   -0.10952      0.99953     2.10064    0.00935     3.10952
      C   13   -0.10487      0.99958     2.09606    0.00922     3.10487
      C   14   -0.11950      0.99958     2.10986    0.01006     3.11950
      C   15   -0.09553      0.99953     2.08758    0.00842     3.09553
      C   16    0.05423      0.99946     1.93401    0.01231     2.94577
      N   17   -0.25899      0.99968     2.75061    0.00870     3.75899
      C   18    0.22269      0.99960     1.75981    0.01790     2.77731
      C   19   -0.11337      0.99959     2.10117    0.01261     3.11337
      N   20   -0.41911      0.99977     2.90842    0.01092     3.91911
      H   21    0.09925      0.00000     0.39993    0.00082     0.40075
      H   22    0.10119      0.00000     0.39770    0.00111     0.39881
      H   23    0.10172      0.00000     0.39650    0.00178     0.39828
      H   24    0.10184      0.00000     0.39682    0.00133     0.39816
      H   25    0.09939      0.00000     0.39979    0.00082     0.40061
      H   26    0.10507      0.00000     0.39296    0.00197     0.39493
      H   27    0.10792      0.00000     0.39113    0.00095     0.39208
      H   28    0.11759      0.00000     0.38023    0.00219     0.38241
      H   29    0.09721      0.00000     0.40133    0.00146     0.40279
      H   30    0.10022      0.00000     0.39875    0.00103     0.39978
      H   31    0.10258      0.00000     0.39579    0.00163     0.39742
      H   32    0.10711      0.00000     0.39103    0.00185     0.39289
      H   33    0.09801      0.00000     0.40111    0.00088     0.40199
      H   34    0.09616      0.00000     0.40308    0.00076     0.40384
      H   35    0.10040      0.00000     0.39809    0.00150     0.39960
      H   36    0.09777      0.00000     0.40039    0.00184     0.40223
      H   37    0.09601      0.00000     0.40218    0.00181     0.40399
      H   38    0.18151      0.00000     0.31054    0.00796     0.31849
      H   39    0.17584      0.00000     0.32208    0.00208     0.32416
 =======================================================================
   * Total *    0.00000     19.99137    50.76826    0.24037    71.00000

 Normal termination of Gaussian 16 at Sat Dec 12 17:56:08 2020.
