 Gaussian 16, Revision A.03,

 -----------------------------------------------------------
 # opt freq B3LYP/6-31G(d) empiricaldispersion=gd3bj scf=xqc
 -----------------------------------------------------------

 ------------------------------
 CID_60925386_JID_6360_neutraal
 ------------------------------
 Symbolic Z-matrix:
 Charge =  0 Multiplicity = 1

 SCF Done:  E(RB3LYP) =  -746.596398595     A.U. after   14 cycles
 SCF Done:  E(RB3LYP) =  -746.601416528     A.U. after   12 cycles
 SCF Done:  E(RB3LYP) =  -746.601965931     A.U. after   12 cycles
 SCF Done:  E(RB3LYP) =  -746.602723555     A.U. after   13 cycles
 SCF Done:  E(RB3LYP) =  -746.603091999     A.U. after   12 cycles
 SCF Done:  E(RB3LYP) =  -746.603340301     A.U. after   11 cycles
 SCF Done:  E(RB3LYP) =  -746.603603734     A.U. after   11 cycles
 SCF Done:  E(RB3LYP) =  -746.603680248     A.U. after   11 cycles
 SCF Done:  E(RB3LYP) =  -746.603752068     A.U. after   10 cycles
 SCF Done:  E(RB3LYP) =  -746.603862732     A.U. after   11 cycles
 SCF Done:  E(RB3LYP) =  -746.604386465     A.U. after    9 cycles
 SCF Done:  E(RB3LYP) =  -746.604389220     A.U. after    9 cycles
 SCF Done:  E(RB3LYP) =  -746.604389808     A.U. after    8 cycles
 SCF Done:  E(RB3LYP) =  -746.604389980     A.U. after    7 cycles
 SCF Done:  E(RB3LYP) =  -746.604390054     A.U. after    7 cycles
 Optimization completed.
    -- Stationary point found.
 Normal termination of Gaussian 16 at Thu Dec 10 22:38:46 2020.

 --------------------------------------------------------------------
 #N Geom=AllCheck Guess=TCheck SCRF=Check GenChk RB3LYP/6-31G(d) Freq
 --------------------------------------------------------------------

 Structure from the checkpoint file:  "JID_6360.chk"
 ------------------------------
 CID_60925386_JID_6360_neutraal
 ------------------------------
 Charge =  0 Multiplicity = 1

 SCF Done:  E(RB3LYP) =  -746.604390054     A.U. after    1 cycles

  Exact polarizability: 159.675  -4.130 133.448   4.190   7.905 119.378
 Approx polarizability: 190.776   1.363 214.406  11.071  21.974 181.440

                      1                      2                      3
                      A                      A                      A
 Frequencies --     21.3981                41.8892                55.8643
 Red. masses --      4.8273                 3.8994                 3.8355
 Frc consts  --      0.0013                 0.0040                 0.0071
 IR Inten    --      1.5073                 0.9587                 2.0557

                      4                      5                      6
                      A                      A                      A
 Frequencies --     65.7264                78.9354                83.2310
 Red. masses --      4.0452                 3.1161                 4.2137
 Frc consts  --      0.0103                 0.0114                 0.0172
 IR Inten    --      3.1217                 1.4320                 0.8311

                      7                      8                      9
                      A                      A                      A
 Frequencies --     98.4570               127.4716               161.9336
 Red. masses --      2.3528                 1.3518                 1.6259
 Frc consts  --      0.0134                 0.0129                 0.0251
 IR Inten    --      2.6282                 1.4231                 3.3280

                     10                     11                     12
                      A                      A                      A
 Frequencies --    177.1282               188.8701               232.5737
 Red. masses --      2.3567                 3.5173                 2.5214
 Frc consts  --      0.0436                 0.0739                 0.0804
 IR Inten    --      0.7002                 0.4091                 7.2631

                     13                     14                     15
                      A                      A                      A
 Frequencies --    245.4483               273.1149               324.6867
 Red. masses --      1.9887                 2.9233                 3.0254
 Frc consts  --      0.0706                 0.1285                 0.1879
 IR Inten    --      2.5428                 1.6636                 3.6709

                     16                     17                     18
                      A                      A                      A
 Frequencies --    338.6341               349.0191               403.4223
 Red. masses --      2.7892                 2.8762                 3.0621
 Frc consts  --      0.1885                 0.2064                 0.2936
 IR Inten    --      2.0487                 9.3924                 1.0974

                     19                     20                     21
                      A                      A                      A
 Frequencies --    415.4315               451.2302               453.0869
 Red. masses --      2.3452                 3.2839                 3.2330
 Frc consts  --      0.2385                 0.3939                 0.3910
 IR Inten    --      1.1751                 5.0417                 4.7849

                     22                     23                     24
                      A                      A                      A
 Frequencies --    472.9260               515.6257               555.3222
 Red. masses --      2.3775                 2.6922                 1.9209
 Frc consts  --      0.3133                 0.4217                 0.3490
 IR Inten    --     10.2202                 1.5766                27.7481

                     25                     26                     27
                      A                      A                      A
 Frequencies --    583.1692               619.4929               660.1852
 Red. masses --      4.4147                 2.8994                 1.8159
 Frc consts  --      0.8846                 0.6556                 0.4663
 IR Inten    --      9.9007                26.1620                45.6030

                     28                     29                     30
                      A                      A                      A
 Frequencies --    702.8792               752.5387               756.4829
 Red. masses --      3.2145                 2.9451                 2.9051
 Frc consts  --      0.9357                 0.9827                 0.9795
 IR Inten    --      2.2080                41.2662                36.3801

                     31                     32                     33
                      A                      A                      A
 Frequencies --    804.1389               815.0490               848.4039
 Red. masses --      2.5425                 1.5668                 2.7671
 Frc consts  --      0.9687                 0.6132                 1.1735
 IR Inten    --      3.6137                53.8547                17.6339

                     34                     35                     36
                      A                      A                      A
 Frequencies --    866.9944               895.9818               936.5556
 Red. masses --      1.7900                 1.8253                 2.5682
 Frc consts  --      0.7927                 0.8634                 1.3272
 IR Inten    --     36.7679                 9.4334                 1.4544

                     37                     38                     39
                      A                      A                      A
 Frequencies --    942.6040               950.5673               960.1206
 Red. masses --      2.3895                 2.7200                 1.5751
 Frc consts  --      1.2509                 1.4480                 0.8555
 IR Inten    --      0.2989                 6.1014                 0.8210

                     40                     41                     42
                      A                      A                      A
 Frequencies --   1010.1892              1043.6128              1067.8537
 Red. masses --      2.2427                 1.8607                 1.9516
 Frc consts  --      1.3484                 1.1940                 1.3112
 IR Inten    --     15.7158                 8.0259                10.2469

                     43                     44                     45
                      A                      A                      A
 Frequencies --   1072.1715              1087.4773              1091.7979
 Red. masses --      1.8828                 1.3999                 1.6640
 Frc consts  --      1.2752                 0.9754                 1.1687
 IR Inten    --      2.8955                 4.3130                 2.6985

                     46                     47                     48
                      A                      A                      A
 Frequencies --   1135.5012              1141.6873              1146.2815
 Red. masses --      3.5150                 1.3086                 2.7337
 Frc consts  --      2.6703                 1.0049                 2.1163
 IR Inten    --     40.3857                 5.5517                 4.7435

                     49                     50                     51
                      A                      A                      A
 Frequencies --   1160.1564              1165.6550              1187.4792
 Red. masses --      2.0232                 1.7919                 1.2724
 Frc consts  --      1.6044                 1.4345                 1.0571
 IR Inten    --     29.1404                82.0066                 1.9396

                     52                     53                     54
                      A                      A                      A
 Frequencies --   1188.6182              1239.8630              1241.5655
 Red. masses --      1.3552                 1.4712                 1.4864
 Frc consts  --      1.1281                 1.3325                 1.3500
 IR Inten    --      2.9319                 6.3303                 3.7670

                     55                     56                     57
                      A                      A                      A
 Frequencies --   1280.4924              1288.3418              1296.9457
 Red. masses --      1.3874                 4.0822                 1.2956
 Frc consts  --      1.3403                 3.9922                 1.2840
 IR Inten    --     20.5342                37.2619                 4.9709

                     58                     59                     60
                      A                      A                      A
 Frequencies --   1308.5985              1343.5870              1357.5791
 Red. masses --      1.2377                 1.2526                 1.4320
 Frc consts  --      1.2488                 1.3323                 1.5550
 IR Inten    --      2.8504                 3.9684                63.7130

                     61                     62                     63
                      A                      A                      A
 Frequencies --   1370.1955              1378.7058              1391.3011
 Red. masses --      1.3277                 1.3941                 1.5144
 Frc consts  --      1.4686                 1.5613                 1.7272
 IR Inten    --     68.5581                12.8014                31.7253

                     64                     65                     66
                      A                      A                      A
 Frequencies --   1396.1666              1402.1008              1425.5979
 Red. masses --      1.3648                 1.4715                 1.8090
 Frc consts  --      1.5674                 1.7043                 2.1661
 IR Inten    --      4.0274                 1.6918                45.5749

                     67                     68                     69
                      A                      A                      A
 Frequencies --   1434.4438              1441.2221              1451.8703
 Red. masses --      1.4022                 1.9908                 1.2328
 Frc consts  --      1.6999                 2.4363                 1.5311
 IR Inten    --     12.3634                75.6401                20.3321

                     70                     71                     72
                      A                      A                      A
 Frequencies --   1495.0454              1500.3303              1503.7902
 Red. masses --      1.2467                 1.1997                 1.2402
 Frc consts  --      1.6417                 1.5910                 1.6524
 IR Inten    --     25.1192                 8.9627                 7.6125

                     73                     74                     75
                      A                      A                      A
 Frequencies --   1509.9281              1513.6826              1515.0530
 Red. masses --      1.1519                 1.1638                 1.0945
 Frc consts  --      1.5474                 1.5711                 1.4802
 IR Inten    --      2.6335                 4.1548                10.2999

                     76                     77                     78
                      A                      A                      A
 Frequencies --   1520.7420              1523.8558              1527.1730
 Red. masses --      1.4199                 1.0993                 1.0785
 Frc consts  --      1.9347                 1.5040                 1.4820
 IR Inten    --     58.8625                 7.4987                 6.9912

                     79                     80                     81
                      A                      A                      A
 Frequencies --   1533.4220              1535.6402              1537.0392
 Red. masses --      1.0735                 1.0847                 1.0790
 Frc consts  --      1.4873                 1.5071                 1.5019
 IR Inten    --     10.2382                 5.5778                14.9180

                     82                     83                     84
                      A                      A                      A
 Frequencies --   1568.6440              1746.3137              1763.9328
 Red. masses --      1.2121                 9.3550                 7.1397
 Frc consts  --      1.7572                16.8090                13.0886
 IR Inten    --     47.4633               220.1237               331.3615

                     85                     86                     87
                      A                      A                      A
 Frequencies --   2940.0796              2983.4403              3033.1698
 Red. masses --      1.0733                 1.0829                 1.0661
 Frc consts  --      5.4662                 5.6792                 5.7788
 IR Inten    --     79.7861                36.8875                32.3698

                     88                     89                     90
                      A                      A                      A
 Frequencies --   3033.5459              3045.5094              3046.3389
 Red. masses --      1.0422                 1.0419                 1.0616
 Frc consts  --      5.6505                 5.6937                 5.8048
 IR Inten    --     38.9743                36.8162                21.9471

                     91                     92                     93
                      A                      A                      A
 Frequencies --   3065.0362              3083.8809              3086.4132
 Red. masses --      1.0624                 1.0921                 1.0900
 Frc consts  --      5.8805                 6.1192                 6.1176
 IR Inten    --     15.1670                54.0353                36.8350

                     94                     95                     96
                      A                      A                      A
 Frequencies --   3086.9086              3089.0199              3093.4681
 Red. masses --      1.1005                 1.0708                 1.1045
 Frc consts  --      6.1787                 6.0202                 6.2273
 IR Inten    --     42.5696                22.1647                41.8450

                     97                     98                     99
                      A                      A                      A
 Frequencies --   3096.6919              3100.3464              3109.1209
 Red. masses --      1.0653                 1.1022                 1.1047
 Frc consts  --      6.0189                 6.2421                 6.2920
 IR Inten    --     10.5704                20.6602                42.2620

                    100                    101                    102
                      A                      A                      A
 Frequencies --   3155.0639              3182.5320              3196.3203
 Red. masses --      1.1010                 1.0927                 1.0959
 Frc consts  --      6.4571                 6.5208                 6.5964
 IR Inten    --     20.6358                28.0686                 6.8269

                    103                    104                    105
                      A                      A                      A
 Frequencies --   3198.3563              3479.8010              3568.3226
 Red. masses --      1.0962                 1.0741                 1.0749
 Frc consts  --      6.6067                 7.6632                 8.0640
 IR Inten    --      1.4616                 1.7721                13.6697

 - Thermochemistry -
 -------------------
 Temperature   298.150 Kelvin.  Pressure   1.00000 Atm.
 Atom     1 has atomic number  6 and mass  12.00000

 Molecular mass:   227.16338 amu.
 Principal axes and moments of inertia in atomic units:
                           1         2         3
     Eigenvalues --  1764.489926458.546656784.45162
           X            0.99984  -0.01676  -0.00617
           Y            0.01697   0.99921   0.03607
           Z            0.00556  -0.03617   0.99933
 This molecule is an asymmetric top.
 Rotational symmetry number  1.
 Warning -- assumption of classical behavior for rotation
           may cause significant error
 Rotational temperatures (Kelvin)      0.04909     0.01341     0.01277
 Rotational constants (GHZ):           1.02281     0.27943     0.26601
 Zero-point vibrational energy     865747.1 (Joules/Mol)
                                  206.91851 (Kcal/Mol)
 Warning -- explicit consideration of  26 degrees of freedom as
           vibrations may cause significant error
 Vibrational temperatures:     30.79    60.27    80.38    94.57   113.57
          (Kelvin)            119.75   141.66   183.40   232.99   254.85
                              271.74   334.62   353.15   392.95   467.15
                              487.22   502.16   580.43   597.71   649.22
                              651.89   680.44   741.87   798.98   839.05
                              891.31   949.86  1011.29  1082.74  1088.41
                             1156.98  1172.67  1220.66  1247.41  1289.12
                             1347.49  1356.20  1367.65  1381.40  1453.44
                             1501.53  1536.40  1542.62  1564.64  1570.85
                             1633.73  1642.63  1649.24  1669.21  1677.12
                             1708.52  1710.16  1783.89  1786.34  1842.34
                             1853.64  1866.02  1882.78  1933.12  1953.25
                             1971.41  1983.65  2001.77  2008.77  2017.31
                             2051.12  2063.84  2073.60  2088.92  2151.04
                             2158.64  2163.62  2172.45  2177.85  2179.82
                             2188.01  2192.49  2197.26  2206.25  2209.44
                             2211.46  2256.93  2512.56  2537.91  4230.12
                             4292.51  4364.05  4364.60  4381.81  4383.00
                             4409.90  4437.02  4440.66  4441.37  4444.41
                             4450.81  4455.45  4460.71  4473.33  4539.43
                             4578.95  4598.79  4601.72  5006.66  5134.02

 Zero-point correction=                           0.329746 (Hartree/Particle)
 Thermal correction to Energy=                    0.346859
 Thermal correction to Enthalpy=                  0.347803
 Thermal correction to Gibbs Free Energy=         0.283359
 Sum of electronic and zero-point Energies=           -746.274644
 Sum of electronic and thermal Energies=              -746.257532
 Sum of electronic and thermal Enthalpies=            -746.256587
 Sum of electronic and thermal Free Energies=         -746.321031

                     E (Thermal)             CV                S
                      KCal/Mol        Cal/Mol-Kelvin    Cal/Mol-Kelvin
 Total                  217.657             63.157            135.634
 Electronic               0.000              0.000              0.000
 Translational            0.889              2.981             42.164
 Rotational               0.889              2.981             32.714
 Vibrational            215.880             57.195             60.757
 Vibration     1          0.593              1.985              6.500
 Vibration     2          0.595              1.980              5.168
 Vibration     3          0.596              1.975              4.598
 Vibration     4          0.597              1.971              4.277
 Vibration     5          0.600              1.963              3.917
 Vibration     6          0.600              1.961              3.813
 Vibration     7          0.604              1.950              3.485
 Vibration     8          0.611              1.926              2.984
 Vibration     9          0.622              1.889              2.527
 Vibration    10          0.628              1.871              2.358
 Vibration    11          0.633              1.855              2.239
 Vibration    12          0.653              1.791              1.859
 Vibration    13          0.660              1.770              1.763
 Vibration    14          0.676              1.723              1.576
 Vibration    15          0.709              1.626              1.286
 Vibration    16          0.719              1.598              1.219
 Vibration    17          0.726              1.577              1.171
 Vibration    18          0.769              1.463              0.950
 Vibration    19          0.779              1.437              0.908
 Vibration    20          0.810              1.358              0.792
 Vibration    21          0.812              1.354              0.786
 Vibration    22          0.830              1.310              0.729
 Vibration    23          0.871              1.215              0.620
 Vibration    24          0.911              1.128              0.533
 Vibration    25          0.940              1.068              0.480
 Vibration    26          0.979              0.991              0.417

                           ! Non-Optimized Parameters !
 Normal termination of Gaussian 16 at Thu Dec 10 22:52:12 2020.

 ----------------------------------------------------------------------
 # B3LYP/6-311++G(d,p) empiricaldispersion=gd3bj scf=xqc pop=npa geom=c
 heck
 ----------------------------------------------------------------------

 --------------------------------------
 CID_60925386_JID_6360_Energie_neutraal
 --------------------------------------
 Structure from the checkpoint file:  "JID_6360.chk"
 Charge =  0 Multiplicity = 1

 SCF Done:  E(RB3LYP) =  -746.824618792     A.U. after   14 cycles
 Normal termination of Gaussian 16 at Thu Dec 10 22:58:23 2020.

 ----------------------------------------------------------------------
 # B3LYP/6-311++G(d,p) empiricaldispersion=gd3bj scf=xqc pop=npa geom=c
 heck
 ----------------------------------------------------------------------

 ------------------------------------
 CID_60925386_JID_6360_Energie_kation
 ------------------------------------
 Structure from the checkpoint file:  "JID_6360.chk"
 Charge =  1 Multiplicity = 2

 SCF Done:  E(UB3LYP) =  -746.518329226     A.U. after   29 cycles
 Normal termination of Gaussian 16 at Thu Dec 10 23:15:00 2020.
 Gaussian 16:  ES64L-G16RevA.03 25-Dec-2016

 ----------------------------------------------------------------------
 # B3LYP/6-311++G(d,p) empiricaldispersion=gd3bj scf=xqc pop=npa geom=c
 heck
 ----------------------------------------------------------------------

 -----------------------------------
 CID_60925386_JID_6360_Energie_anion
 -----------------------------------
 Structure from the checkpoint file:  "JID_6360.chk"
 Charge = -1 Multiplicity = 2

                         Standard orientation:
 ---------------------------------------------------------------------
 Center     Atomic      Atomic             Coordinates (Angstroms)
 Number     Number       Type             X           Y           Z
 ---------------------------------------------------------------------
      1          6           0       -4.404571    0.676141    0.326663
      2          7           0       -3.109403    0.077363    0.623111
      3          6           0       -2.277433    0.848440    1.536479
      4          6           0       -2.706776   -1.002725   -0.124651
      5          8           0       -3.428244   -1.501690   -0.987747
      6          6           0       -1.301213   -1.560384    0.065025
      7          6           0       -0.389122   -1.062315   -1.072405
      8          7           0       -0.350879    0.393768   -1.163637
      9          6           0        0.475905    1.305291   -0.565809
     10          8           0        0.166438    2.494647   -0.526785
     11          6           0        1.827801    0.847357   -0.009704
     12          6           0        2.779949    0.398800   -1.132998
     13          6           0        4.127497   -0.048703   -0.554131
     14          6           0        3.919570   -1.111926    0.531271
     15          6           0        2.956918   -0.594299    1.599796
     16          7           0        1.675465   -0.226209    0.984363
     17          1           0       -4.278900    1.665466   -0.134123
     18          1           0       -4.981262    0.797256    1.251287
     19          1           0       -4.936741    0.021834   -0.361183
     20          1           0       -1.474556    0.239773    1.949765
     21          1           0       -1.834589    1.724827    1.045418
     22          1           0       -2.896796    1.193048    2.371864
     23          1           0       -0.834565   -1.322078    1.020592
     24          1           0       -1.388919   -2.648365   -0.009586
     25          1           0        0.617204   -1.440038   -0.910494
     26          1           0       -0.768612   -1.444268   -2.025125
     27          1           0       -1.200776    0.833538   -1.500673
     28          1           0        2.251769    1.758834    0.443350
     29          1           0        2.911006    1.230848   -1.833634
     30          1           0        2.328183   -0.427083   -1.693450
     31          1           0        4.775086   -0.429035   -1.352671
     32          1           0        4.639867    0.819309   -0.115610
     33          1           0        3.497884   -2.021792    0.084791
     34          1           0        4.874307   -1.384988    0.995773
     35          1           0        2.762052   -1.366079    2.352422
     36          1           0        3.427858    0.263288    2.117708
     37          1           0        1.047523    0.103546    1.715755
 ---------------------------------------------------------------------

 SCF Done:  E(UB3LYP) =  -746.815543067     A.U. after   33 cycles
 SCF Done:  E(UB3LYP) =  -746.815543067     a.u. after    1 cycles

 The electronic state is 2-A.
 Alpha  occ. eigenvalues --  -19.00033 -18.99522 -14.25783 -14.24987 -14.21043
 Alpha  occ. eigenvalues --  -10.18367 -10.18154 -10.12467 -10.11607 -10.10855
 Alpha  occ. eigenvalues --  -10.10830 -10.09625 -10.08772 -10.08348 -10.07840
 Alpha  occ. eigenvalues --  -10.07242  -0.95115  -0.94794  -0.84664  -0.83889
 Alpha  occ. eigenvalues --   -0.82282  -0.70127  -0.68963  -0.67230  -0.63391
 Alpha  occ. eigenvalues --   -0.61172  -0.57126  -0.55833  -0.54171  -0.49424
 Alpha  occ. eigenvalues --   -0.47122  -0.45560  -0.43159  -0.41324  -0.40969
 Alpha  occ. eigenvalues --   -0.39340  -0.38260  -0.37664  -0.36318  -0.35720
 Alpha  occ. eigenvalues --   -0.34320  -0.33956  -0.33575  -0.32723  -0.32214
 Alpha  occ. eigenvalues --   -0.31602  -0.31286  -0.30593  -0.30043  -0.29160
 Alpha  occ. eigenvalues --   -0.28924  -0.27489  -0.27013  -0.25835  -0.24443
 Alpha  occ. eigenvalues --   -0.24171  -0.22559  -0.17379  -0.16845  -0.16626
 Alpha  occ. eigenvalues --   -0.15585  -0.14436   0.03980
 Alpha virt. eigenvalues --    0.05817   0.06749   0.07343   0.07882   0.08203
 Alpha virt. eigenvalues --    0.08994   0.09414   0.09566   0.09672   0.10105
 Alpha virt. eigenvalues --    0.10400   0.10919   0.11506   0.11850   0.12039

  Beta  occ. eigenvalues --  -19.00029 -18.99519 -14.25780 -14.24981 -14.21013
  Beta  occ. eigenvalues --  -10.18365 -10.18152 -10.12464 -10.11601 -10.10808
  Beta  occ. eigenvalues --  -10.10805 -10.09591 -10.08757 -10.08342 -10.07823
  Beta  occ. eigenvalues --  -10.07222  -0.95108  -0.94787  -0.84651  -0.83873
  Beta  occ. eigenvalues --   -0.82244  -0.70090  -0.68942  -0.67193  -0.63338
  Beta  occ. eigenvalues --   -0.61133  -0.57091  -0.55794  -0.54116  -0.49399
  Beta  occ. eigenvalues --   -0.47058  -0.45510  -0.43092  -0.41291  -0.40950
  Beta  occ. eigenvalues --   -0.39311  -0.38232  -0.37633  -0.36281  -0.35698
  Beta  occ. eigenvalues --   -0.34287  -0.33929  -0.33557  -0.32698  -0.32165
  Beta  occ. eigenvalues --   -0.31563  -0.31249  -0.30562  -0.30013  -0.29135
  Beta  occ. eigenvalues --   -0.28904  -0.27464  -0.26992  -0.25806  -0.24412
  Beta  occ. eigenvalues --   -0.24128  -0.22512  -0.17369  -0.16835  -0.16614
  Beta  occ. eigenvalues --   -0.15565  -0.14387
  Beta virt. eigenvalues --    0.06191   0.06616   0.07431   0.07735   0.08381
  Beta virt. eigenvalues --    0.08759   0.09096   0.09576   0.09670   0.10085
  Beta virt. eigenvalues --    0.10327   0.10791   0.11053   0.11652   0.12025

 Mulliken charges and spin densities:
               1          2
     1  C    0.403860  -0.678274
     2  N   -0.072418   0.131401
     3  C    0.721184  -1.160807
     4  C   -0.668479   0.363288
     5  O   -0.343187   0.009083
     6  C    0.028649  -0.275899
     7  C   -0.180695   0.011882
     8  N   -0.135804  -0.007745
     9  C   -0.151259  -0.179412
    10  O   -0.289188   0.006224
    11  C    0.341594  -0.394899
    12  C   -0.648410   0.444992
    13  C    0.504931  -0.895306
    14  C   -0.452643   0.102475
    15  C    1.094596  -1.395747
    16  N   -0.156585   0.097531
    17  H   -0.026786   0.171076
    18  H   -0.147620   0.298763
    19  H    0.093714   0.077464
    20  H   -0.864423   1.011429
    21  H    0.232650  -0.010094
    22  H   -0.468236   0.635883
    23  H    0.348143  -0.204423
    24  H   -0.049355   0.245005
    25  H    0.444334  -0.245085
    26  H    0.157637   0.053025
    27  H    0.309811   0.043511
    28  H    0.002169   0.216835
    29  H    0.154360   0.016701
    30  H   -0.101037   0.232265
    31  H   -0.337073   0.509786
    32  H    0.093395   0.032440
    33  H    0.098186   0.014457
    34  H   -0.404536   0.592504
    35  H   -0.709419   0.895850
    36  H   -0.145509   0.272619
    37  H    0.323449  -0.038799
 Sum of Mulliken charges =  -1.00000   1.00000

 Dipole moment (field-independent basis, Debye):
    X=             -1.3800    Y=              0.2797    Z=             -5.1873  Tot=              5.3750
 Quadrupole moment (field-independent basis, Debye-Ang):
   XX=           -185.5959   YY=           -141.2044   ZZ=           -147.6140
   XY=              3.9662   XZ=             -4.3152   YZ=              1.3542

 Summary of Natural Population Analysis:

                                       Natural Population
                Natural  -----------------------------------------------
    Atom  No    Charge         Core      Valence    Rydberg      Total
 -----------------------------------------------------------------------
      C    1   -0.18080      0.99964     2.17340    0.00777     3.18080
      N    2   -0.25157      0.99965     2.74132    0.01059     3.75157
      C    3   -0.17845      0.99962     2.17029    0.00854     3.17845
      C    4    0.34082      0.99963     1.63539    0.02416     2.65918
      O    5   -0.33647      0.99988     3.33143    0.00516     4.33647
      C    6   -0.23264      0.99958     2.22480    0.00826     3.23264
      C    7   -0.08665      0.99960     2.07759    0.00945     3.08665
      N    8   -0.31829      0.99966     2.80974    0.00889     3.81829
      C    9    0.34505      0.99963     1.63217    0.02316     2.65495
      O   10   -0.32455      0.99988     3.31907    0.00560     4.32455
      C   11   -0.04487      0.99955     2.03292    0.01240     3.04487
      C   12   -0.19035      0.99961     2.18219    0.00855     3.19035
      C   13   -0.19015      0.99963     2.18199    0.00853     3.19015
      C   14   -0.19385      0.99962     2.18582    0.00841     3.19385
      C   15   -0.08434      0.99962     2.07250    0.01223     3.08434
      N   16   -0.34917      0.99973     2.83600    0.01344     3.84917
      H   17    0.09221      0.00000     0.40681    0.00098     0.40779
      H   18    0.09509      0.00000     0.40390    0.00101     0.40491
      H   19    0.11510      0.00000     0.38391    0.00099     0.38490
      H   20    0.10271      0.00000     0.39510    0.00219     0.39729
      H   21    0.10168      0.00000     0.39695    0.00137     0.39832
      H   22    0.09889      0.00000     0.39961    0.00150     0.40111
      H   23    0.10928      0.00000     0.38881    0.00191     0.39072
      H   24    0.11212      0.00000     0.38688    0.00100     0.38788
      H   25    0.11246      0.00000     0.38593    0.00161     0.38754
      H   26    0.09756      0.00000     0.40137    0.00107     0.40244
      H   27    0.19274      0.00000     0.30504    0.00222     0.30726
      H   28    0.09440      0.00000     0.40357    0.00204     0.40560
      H   29    0.10289      0.00000     0.39628    0.00082     0.39711
      H   30    0.09636      0.00000     0.40227    0.00137     0.40364
      H   31    0.10030      0.00000     0.39862    0.00108     0.39970
      H   32    0.09450      0.00000     0.40415    0.00135     0.40550
      H   33    0.09511      0.00000     0.40341    0.00148     0.40489
      H   34    0.10232      0.00000     0.39623    0.00145     0.39768
      H   35    0.10150      0.00000     0.39603    0.00246     0.39850
      H   36    0.07872      0.00000     0.41946    0.00182     0.42128
      H   37    0.18033      0.00000     0.31551    0.00416     0.31967
 =======================================================================
   * Total *   -0.00000     15.99452    45.79645    0.20902    62.00000

 Normal termination of Gaussian 16 at Thu Dec 10 23:32:57 2020.
