 Gaussian 16, Revision A.03,

 -----------------------------------------------------------
 # opt freq B3LYP/6-31G(d) empiricaldispersion=gd3bj scf=xqc
 -----------------------------------------------------------

 -------------------------------
 CID_150382060_JID_1078_neutraal
 -------------------------------
 Symbolic Z-matrix:
 Charge =  0 Multiplicity = 1

 SCF Done:  E(RB3LYP) =  -528.857606472     A.U. after   18 cycles
 SCF Done:  E(RB3LYP) =  -528.860538923     A.U. after   15 cycles
 SCF Done:  E(RB3LYP) =  -528.862063192     A.U. after   14 cycles
 SCF Done:  E(RB3LYP) =  -528.862564993     A.U. after   13 cycles
 SCF Done:  E(RB3LYP) =  -528.862596908     A.U. after   13 cycles
 SCF Done:  E(RB3LYP) =  -528.862697201     A.U. after   12 cycles
 SCF Done:  E(RB3LYP) =  -528.862700257     A.U. after   11 cycles
 SCF Done:  E(RB3LYP) =  -528.862723845     A.U. after   10 cycles
 SCF Done:  E(RB3LYP) =  -528.862729293     A.U. after   12 cycles
 SCF Done:  E(RB3LYP) =  -528.862733088     A.U. after    9 cycles
 SCF Done:  E(RB3LYP) =  -528.862740000     A.U. after   11 cycles
 SCF Done:  E(RB3LYP) =  -528.862744859     A.U. after   11 cycles
 SCF Done:  E(RB3LYP) =  -528.862748441     A.U. after   11 cycles
 SCF Done:  E(RB3LYP) =  -528.862749186     A.U. after   10 cycles
 Optimization completed.
    -- Stationary point found.
 Normal termination of Gaussian 16 at Tue Dec  8 19:13:01 2020.

 --------------------------------------------------------------------
 #N Geom=AllCheck Guess=TCheck SCRF=Check GenChk RB3LYP/6-31G(d) Freq
 --------------------------------------------------------------------

 Structure from the checkpoint file:  "JID_1078.chk"
 -------------------------------
 CID_150382060_JID_1078_neutraal
 -------------------------------
 Charge =  0 Multiplicity = 1

 SCF Done:  E(RB3LYP) =  -528.862749186     A.U. after    1 cycles

  Exact polarizability: 160.603 -11.707  87.152   1.106   0.124  56.696
 Approx polarizability: 283.084 -46.420 131.079   4.283  -0.450  78.533

                      1                      2                      3
                      A                      A                      A
 Frequencies --     19.3650                66.9404                98.0036
 Red. masses --      5.4716                 5.5120                 4.5561
 Frc consts  --      0.0012                 0.0146                 0.0258
 IR Inten    --      1.8180                 0.1441                 1.7415

                      4                      5                      6
                      A                      A                      A
 Frequencies --    119.7155               174.1656               229.1108
 Red. masses --      6.8897                 2.3271                 4.4922
 Frc consts  --      0.0582                 0.0416                 0.1389
 IR Inten    --      1.5680                 0.3787                 7.7498

                      7                      8                      9
                      A                      A                      A
 Frequencies --    238.2339               245.9630               285.5621
 Red. masses --      1.2285                 1.1179                 6.4961
 Frc consts  --      0.0411                 0.0398                 0.3121
 IR Inten    --      0.0333                 1.1805                 1.9621

                     10                     11                     12
                      A                      A                      A
 Frequencies --    300.7594               303.6335               328.6027
 Red. masses --      2.1258                 1.4767                 2.6715
 Frc consts  --      0.1133                 0.0802                 0.1700
 IR Inten    --     50.3773               154.5114                23.2643

                     13                     14                     15
                      A                      A                      A
 Frequencies --    378.7358               457.6739               462.9599
 Red. masses --      4.1923                 2.9371                 2.9254
 Frc consts  --      0.3543                 0.3625                 0.3694
 IR Inten    --     17.5682                 1.3692                 0.5182

                     16                     17                     18
                      A                      A                      A
 Frequencies --    510.6966               524.1898               604.1865
 Red. masses --      3.5416                13.3744                 5.3019
 Frc consts  --      0.5442                 2.1652                 1.1403
 IR Inten    --      7.9031                 7.6493                 3.4807

                     19                     20                     21
                      A                      A                      A
 Frequencies --    618.7968               676.0346               770.4161
 Red. masses --      1.2991                 3.1935                 4.4592
 Frc consts  --      0.2931                 0.8599                 1.5594
 IR Inten    --      3.4808                23.9299                 7.7334

                     22                     23                     24
                      A                      A                      A
 Frequencies --    801.2122               883.9091               886.7595
 Red. masses --      7.1425                 1.4058                 2.7520
 Frc consts  --      2.7015                 0.6471                 1.2750
 IR Inten    --     11.4045                10.4652                 2.2464

                     25                     26                     27
                      A                      A                      A
 Frequencies --    945.9906               977.3435              1032.4832
 Red. masses --      1.1507                 1.5437                 2.8334
 Frc consts  --      0.6067                 0.8688                 1.7796
 IR Inten    --      3.3249                 0.0144                54.8638

                     28                     29                     30
                      A                      A                      A
 Frequencies --   1079.8319              1136.9879              1138.7628
 Red. masses --      3.0006                 2.2444                 1.7940
 Frc consts  --      2.0614                 1.7095                 1.3707
 IR Inten    --      2.9166                 0.1846                 3.3363

                     31                     32                     33
                      A                      A                      A
 Frequencies --   1203.9814              1233.0814              1342.3360
 Red. masses --      2.2205                 2.1647                 2.0131
 Frc consts  --      1.8964                 1.9392                 2.1372
 IR Inten    --      2.0470                 3.4594               129.0588

                     34                     35                     36
                      A                      A                      A
 Frequencies --   1357.1234              1359.2806              1390.9007
 Red. masses --      3.4331                 1.3341                 1.9945
 Frc consts  --      3.7254                 1.4523                 2.2734
 IR Inten    --    114.4123                 3.8865                69.7477

                     37                     38                     39
                      A                      A                      A
 Frequencies --   1415.8755              1435.4267              1456.7637
 Red. masses --      1.2273                 1.2335                 1.5775
 Frc consts  --      1.4496                 1.4975                 1.9724
 IR Inten    --      5.8906                19.7092                18.9782

                     40                     41                     42
                      A                      A                      A
 Frequencies --   1513.4154              1528.1377              1535.7660
 Red. masses --      1.0413                 1.0472                 1.0498
 Frc consts  --      1.4052                 1.4407                 1.4589
 IR Inten    --      0.1437                17.9044                 0.9898

                     43                     44                     45
                      A                      A                      A
 Frequencies --   1553.8939              1642.1717              1678.6777
 Red. masses --      1.0563                 1.3010                 6.9318
 Frc consts  --      1.5027                 2.0672                11.5088
 IR Inten    --      8.0943               153.8031                78.8778

                     46                     47                     48
                      A                      A                      A
 Frequencies --   1758.2614              2277.4408              3019.2924
 Red. masses --      7.5223                13.7744                 1.0831
 Frc consts  --     13.7015                42.0936                 5.8172
 IR Inten    --    387.8753               980.0090                24.9671

                     49                     50                     51
                      A                      A                      A
 Frequencies --   3050.6761              3054.9985              3109.7395
 Red. masses --      1.0384                 1.0394                 1.1027
 Frc consts  --      5.6940                 5.7156                 6.2830
 IR Inten    --     41.0147                33.2629                23.7451

                     52                     53                     54
                      A                      A                      A
 Frequencies --   3112.7419              3164.9657              3170.0127
 Red. masses --      1.1021                 1.0989                 1.0962
 Frc consts  --      6.2916                 6.4854                 6.4902
 IR Inten    --     53.3338                 4.0360                 5.0244

                     55                     56                     57
                      A                      A                      A
 Frequencies --   3171.7420              3574.0851              3706.6034
 Red. masses --      1.0928                 1.0452                 1.1057
 Frc consts  --      6.4770                 7.8666                 8.9502
 IR Inten    --     17.1041                43.3156                88.1922

 - Thermochemistry -
 -------------------
 Temperature   298.150 Kelvin.  Pressure   1.00000 Atm.
 Atom     1 has atomic number  6 and mass  12.00000

 Molecular mass:   154.08546 amu.
 Principal axes and moments of inertia in atomic units:
                           1         2         3
     Eigenvalues --  1009.383942808.568113421.18514
           X            0.99925   0.03865  -0.00095
           Y           -0.03864   0.99925   0.00309
           Z            0.00107  -0.00305   0.99999
 This molecule is an asymmetric top.
 Rotational symmetry number  1.
 Warning -- assumption of classical behavior for rotation
           may cause significant error
 Rotational temperatures (Kelvin)      0.08581     0.03084     0.02532
 Rotational constants (GHZ):           1.78796     0.64258     0.52752
 Zero-point vibrational energy     443302.7 (Joules/Mol)
                                  105.95188 (Kcal/Mol)
 Warning -- explicit consideration of  19 degrees of freedom as
           vibrations may cause significant error
 Vibrational temperatures:     27.86    96.31   141.01   172.24   250.59
          (Kelvin)            329.64   342.77   353.89   410.86   432.73
                              436.86   472.79   544.92   658.49   666.10
                              734.78   754.19   869.29   890.31   972.66
                             1108.46  1152.77  1271.75  1275.85  1361.07
                             1406.18  1485.51  1553.64  1635.87  1638.43
                             1732.26  1774.13  1931.32  1952.60  1955.70
                             2001.20  2037.13  2065.26  2095.96  2177.47
                             2198.65  2209.62  2235.71  2362.72  2415.24
                             2529.75  3276.73  4344.09  4389.24  4395.46
                             4474.22  4478.54  4553.68  4560.94  4563.43
                             5142.31  5332.98

 Zero-point correction=                           0.168845 (Hartree/Particle)
 Thermal correction to Energy=                    0.180859
 Thermal correction to Enthalpy=                  0.181803
 Thermal correction to Gibbs Free Energy=         0.129965
 Sum of electronic and zero-point Energies=           -528.693904
 Sum of electronic and thermal Energies=              -528.681891
 Sum of electronic and thermal Enthalpies=            -528.680946
 Sum of electronic and thermal Free Energies=         -528.732785

                     E (Thermal)             CV                S
                      KCal/Mol        Cal/Mol-Kelvin    Cal/Mol-Kelvin
 Total                  113.490             43.094            109.103
 Electronic               0.000              0.000              0.000
 Translational            0.889              2.981             41.007
 Rotational               0.889              2.981             30.651
 Vibrational            111.713             37.133             37.445
 Vibration     1          0.593              1.986              6.698
 Vibration     2          0.598              1.970              4.241
 Vibration     3          0.603              1.951              3.494
 Vibration     4          0.609              1.933              3.105
 Vibration     5          0.627              1.874              2.390
 Vibration     6          0.652              1.797              1.886
 Vibration     7          0.656              1.782              1.816
 Vibration     8          0.660              1.769              1.759
 Vibration     9          0.683              1.700              1.500
 Vibration    10          0.693              1.672              1.413
 Vibration    11          0.695              1.667              1.397
 Vibration    12          0.712              1.618              1.267
 Vibration    13          0.749              1.515              1.044
 Vibration    14          0.816              1.344              0.773
 Vibration    15          0.821              1.332              0.758
 Vibration    16          0.866              1.226              0.632
 Vibration    17          0.879              1.196              0.600
 Vibration    18          0.963              1.023              0.443
 Vibration    19          0.979              0.992              0.418

                           ! Non-Optimized Parameters !
 Normal termination of Gaussian 16 at Tue Dec  8 19:16:49 2020.

 ----------------------------------------------------------------------
 # B3LYP/6-311++G(d,p) empiricaldispersion=gd3bj scf=xqc pop=npa geom=c
 heck
 ----------------------------------------------------------------------

 ---------------------------------------
 CID_150382060_JID_1078_Energie_neutraal
 ---------------------------------------
 Structure from the checkpoint file:  "JID_1078.chk"
 Charge =  0 Multiplicity = 1

 SCF Done:  E(RB3LYP) =  -529.020340343     A.U. after   17 cycles
 Normal termination of Gaussian 16 at Tue Dec  8 19:18:41 2020.

 ----------------------------------------------------------------------
 # B3LYP/6-311++G(d,p) empiricaldispersion=gd3bj scf=xqc pop=npa geom=c
 heck
 ----------------------------------------------------------------------

 -------------------------------------
 CID_150382060_JID_1078_Energie_kation
 -------------------------------------
 Structure from the checkpoint file:  "JID_1078.chk"
 Charge =  1 Multiplicity = 2

 SCF Done:  E(UB3LYP) =  -528.696691470     A.U. after   28 cycles
 Normal termination of Gaussian 16 at Tue Dec  8 19:23:00 2020.
 Gaussian 16:  ES64L-G16RevA.03 25-Dec-2016

 ----------------------------------------------------------------------
 # B3LYP/6-311++G(d,p) empiricaldispersion=gd3bj scf=xqc pop=npa geom=c
 heck
 ----------------------------------------------------------------------

 ------------------------------------
 CID_150382060_JID_1078_Energie_anion
 ------------------------------------
 Structure from the checkpoint file:  "JID_1078.chk"
 Charge = -1 Multiplicity = 2

                         Standard orientation:
 ---------------------------------------------------------------------
 Center     Atomic      Atomic             Coordinates (Angstroms)
 Number     Number       Type             X           Y           Z
 ---------------------------------------------------------------------
      1          6           0       -2.385890   -0.996433    1.291497
      2          6           0       -1.481866   -1.169662    0.058280
      3          6           0       -2.300953   -1.183130   -1.245306
      4          6           0       -0.356836   -0.143224    0.020633
      5          6           0        0.906188   -0.613370    0.023865
      6          7           0        2.065452    0.191282   -0.019952
      7          7           0        3.160934   -0.389531   -0.009028
      8          7           0        4.223711   -0.800671   -0.005899
      9          6           0       -0.751400    1.309516   -0.039055
     10          8           0       -1.928318    1.640504   -0.177800
     11          7           0        0.230063    2.246420    0.091317
     12          1           0       -2.918402   -0.044769    1.245945
     13          1           0       -1.798623   -1.025097    2.216419
     14          1           0       -3.120785   -1.808669    1.330894
     15          1           0       -0.997964   -2.152349    0.146866
     16          1           0       -2.825895   -0.235682   -1.376492
     17          1           0       -1.652306   -1.346921   -2.113403
     18          1           0       -3.037216   -1.994743   -1.213414
     19          1           0        1.083284   -1.686326    0.055936
     20          1           0        1.211049    2.006832    0.098080
     21          1           0       -0.053180    3.209021   -0.022974
 ---------------------------------------------------------------------

 SCF Done:  E(UB3LYP) =  -529.027682264     A.U. after   33 cycles
 SCF Done:  E(UB3LYP) =  -529.027682264     a.u. after    1 cycles

 The electronic state is 2-A.
 Alpha  occ. eigenvalues --  -18.91475 -14.30356 -14.21806 -14.21728 -14.16818
 Alpha  occ. eigenvalues --  -10.09934 -10.04537 -10.04065 -10.02311 -10.02163
 Alpha  occ. eigenvalues --  -10.00331  -0.98430  -0.87038  -0.82998  -0.74268
 Alpha  occ. eigenvalues --   -0.67425  -0.61397  -0.54971  -0.51287  -0.46323
 Alpha  occ. eigenvalues --   -0.41397  -0.40302  -0.36731  -0.36259  -0.35633
 Alpha  occ. eigenvalues --   -0.31090  -0.30521  -0.29647  -0.29156  -0.28036
 Alpha  occ. eigenvalues --   -0.26133  -0.24299  -0.24012  -0.21055  -0.20146
 Alpha  occ. eigenvalues --   -0.19756  -0.18124  -0.16074  -0.11776  -0.09657
 Alpha  occ. eigenvalues --   -0.07941   0.05677
 Alpha virt. eigenvalues --    0.09034   0.10089   0.11002   0.11046   0.11577
 Alpha virt. eigenvalues --    0.12474   0.13840   0.14301   0.14387   0.15630
 Alpha virt. eigenvalues --    0.15900   0.16123   0.17585   0.18151   0.19392

  Beta  occ. eigenvalues --  -18.91224 -14.29822 -14.21947 -14.21336 -14.16779
  Beta  occ. eigenvalues --  -10.09770 -10.04198 -10.04082 -10.02301 -10.02151
  Beta  occ. eigenvalues --  -10.00067  -0.97611  -0.86605  -0.82741  -0.74077
  Beta  occ. eigenvalues --   -0.67144  -0.60914  -0.54936  -0.50597  -0.46028
  Beta  occ. eigenvalues --   -0.41219  -0.40158  -0.36283  -0.35466  -0.34362
  Beta  occ. eigenvalues --   -0.30566  -0.30224  -0.29216  -0.28596  -0.27629
  Beta  occ. eigenvalues --   -0.25806  -0.23923  -0.23455  -0.20927  -0.20049
  Beta  occ. eigenvalues --   -0.19658  -0.16770  -0.15959  -0.10929  -0.09371
  Beta  occ. eigenvalues --   -0.06181
  Beta virt. eigenvalues --    0.08987   0.10144   0.10975   0.11122   0.11914
  Beta virt. eigenvalues --    0.12322   0.12419   0.13857   0.14257   0.14573
  Beta virt. eigenvalues --    0.15701   0.16081   0.17488   0.17718   0.18130

 Mulliken charges and spin densities:
               1          2
     1  C   -0.651529   0.005483
     2  C    0.017241  -0.049969
     3  C   -0.659986   0.018938
     4  C    0.821795   0.124201
     5  C   -0.977237   0.353821
     6  N   -0.342094   0.080297
     7  N    0.755518   0.007889
     8  N   -0.518119   0.237232
     9  C   -0.046568   0.091058
    10  O   -0.437610   0.090203
    11  N   -0.489061   0.024779
    12  H    0.172230  -0.000259
    13  H    0.113787  -0.001741
    14  H    0.090397   0.004322
    15  H    0.132076  -0.001989
    16  H    0.178187  -0.000385
    17  H    0.108861   0.005642
    18  H    0.085581   0.003583
    19  H    0.120174  -0.017337
    20  H    0.280770   0.013316
    21  H    0.245584   0.010916
 Sum of Mulliken charges =  -1.00000   1.00000

 Dipole moment (field-independent basis, Debye):
    X=             -1.7382    Y=             -0.8352    Z=              0.3956  Tot=              1.9686
 Quadrupole moment (field-independent basis, Debye-Ang):
   XX=           -116.4176   YY=            -76.3766   ZZ=            -75.6265
   XY=             11.7913   XZ=             -0.1840   YZ=              0.1834

 Summary of Natural Population Analysis:

                                       Natural Population
                Natural  -----------------------------------------------
    Atom  No    Charge         Core      Valence    Rydberg      Total
 -----------------------------------------------------------------------
      C    1   -0.28287      0.99965     2.27856    0.00466     3.28287
      C    2   -0.11022      0.99960     2.10127    0.00935     3.11022
      C    3   -0.28248      0.99965     2.27815    0.00469     3.28248
      C    4   -0.03631      0.99942     2.02356    0.01332     3.03631
      C    5    0.05415      0.99942     1.93334    0.01309     2.94585
      N    6   -0.24274      0.99966     2.72814    0.01494     3.74274
      N    7    0.17295      0.99971     2.31178    0.01556     3.32705
      N    8   -0.00255      0.99981     2.48980    0.01293     3.50255
      C    9    0.34684      0.99965     1.63043    0.02308     2.65316
      O   10   -0.32806      0.99988     3.32248    0.00570     4.32806
      N   11   -0.41190      0.99970     2.90387    0.00832     3.91190
      H   12    0.11072      0.00000     0.38833    0.00096     0.38928
      H   13    0.09477      0.00000     0.40443    0.00080     0.40523
      H   14    0.08439      0.00000     0.41464    0.00096     0.41561
      H   15    0.08463      0.00000     0.41355    0.00182     0.41537
      H   16    0.11172      0.00000     0.38736    0.00092     0.38828
      H   17    0.09472      0.00000     0.40448    0.00080     0.40528
      H   18    0.08361      0.00000     0.41541    0.00098     0.41639
      H   19    0.07592      0.00000     0.42242    0.00166     0.42408
      H   20    0.20230      0.00000     0.29559    0.00211     0.29770
      H   21    0.18041      0.00000     0.31602    0.00357     0.31959
 =======================================================================
   * Total *   -0.00000     10.99615    29.86361    0.14023    41.00000

 Normal termination of Gaussian 16 at Tue Dec  8 19:28:04 2020.
