 Gaussian 16, Revision A.03,

 -----------------------------------------------------------
 # opt freq B3LYP/6-31G(d) empiricaldispersion=gd3bj scf=xqc
 -----------------------------------------------------------

 ------------------------------
 CID_105428620_JID_176_neutraal
 ------------------------------
 Symbolic Z-matrix:
 Charge =  0 Multiplicity = 1

 SCF Done:  E(RB3LYP) =  -495.791357812     A.U. after   14 cycles
 SCF Done:  E(RB3LYP) =  -495.798273174     A.U. after   12 cycles
 SCF Done:  E(RB3LYP) =  -495.800841607     A.U. after   13 cycles
 SCF Done:  E(RB3LYP) =  -495.801599247     A.U. after   13 cycles
 SCF Done:  E(RB3LYP) =  -495.801546162     A.U. after   12 cycles
 SCF Done:  E(RB3LYP) =  -495.802210038     A.U. after   12 cycles
 SCF Done:  E(RB3LYP) =  -495.802663061     A.U. after   12 cycles
 SCF Done:  E(RB3LYP) =  -495.802702890     A.U. after   10 cycles
 SCF Done:  E(RB3LYP) =  -495.802720087     A.U. after    9 cycles
 SCF Done:  E(RB3LYP) =  -495.802724410     A.U. after    8 cycles
 SCF Done:  E(RB3LYP) =  -495.802725649     A.U. after    8 cycles
 SCF Done:  E(RB3LYP) =  -495.802726124     A.U. after    8 cycles
 SCF Done:  E(RB3LYP) =  -495.802726205     A.U. after    7 cycles
 Optimization completed.
    -- Stationary point found.
 Normal termination of Gaussian 16 at Tue Dec  8 10:19:58 2020.

 --------------------------------------------------------------------
 #N Geom=AllCheck Guess=TCheck SCRF=Check GenChk RB3LYP/6-31G(d) Freq
 --------------------------------------------------------------------

 Structure from the checkpoint file:  "JID_176.chk"
 ------------------------------
 CID_105428620_JID_176_neutraal
 ------------------------------
 Charge =  0 Multiplicity = 1

 SCF Done:  E(RB3LYP) =  -495.802726205     A.U. after    1 cycles

  Exact polarizability:  93.607   5.616  78.365   3.704  -2.990  68.069
 Approx polarizability: 124.399  12.030 116.083   6.496  -5.912 101.068

                      1                      2                      3
                      A                      A                      A
 Frequencies --     78.2756                87.0049               140.5510
 Red. masses --      5.0763                 3.8268                 2.7006
 Frc consts  --      0.0183                 0.0171                 0.0314
 IR Inten    --      2.7876                 0.9465                 2.8313

                      4                      5                      6
                      A                      A                      A
 Frequencies --    181.1035               199.7055               224.7715
 Red. masses --      3.3888                 2.6335                 3.2383
 Frc consts  --      0.0655                 0.0619                 0.0964
 IR Inten    --      3.4306                 2.4860                 1.2817

                      7                      8                      9
                      A                      A                      A
 Frequencies --    314.9831               320.7503               452.3269
 Red. masses --      2.7060                 2.4059                 2.7324
 Frc consts  --      0.1582                 0.1458                 0.3294
 IR Inten    --      0.6650                 5.1515                14.8899

                     10                     11                     12
                      A                      A                      A
 Frequencies --    486.6382               510.6461               556.2292
 Red. masses --      1.7190                 3.4722                 2.9331
 Frc consts  --      0.2398                 0.5334                 0.5347
 IR Inten    --     50.1527                16.1765                 8.4488

                     13                     14                     15
                      A                      A                      A
 Frequencies --    563.6366               617.8033               652.9243
 Red. masses --      1.7404                 2.7598                 2.5560
 Frc consts  --      0.3258                 0.6206                 0.6420
 IR Inten    --     66.2352                37.6220                 3.7012

                     16                     17                     18
                      A                      A                      A
 Frequencies --    754.7030               781.7407               818.2794
 Red. masses --      1.9378                 1.9059                 1.8571
 Frc consts  --      0.6503                 0.6862                 0.7326
 IR Inten    --     83.3760                32.3284                 4.7690

                     19                     20                     21
                      A                      A                      A
 Frequencies --    849.2694               894.1108               931.4465
 Red. masses --      2.6759                 2.4574                 2.4268
 Frc consts  --      1.1371                 1.1574                 1.2405
 IR Inten    --      5.4882                63.4931                 9.2053

                     22                     23                     24
                      A                      A                      A
 Frequencies --    969.9804              1007.9207              1020.2977
 Red. masses --      2.0838                 2.0213                 1.8130
 Frc consts  --      1.1551                 1.2099                 1.1120
 IR Inten    --     21.5841                11.0653                 5.8476

                     25                     26                     27
                      A                      A                      A
 Frequencies --   1074.1421              1091.8852              1103.2412
 Red. masses --      2.1048                 1.9501                 3.4016
 Frc consts  --      1.4308                 1.3698                 2.4394
 IR Inten    --      1.7776                12.8739                61.0126

                     28                     29                     30
                      A                      A                      A
 Frequencies --   1134.5267              1158.0559              1208.8045
 Red. masses --      3.3140                 2.8347                 1.2924
 Frc consts  --      2.5133                 2.2398                 1.1127
 IR Inten    --     12.6556                51.4120                 7.3255

                     31                     32                     33
                      A                      A                      A
 Frequencies --   1228.6408              1253.6721              1276.7747
 Red. masses --      1.2650                 1.4074                 2.1580
 Frc consts  --      1.1251                 1.3033                 2.0727
 IR Inten    --     44.5426                 3.8896                55.9667

                     34                     35                     36
                      A                      A                      A
 Frequencies --   1297.2991              1319.6698              1342.6422
 Red. masses --      1.4124                 1.5707                 1.1813
 Frc consts  --      1.4005                 1.6117                 1.2547
 IR Inten    --      4.9671                24.4680                 5.0975

                     37                     38                     39
                      A                      A                      A
 Frequencies --   1392.5485              1397.5769              1409.0881
 Red. masses --      1.4499                 1.3952                 1.2928
 Frc consts  --      1.6565                 1.6056                 1.5124
 IR Inten    --      8.0489                 4.2615                 6.7262

                     40                     41                     42
                      A                      A                      A
 Frequencies --   1418.0173              1443.4985              1454.3778
 Red. masses --      1.3601                 1.3088                 1.1955
 Frc consts  --      1.6113                 1.6068                 1.4900
 IR Inten    --     13.7899                17.5671                42.0389

                     43                     44                     45
                      A                      A                      A
 Frequencies --   1489.9735              1507.3483              1517.0695
 Red. masses --      1.0920                 1.0783                 1.0931
 Frc consts  --      1.4283                 1.4435                 1.4823
 IR Inten    --      6.7015                 6.3125                 4.5555

                     46                     47                     48
                      A                      A                      A
 Frequencies --   1532.7942              1547.6704              1851.0303
 Red. masses --      1.0877                 1.0936                11.4918
 Frc consts  --      1.5057                 1.5433                23.1987
 IR Inten    --      0.5486                 1.4252               387.1224

                     49                     50                     51
                      A                      A                      A
 Frequencies --   3008.8106              3030.6938              3041.9009
 Red. masses --      1.0698                 1.0679                 1.0625
 Frc consts  --      5.7059                 5.7791                 5.7927
 IR Inten    --     39.3761                24.2860                37.8158

                     52                     53                     54
                      A                      A                      A
 Frequencies --   3064.5301              3074.9576              3075.7191
 Red. masses --      1.0651                 1.0701                 1.0946
 Frc consts  --      5.8934                 5.9616                 6.1011
 IR Inten    --     26.0735                15.5910                37.7837

                     55                     56                     57
                      A                      A                      A
 Frequencies --   3090.9004              3111.4805              3116.8715
 Red. masses --      1.0978                 1.1026                 1.0950
 Frc consts  --      6.1792                 6.2891                 6.2678
 IR Inten    --     69.4790                25.8224                22.4707

                     58                     59                     60
                      A                      A                      A
 Frequencies --   3148.6252              3527.0082              3657.2685
 Red. masses --      1.0978                 1.0767                 1.0650
 Frc consts  --      6.4123                 7.8916                 8.3932
 IR Inten    --      6.4418                25.2406               151.3728

 - Thermochemistry -
 -------------------
 Temperature   298.150 Kelvin.  Pressure   1.00000 Atm.
 Atom     1 has atomic number  6 and mass  12.00000

 Molecular mass:   144.08988 amu.
 Principal axes and moments of inertia in atomic units:
                           1         2         3
     Eigenvalues --   880.655831802.216192226.62177
           X            0.99994  -0.01031   0.00217
           Y            0.01034   0.99981  -0.01636
           Z           -0.00200   0.01638   0.99986
 This molecule is an asymmetric top.
 Rotational symmetry number  1.
 Warning -- assumption of classical behavior for rotation
           may cause significant error
 Rotational temperatures (Kelvin)      0.09835     0.04806     0.03890
 Rotational constants (GHZ):           2.04931     1.00140     0.81053
 Zero-point vibrational energy     501320.3 (Joules/Mol)
                                  119.81843 (Kcal/Mol)
 Warning -- explicit consideration of  14 degrees of freedom as
           vibrations may cause significant error
 Vibrational temperatures:    112.62   125.18   202.22   260.57   287.33
          (Kelvin)            323.40   453.19   461.49   650.80   700.16
                              734.71   800.29   810.95   888.88   939.41
                             1085.85  1124.75  1177.32  1221.91  1286.43
                             1340.14  1395.59  1450.17  1467.98  1545.45
                             1570.98  1587.32  1632.33  1666.18  1739.20
                             1767.74  1803.75  1836.99  1866.52  1898.71
                             1931.76  2003.57  2010.80  2027.36  2040.21
                             2076.87  2092.53  2143.74  2168.74  2182.72
                             2205.35  2226.75  2663.22  4329.01  4360.49
                             4376.62  4409.18  4424.18  4425.27  4447.12
                             4476.73  4484.48  4530.17  5074.58  5261.99

 Zero-point correction=                           0.190943 (Hartree/Particle)
 Thermal correction to Energy=                    0.200609
 Thermal correction to Enthalpy=                  0.201553
 Thermal correction to Gibbs Free Energy=         0.155974
 Sum of electronic and zero-point Energies=           -495.611783
 Sum of electronic and thermal Energies=              -495.602118
 Sum of electronic and thermal Enthalpies=            -495.601173
 Sum of electronic and thermal Free Energies=         -495.646752

                     E (Thermal)             CV                S
                      KCal/Mol        Cal/Mol-Kelvin    Cal/Mol-Kelvin
 Total                  125.884             36.761             95.928
 Electronic               0.000              0.000              0.000
 Translational            0.889              2.981             40.807
 Rotational               0.889              2.981             29.648
 Vibrational            124.106             30.800             25.473
 Vibration     1          0.600              1.964              3.934
 Vibration     2          0.601              1.958              3.726
 Vibration     3          0.615              1.913              2.796
 Vibration     4          0.630              1.865              2.317
 Vibration     5          0.638              1.840              2.136
 Vibration     6          0.649              1.803              1.920
 Vibration     7          0.702              1.645              1.336
 Vibration     8          0.706              1.634              1.306
 Vibration     9          0.811              1.356              0.789
 Vibration    10          0.843              1.280              0.692
 Vibration    11          0.866              1.226              0.632
 Vibration    12          0.912              1.126              0.531
 Vibration    13          0.919              1.110              0.517
 Vibration    14          0.978              0.994              0.420

 Optimization completed.
    -- Stationary point found.
 Normal termination of Gaussian 16 at Tue Dec  8 10:23:55 2020.

 ----------------------------------------------------------------------
 # B3LYP/6-311++G(d,p) empiricaldispersion=gd3bj scf=xqc pop=npa geom=c
 heck
 ----------------------------------------------------------------------

 --------------------------------------
 CID_105428620_JID_176_Energie_neutraal
 --------------------------------------
 Structure from the checkpoint file:  "JID_176.chk"
 Charge =  0 Multiplicity = 1

 SCF Done:  E(RB3LYP) =  -495.960324339     A.U. after   14 cycles
 Normal termination of Gaussian 16 at Tue Dec  8 10:25:27 2020.

 ----------------------------------------------------------------------
 # B3LYP/6-311++G(d,p) empiricaldispersion=gd3bj scf=xqc pop=npa geom=c
 heck
 ----------------------------------------------------------------------

 ------------------------------------
 CID_105428620_JID_176_Energie_kation
 ------------------------------------
 Structure from the checkpoint file:  "JID_176.chk"
 Charge =  1 Multiplicity = 2

 SCF Done:  E(UB3LYP) =  -495.650571179     A.U. after   20 cycles
 Normal termination of Gaussian 16 at Tue Dec  8 10:28:33 2020.
 Gaussian 16:  ES64L-G16RevA.03 25-Dec-2016

 ----------------------------------------------------------------------
 # B3LYP/6-311++G(d,p) empiricaldispersion=gd3bj scf=xqc pop=npa geom=c
 heck
 ----------------------------------------------------------------------

 -----------------------------------
 CID_105428620_JID_176_Energie_anion
 -----------------------------------
 Structure from the checkpoint file:  "JID_176.chk"
 Charge = -1 Multiplicity = 2

                         Standard orientation:
 ---------------------------------------------------------------------
 Center     Atomic      Atomic             Coordinates (Angstroms)
 Number     Number       Type             X           Y           Z
 ---------------------------------------------------------------------
      1          6           0        2.041670   -0.805334    0.706728
      2          6           0        0.694035   -1.498376    0.511157
      3          7           0        0.186966   -0.929213   -0.753653
      4          7           0        0.656514    0.450520   -0.720498
      5          6           0        1.866441    0.523888   -0.018581
      6          8           0        2.620857    1.472258   -0.046940
      7          6           0       -1.271623   -0.995912   -0.933986
      8          6           0       -2.211618   -0.661332    0.241175
      9          6           0       -2.002528    0.711257    0.897217
     10          8           0       -1.868570    1.761750   -0.044046
     11          1           0        2.329984   -0.662093    1.749881
     12          1           0        2.856227   -1.334937    0.198303
     13          1           0        0.760140   -2.584748    0.409437
     14          1           0        0.036379   -1.271575    1.361814
     15          1           0        0.715382    0.841398   -1.658561
     16          1           0       -1.510558   -0.339177   -1.776210
     17          1           0       -1.480798   -2.018977   -1.268198
     18          1           0       -3.228924   -0.709828   -0.168023
     19          1           0       -2.156845   -1.438389    1.015351
     20          1           0       -2.873832    0.948297    1.517692
     21          1           0       -1.131438    0.681136    1.569141
     22          1           0       -0.936643    1.722531   -0.325948
 ---------------------------------------------------------------------

 SCF Done:  E(UB3LYP) =  -495.948973898     A.U. after   31 cycles

 The electronic state is 2-A.
 Alpha  occ. eigenvalues --  -19.01034 -19.00403 -14.25963 -14.24369 -10.17926
 Alpha  occ. eigenvalues --  -10.11026 -10.09781 -10.09513 -10.08065 -10.06458
 Alpha  occ. eigenvalues --   -0.95616  -0.91606  -0.89528  -0.73758  -0.68998
 Alpha  occ. eigenvalues --   -0.64985  -0.57437  -0.52712  -0.49500  -0.47965
 Alpha  occ. eigenvalues --   -0.42094  -0.40701  -0.38023  -0.36098  -0.35329
 Alpha  occ. eigenvalues --   -0.34549  -0.32337  -0.32013  -0.30321  -0.29559
 Alpha  occ. eigenvalues --   -0.28489  -0.27343  -0.26522  -0.24973  -0.22834
 Alpha  occ. eigenvalues --   -0.21225  -0.17094  -0.16322  -0.11393   0.04618
 Alpha virt. eigenvalues --    0.07237   0.07698   0.08426   0.09081   0.09940
 Alpha virt. eigenvalues --    0.10830   0.11025   0.11475   0.12307   0.13017
 Alpha virt. eigenvalues --    0.13741   0.15377   0.15782   0.16399   0.17736

  Beta  occ. eigenvalues --  -19.01026 -19.00389 -14.25921 -14.24363 -10.17902
  Beta  occ. eigenvalues --  -10.11009 -10.09733 -10.09491 -10.08032 -10.06435
  Beta  occ. eigenvalues --   -0.95579  -0.91591  -0.89494  -0.73700  -0.68932
  Beta  occ. eigenvalues --   -0.64934  -0.57369  -0.52616  -0.49390  -0.47900
  Beta  occ. eigenvalues --   -0.42050  -0.40647  -0.37970  -0.36046  -0.35267
  Beta  occ. eigenvalues --   -0.34512  -0.32268  -0.31973  -0.30238  -0.29509
  Beta  occ. eigenvalues --   -0.28417  -0.27300  -0.26474  -0.24917  -0.22790
  Beta  occ. eigenvalues --   -0.21169  -0.17061  -0.16285  -0.11329
  Beta virt. eigenvalues --    0.07290   0.08058   0.08552   0.09389   0.09448
  Beta virt. eigenvalues --    0.10716   0.11425   0.11647   0.12068   0.12574
  Beta virt. eigenvalues --    0.13493   0.14159   0.15788   0.15862   0.16594

 Mulliken charges and spin densities:
               1          2
     1  C    0.913902  -1.283281
     2  C    0.680845  -0.951548
     3  N    0.112528   0.307695
     4  N   -0.414583  -0.229730
     5  C    0.136241  -0.071049
     6  O   -0.379249   0.043793
     7  C    0.069474  -0.430502
     8  C    0.023180  -0.185117
     9  C    0.489161  -0.891976
    10  O   -0.302065   0.017662
    11  H   -0.367850   0.553613
    12  H   -0.207856   0.418658
    13  H   -1.133979   1.321204
    14  H    0.342696  -0.217147
    15  H   -0.106663   0.456603
    16  H   -0.139658   0.295116
    17  H   -0.305876   0.521248
    18  H   -0.173260   0.326736
    19  H   -0.433497   0.572384
    20  H   -0.088540   0.252161
    21  H   -0.003376   0.156649
    22  H    0.288424   0.016828
 Sum of Mulliken charges =  -1.00000   1.00000

 Dipole moment (field-independent basis, Debye):
    X=             -1.1381    Y=              3.6314    Z=             -0.1622  Tot=              3.8090
 Quadrupole moment (field-independent basis, Debye-Ang):
   XX=           -110.1269   YY=           -114.4151   ZZ=            -88.7885
   XY=              0.5477   XZ=             -0.4965   YZ=              2.0055

 Summary of Natural Population Analysis:

                                       Natural Population
                Natural  -----------------------------------------------
    Atom  No    Charge         Core      Valence    Rydberg      Total
 -----------------------------------------------------------------------
      C    1   -0.23918      0.99959     2.23080    0.00879     3.23918
      C    2   -0.09209      0.99962     2.08020    0.01227     3.09209
      N    3   -0.18859      0.99974     2.67249    0.01636     3.68859
      N    4   -0.26245      0.99967     2.74975    0.01303     3.76245
      C    5    0.35477      0.99969     1.62309    0.02245     2.64523
      O    6   -0.30545      0.99987     3.29953    0.00605     4.30545
      C    7   -0.09026      0.99960     2.07680    0.01387     3.09026
      C    8   -0.21537      0.99962     2.20715    0.00860     3.21537
      C    9   -0.01336      0.99960     2.00016    0.01360     3.01336
      O   10   -0.37931      0.99990     3.37257    0.00684     4.37931
      H   11    0.11437      0.00000     0.38466    0.00097     0.38563
      H   12    0.11785      0.00000     0.37974    0.00241     0.38215
      H   13    0.11061      0.00000     0.38232    0.00707     0.38939
      H   14    0.08717      0.00000     0.41031    0.00252     0.41283
      H   15    0.19835      0.00000     0.29810    0.00355     0.30165
      H   16    0.09841      0.00000     0.40001    0.00158     0.40159
      H   17    0.10510      0.00000     0.39299    0.00191     0.39490
      H   18    0.10107      0.00000     0.39771    0.00122     0.39893
      H   19    0.10095      0.00000     0.39731    0.00175     0.39905
      H   20    0.08422      0.00000     0.41469    0.00109     0.41578
      H   21    0.07670      0.00000     0.42179    0.00151     0.42330
      H   22    0.23649      0.00000     0.26006    0.00345     0.26351
 =======================================================================
   * Total *   -0.00000      9.99691    28.85223    0.15087    39.00000

 Normal termination of Gaussian 16 at Tue Dec  8 10:34:01 2020.
