 Gaussian 16, Revision A.03,

 -----------------------------------------------------------
 # opt freq B3LYP/6-31G(d) empiricaldispersion=gd3bj scf=xqc
 -----------------------------------------------------------

 ----------------------------
 CID_140994819_JID_2_neutraal
 ----------------------------
 Symbolic Z-matrix:
 Charge =  0 Multiplicity = 1

 SCF Done:  E(RB3LYP) =  -464.932219842     A.U. after   13 cycles
 SCF Done:  E(RB3LYP) =  -464.935047468     A.U. after   11 cycles
 SCF Done:  E(RB3LYP) =  -464.935369631     A.U. after   10 cycles
 SCF Done:  E(RB3LYP) =  -464.935435452     A.U. after   10 cycles
 SCF Done:  E(RB3LYP) =  -464.935460990     A.U. after   10 cycles
 SCF Done:  E(RB3LYP) =  -464.935479185     A.U. after   10 cycles
 SCF Done:  E(RB3LYP) =  -464.935484889     A.U. after    9 cycles
 Optimization completed.
    -- Stationary point found.

 1\1\GINC-NODE381\FOpt\RB3LYP\6-31G(d)\C8H16O2\VSC10255\08-Dec-2020\0\\
 # opt freq B3LYP/6-31G(d) empiricaldispersion=gd3bj scf=xqc\\CID_14099
 4819_JID_2_neutraal\\0,1\C,0.9813794138,-0.0628332161,0.0041493585\C,0
 .4050433808,1.1721843439,-0.693611681\C,0.8173703012,1.3250771023,-2.1
 697072321\C,0.2784980944,0.2134150634,-3.0378818525\C,-0.3312533884,0.
 3954215554,-4.2114473354\C,-0.9195953172,-0.7092573629,-5.0422919945\C
 ,-2.4616392678,-0.7472033894,-5.021201383\C,-3.1022441201,0.5279024626
 ,-5.5668687466\O,-2.9411585389,-1.8998229262,-5.7136029202\O,0.4575951

 Normal termination of Gaussian 16 at Tue Dec  8 10:13:29 2020.

 --------------------------------------------------------------------
 #N Geom=AllCheck Guess=TCheck SCRF=Check GenChk RB3LYP/6-31G(d) Freq
 --------------------------------------------------------------------

 Structure from the checkpoint file:  "JID_2.chk"
 ----------------------------
 CID_140994819_JID_2_neutraal
 ----------------------------
 Charge =  0 Multiplicity = 1

 SCF Done:  E(RB3LYP) =  -464.935484889     A.U. after    1 cycles

  Exact polarizability: 121.702  -6.363  85.254   3.140   1.506  75.189
 Approx polarizability: 150.610  -8.545 122.960   3.731   0.023 107.691

                      1                      2                      3
                      A                      A                      A
 Frequencies --     25.3952                58.0239                68.6005
 Red. masses --      3.1641                 3.4380                 3.4347
 Frc consts  --      0.0012                 0.0068                 0.0095
 IR Inten    --      1.1638                 0.9216                 2.4181

                      4                      5                      6
                      A                      A                      A
 Frequencies --    106.6486               130.3890               180.8695
 Red. masses --      2.2650                 2.1045                 2.6246
 Frc consts  --      0.0152                 0.0211                 0.0506
 IR Inten    --      1.1631                 1.5936                 0.2956

                      7                      8                      9
                      A                      A                      A
 Frequencies --    239.9837               252.4308               261.3815
 Red. masses --      1.3298                 1.3959                 1.9093
 Frc consts  --      0.0451                 0.0524                 0.0769
 IR Inten    --      0.0125                 4.6163                 1.7933

                     10                     11                     12
                      A                      A                      A
 Frequencies --    282.8528               304.3156               342.0042
 Red. masses --      2.1192                 1.2259                 2.2972
 Frc consts  --      0.0999                 0.0669                 0.1583
 IR Inten    --     14.6699                81.6630                23.2309

                     13                     14                     15
                      A                      A                      A
 Frequencies --    355.0739               429.2072               440.6572
 Red. masses --      1.2716                 2.5552                 2.7265
 Frc consts  --      0.0945                 0.2773                 0.3119
 IR Inten    --     97.0846                 9.6518                41.5249

                     16                     17                     18
                      A                      A                      A
 Frequencies --    457.9333               467.1113               492.2976
 Red. masses --      2.9631                 3.1941                 2.5825
 Frc consts  --      0.3661                 0.4106                 0.3688
 IR Inten    --      0.2708                24.1729                 7.7144

                     19                     20                     21
                      A                      A                      A
 Frequencies --    665.8758               796.1810               801.5533
 Red. masses --      2.6860                 1.5508                 1.9971
 Frc consts  --      0.7017                 0.5792                 0.7560
 IR Inten    --      0.3916                 7.3772                 1.8076

                     22                     23                     24
                      A                      A                      A
 Frequencies --    862.8733               877.5726               915.3936
 Red. masses --      2.3315                 1.5518                 1.5246
 Frc consts  --      1.0228                 0.7041                 0.7527
 IR Inten    --      0.7253                 8.8966                10.8880

                     25                     26                     27
                      A                      A                      A
 Frequencies --    954.4368               969.6053              1028.4073
 Red. masses --      1.8323                 1.9668                 1.1497
 Frc consts  --      0.9834                 1.0894                 0.7164
 IR Inten    --     12.8079                16.6769                23.2010

                     28                     29                     30
                      A                      A                      A
 Frequencies --   1040.8375              1063.1575              1066.4869
 Red. masses --      1.8802                 1.9648                 2.4178
 Frc consts  --      1.2001                 1.3084                 1.6203
 IR Inten    --     15.2415                52.1548                11.7185

                     31                     32                     33
                      A                      A                      A
 Frequencies --   1087.4133              1109.2585              1136.8956
 Red. masses --      2.3778                 1.7262                 2.2175
 Frc consts  --      1.6566                 1.2515                 1.6887
 IR Inten    --     73.3592                13.8826                17.1000

                     34                     35                     36
                      A                      A                      A
 Frequencies --   1153.6277              1165.5247              1224.6064
 Red. masses --      1.8853                 2.1164                 1.3986
 Frc consts  --      1.4783                 1.6939                 1.2357
 IR Inten    --     33.1353                41.9245                13.4100

                     37                     38                     39
                      A                      A                      A
 Frequencies --   1274.0850              1287.5276              1290.2953
 Red. masses --      1.4242                 1.3298                 1.3356
 Frc consts  --      1.3621                 1.2989                 1.3101
 IR Inten    --      1.4211                14.1985                 6.6464

                     40                     41                     42
                      A                      A                      A
 Frequencies --   1334.2437              1343.3836              1365.6122
 Red. masses --      1.2412                 1.2371                 1.3932
 Frc consts  --      1.3019                 1.3154                 1.5308
 IR Inten    --      4.3109                 6.2511                 3.8367

                     43                     44                     45
                      A                      A                      A
 Frequencies --   1368.5385              1385.1713              1392.9328
 Red. masses --      1.4597                 1.3493                 1.4714
 Frc consts  --      1.6108                 1.5253                 1.6820
 IR Inten    --     20.4481                11.2473                 1.8084

                     46                     47                     48
                      A                      A                      A
 Frequencies --   1428.5720              1434.2066              1443.8457
 Red. masses --      1.2111                 1.2660                 1.2864
 Frc consts  --      1.4562                 1.5342                 1.5801
 IR Inten    --     28.0317                38.1328                53.6714

                     49                     50                     51
                      A                      A                      A
 Frequencies --   1445.2480              1510.3078              1518.4928
 Red. masses --      1.2323                 1.0947                 1.0671
 Frc consts  --      1.5165                 1.4712                 1.4497
 IR Inten    --      9.6977                 2.3075                 0.4268

                     52                     53                     54
                      A                      A                      A
 Frequencies --   1522.9631              1528.6856              1531.6354
 Red. masses --      1.0550                 1.0534                 1.0491
 Frc consts  --      1.4417                 1.4503                 1.4500
 IR Inten    --      2.3241                 7.5370                 3.6506

                     55                     56                     57
                      A                      A                      A
 Frequencies --   1539.2112              1749.4353              3003.7355
 Red. masses --      1.0586                 6.2186                 1.0686
 Frc consts  --      1.4777                11.2135                 5.6803
 IR Inten    --      5.8200                 1.6428                40.1013

                     58                     59                     60
                      A                      A                      A
 Frequencies --   3022.5503              3034.9475              3037.5513
 Red. masses --      1.0729                 1.0758                 1.0433
 Frc consts  --      5.7748                 5.8382                 5.6716
 IR Inten    --      6.1234                44.6659                17.4156

                     61                     62                     63
                      A                      A                      A
 Frequencies --   3050.4863              3070.7006              3083.4702
 Red. masses --      1.0370                 1.0833                 1.0976
 Frc consts  --      5.6858                 6.0182                 6.1484
 IR Inten    --     30.6220                16.0399                16.9803

                     64                     65                     66
                      A                      A                      A
 Frequencies --   3090.6063              3109.8580              3115.0481
 Red. masses --      1.0940                 1.0951                 1.1016
 Frc consts  --      6.1568                 6.2402                 6.2981
 IR Inten    --     21.9160                44.9922                40.7381

                     67                     68                     69
                      A                      A                      A
 Frequencies --   3122.8897              3135.5654              3158.8073
 Red. masses --      1.1018                 1.1024                 1.0891
 Frc consts  --      6.3308                 6.3860                 6.4028
 IR Inten    --     48.8896                28.5106                14.8843

                     70                     71                     72
                      A                      A                      A
 Frequencies --   3171.9984              3713.8912              3719.3514
 Red. masses --      1.0867                 1.0655                 1.0657
 Frc consts  --      6.4418                 8.6587                 8.6862
 IR Inten    --     15.7776                 5.2493                 8.3700

 - Thermochemistry -
 -------------------
 Temperature   298.150 Kelvin.  Pressure   1.00000 Atm.
 Atom     1 has atomic number  6 and mass  12.00000

 Molecular mass:   144.11503 amu.
 Principal axes and moments of inertia in atomic units:
                           1         2         3
     Eigenvalues --   781.819573568.462213922.30420
           X            0.99957  -0.02892   0.00422
           Y            0.02877   0.99911   0.03087
           Z           -0.00511  -0.03074   0.99951
 This molecule is an asymmetric top.
 Rotational symmetry number  1.
 Warning -- assumption of classical behavior for rotation
           may cause significant error
 Rotational temperatures (Kelvin)      0.11079     0.02427     0.02208
 Rotational constants (GHZ):           2.30839     0.50575     0.46012
 Zero-point vibrational energy     610997.1 (Joules/Mol)
                                  146.03181 (Kcal/Mol)
 Warning -- explicit consideration of  18 degrees of freedom as
           vibrations may cause significant error
 Vibrational temperatures:     36.54    83.48    98.70   153.44   187.60
          (Kelvin)            260.23   345.28   363.19   376.07   406.96
                              437.84   492.07   510.87   617.53   634.01
                              658.86   672.07   708.31   958.05  1145.53
                             1153.26  1241.48  1262.63  1317.05  1373.22
                             1395.05  1479.65  1497.53  1529.65  1534.44
                             1564.55  1595.98  1635.74  1659.81  1676.93
                             1761.94  1833.12  1852.47  1856.45  1919.68
                             1932.83  1964.81  1969.02  1992.95  2004.12
                             2055.40  2063.50  2077.37  2079.39  2173.00
                             2184.77  2191.20  2199.44  2203.68  2214.58
                             2517.05  4321.71  4348.78  4366.61  4370.36
                             4388.97  4418.05  4436.43  4446.69  4474.39
                             4481.86  4493.14  4511.38  4544.82  4563.80
                             5343.46  5351.32

 Zero-point correction=                           0.232716 (Hartree/Particle)
 Thermal correction to Energy=                    0.245301
 Thermal correction to Enthalpy=                  0.246246
 Thermal correction to Gibbs Free Energy=         0.193153
 Sum of electronic and zero-point Energies=           -464.702768
 Sum of electronic and thermal Energies=              -464.690183
 Sum of electronic and thermal Enthalpies=            -464.689239
 Sum of electronic and thermal Free Energies=         -464.742331

                     E (Thermal)             CV                S
                      KCal/Mol        Cal/Mol-Kelvin    Cal/Mol-Kelvin
 Total                  153.929             45.532            111.742
 Electronic               0.000              0.000              0.000
 Translational            0.889              2.981             40.807
 Rotational               0.889              2.981             30.771
 Vibrational            152.152             39.571             40.164
 Vibration     1          0.593              1.985              6.160
 Vibration     2          0.596              1.974              4.523
 Vibration     3          0.598              1.969              4.193
 Vibration     4          0.606              1.944              3.329
 Vibration     5          0.612              1.923              2.940
 Vibration     6          0.630              1.866              2.319
 Vibration     7          0.657              1.779              1.803
 Vibration     8          0.664              1.759              1.714
 Vibration     9          0.669              1.743              1.653
 Vibration    10          0.682              1.705              1.516
 Vibration    11          0.695              1.666              1.393
 Vibration    12          0.721              1.592              1.203
 Vibration    13          0.731              1.565              1.144
 Vibration    14          0.791              1.407              0.861
 Vibration    15          0.801              1.381              0.825
 Vibration    16          0.816              1.343              0.772
 Vibration    17          0.824              1.323              0.746
 Vibration    18          0.848              1.267              0.678

                           ! Non-Optimized Parameters !

 1\1\GINC-NODE381\Freq\RB3LYP\6-31G(d)\C8H16O2\VSC10255\08-Dec-2020\0\\
 #N Geom=AllCheck Guess=TCheck SCRF=Check GenChk RB3LYP/6-31G(d) Freq\\
 CID_140994819_JID_2_neutraal\\0,1\C,0.9813794138,-0.0628332161,0.00414
 93585\C,0.4050433808,1.1721843439,-0.693611681\C,0.8173703012,1.325077
 1023,-2.1697072321\C,0.2784980944,0.2134150634,-3.0378818525\C,-0.3312
 533884,0.3954215554,-4.2114473354\C,-0.9195953172,-0.7092573629,-5.042
 2919945\C,-2.4616392678,-0.7472033894,-5.021201383\C,-3.1022441201,0.5
 279024626,-5.5668687466\O,-2.9411585389,-1.8998229262,-5.7136029202\O,

 Normal termination of Gaussian 16 at Tue Dec  8 10:17:24 2020.

 ----------------------------------------------------------------------
 # B3LYP/6-311++G(d,p) empiricaldispersion=gd3bj scf=xqc pop=npa geom=c
 heck
 ----------------------------------------------------------------------

 ------------------------------------
 CID_140994819_JID_2_Energie_neutraal
 ------------------------------------
 Structure from the checkpoint file:  "JID_2.chk"
 Charge =  0 Multiplicity = 1

 SCF Done:  E(RB3LYP) =  -465.091320454     A.U. after   13 cycles
 Normal termination of Gaussian 16 at Tue Dec  8 10:18:54 2020.

 ----------------------------------------------------------------------
 # B3LYP/6-311++G(d,p) empiricaldispersion=gd3bj scf=xqc pop=npa geom=c
 heck
 ----------------------------------------------------------------------

 ----------------------------------
 CID_140994819_JID_2_Energie_kation
 ----------------------------------
 Structure from the checkpoint file:  "JID_2.chk"
 Charge =  1 Multiplicity = 2

 SCF Done:  E(UB3LYP) =  -464.766872042     A.U. after   21 cycles
 Normal termination of Gaussian 16 at Tue Dec  8 10:21:56 2020.
 Gaussian 16:  ES64L-G16RevA.03 25-Dec-2016

 ---------------------------------
 CID_140994819_JID_2_Energie_anion
 ---------------------------------
 Structure from the checkpoint file:  "JID_2.chk"
 Charge = -1 Multiplicity = 2

                         Standard orientation:
 ---------------------------------------------------------------------
 Center     Atomic      Atomic             Coordinates (Angstroms)
 Number     Number       Type             X           Y           Z
 ---------------------------------------------------------------------
      1          6           0        3.461929   -1.581576    0.368776
      2          6           0        2.978590   -0.168115    0.704654
      3          6           0        2.135126    0.499541   -0.397639
      4          6           0        0.826158   -0.214585   -0.635394
      5          6           0       -0.360765    0.389069   -0.730237
      6          6           0       -1.667358   -0.331139   -0.905968
      7          6           0       -2.542472   -0.347053    0.364350
      8          6           0       -2.934263    1.050072    0.842433
      9          8           0       -3.696090   -1.163804    0.164423
     10          8           0        1.952507    1.885490   -0.116006
     11          1           0        2.631847   -2.289934    0.276073
     12          1           0        4.128561   -1.959461    1.151073
     13          1           0        4.018586   -1.593320   -0.576175
     14          1           0        2.389830   -0.185652    1.633584
     15          1           0        3.839420    0.486194    0.885197
     16          1           0        2.723323    0.486998   -1.326497
     17          1           0        0.881532   -1.298928   -0.729592
     18          1           0       -0.394945    1.475233   -0.665228
     19          1           0       -2.249636    0.143277   -1.712257
     20          1           0       -1.495204   -1.372165   -1.201584
     21          1           0       -1.981348   -0.854949    1.157007
     22          1           0       -3.474590    1.591679    0.053630
     23          1           0       -3.586881    0.978462    1.717678
     24          1           0       -2.054550    1.644730    1.110912
     25          1           0       -4.231864   -0.737350   -0.524175
     26          1           0        1.422919    1.934417    0.697163
 ---------------------------------------------------------------------

 SCF Done:  E(UB3LYP) =  -465.075479336     A.U. after   33 cycles
 SCF Done:  E(UB3LYP) =  -465.075479336     a.u. after    1 cycles

 The electronic state is 2-A.
 Alpha  occ. eigenvalues --  -19.02689 -19.01881 -10.12934 -10.12109 -10.07356
 Alpha  occ. eigenvalues --  -10.07225 -10.07208 -10.07074 -10.06707 -10.05750
 Alpha  occ. eigenvalues --   -0.93072  -0.92153  -0.71325  -0.68747  -0.64972
 Alpha  occ. eigenvalues --   -0.60283  -0.56516  -0.51494  -0.49759  -0.45947
 Alpha  occ. eigenvalues --   -0.40865  -0.38165  -0.38037  -0.36634  -0.34837
 Alpha  occ. eigenvalues --   -0.33998  -0.32601  -0.31605  -0.29914  -0.28671
 Alpha  occ. eigenvalues --   -0.27921  -0.26693  -0.25855  -0.25474  -0.25016
 Alpha  occ. eigenvalues --   -0.23313  -0.22160  -0.18686  -0.18372  -0.15122
 Alpha  occ. eigenvalues --    0.04587
 Alpha virt. eigenvalues --    0.05983   0.07116   0.08334   0.08630   0.09121
 Alpha virt. eigenvalues --    0.09424   0.09802   0.10711   0.11046   0.11613
 Alpha virt. eigenvalues --    0.12264   0.12566   0.13292   0.14182   0.14587

  Beta  occ. eigenvalues --  -19.02672 -19.01847 -10.12928 -10.12098 -10.07345
  Beta  occ. eigenvalues --  -10.07202 -10.07201 -10.07053 -10.06674 -10.05706
  Beta  occ. eigenvalues --   -0.93038  -0.92080  -0.71294  -0.68706  -0.64926
  Beta  occ. eigenvalues --   -0.60227  -0.56454  -0.51415  -0.49684  -0.45898
  Beta  occ. eigenvalues --   -0.40830  -0.38102  -0.37982  -0.36592  -0.34805
  Beta  occ. eigenvalues --   -0.33967  -0.32547  -0.31564  -0.29858  -0.28621
  Beta  occ. eigenvalues --   -0.27877  -0.26634  -0.25800  -0.25446  -0.24976
  Beta  occ. eigenvalues --   -0.23274  -0.22111  -0.18663  -0.18334  -0.15094
  Beta virt. eigenvalues --    0.06826   0.07282   0.07910   0.08666   0.09213
  Beta virt. eigenvalues --    0.09580   0.09736   0.10220   0.11148   0.11465
  Beta virt. eigenvalues --    0.12287   0.12521   0.12652   0.13553   0.14322

 Mulliken charges and spin densities:
               1          2
     1  C    1.190138  -1.808140
     2  C   -0.831617   0.691086
     3  C    0.339559  -0.504925
     4  C   -0.004312  -0.272397
     5  C   -0.201828   0.379585
     6  C    0.470910  -0.794614
     7  C   -0.771770   0.534257
     8  C    1.418460  -1.965282
     9  O   -0.224570   0.007911
    10  O   -0.220843  -0.008515
    11  H   -0.305582   0.446551
    12  H   -0.581266   0.733169
    13  H   -0.100905   0.231178
    14  H   -0.085179   0.216395
    15  H   -0.128660   0.294308
    16  H    0.029958   0.161932
    17  H    0.308277  -0.218996
    18  H    0.103669   0.068672
    19  H   -0.407093   0.545538
    20  H   -0.130773   0.293035
    21  H   -0.025363   0.207919
    22  H   -0.482210   0.640180
    23  H   -0.218717   0.370892
    24  H   -0.183926   0.319574
    25  H   -0.017322   0.263961
    26  H    0.060968   0.166726
 Sum of Mulliken charges =  -1.00000   1.00000

 Dipole moment (field-independent basis, Debye):
    X=              1.4749    Y=              0.2241    Z=             -1.5361  Tot=              2.1413
 Quadrupole moment (field-independent basis, Debye-Ang):
   XX=           -152.5985   YY=           -104.5097   ZZ=            -94.7870
   XY=              7.8884   XZ=             -7.2976   YZ=              4.0921

 Summary of Natural Population Analysis:

                                       Natural Population
                Natural  -----------------------------------------------
    Atom  No    Charge         Core      Valence    Rydberg      Total
 -----------------------------------------------------------------------
      C    1   -0.28799      0.99967     2.28279    0.00554     3.28799
      C    2   -0.19824      0.99962     2.18949    0.00913     3.19824
      C    3    0.05155      0.99953     1.93464    0.01427     2.94845
      C    4   -0.10621      0.99949     2.09811    0.00861     3.10621
      C    5   -0.08900      0.99951     2.08003    0.00947     3.08900
      C    6   -0.21527      0.99959     2.20474    0.01093     3.21527
      C    7    0.06762      0.99958     1.92006    0.01274     2.93238
      C    8   -0.30034      0.99965     2.29493    0.00577     3.30034
      O    9   -0.37136      0.99990     3.36446    0.00700     4.37136
      O   10   -0.36906      0.99990     3.36249    0.00667     4.36906
      H   11    0.09701      0.00000     0.40164    0.00135     0.40299
      H   12    0.10347      0.00000     0.39498    0.00155     0.39653
      H   13    0.09521      0.00000     0.40359    0.00120     0.40479
      H   14    0.09518      0.00000     0.40313    0.00170     0.40482
      H   15    0.10057      0.00000     0.39809    0.00135     0.39943
      H   16    0.08883      0.00000     0.40972    0.00145     0.41117
      H   17    0.09540      0.00000     0.40317    0.00142     0.40460
      H   18    0.09888      0.00000     0.39960    0.00152     0.40112
      H   19    0.09952      0.00000     0.39890    0.00158     0.40048
      H   20    0.10265      0.00000     0.39600    0.00134     0.39735
      H   21    0.08379      0.00000     0.41416    0.00204     0.41621
      H   22    0.09774      0.00000     0.39988    0.00239     0.40226
      H   23    0.10385      0.00000     0.39502    0.00114     0.39615
      H   24    0.10273      0.00000     0.39564    0.00163     0.39727
      H   25    0.22668      0.00000     0.26890    0.00442     0.27332
      H   26    0.22682      0.00000     0.26991    0.00327     0.27318
 =======================================================================
   * Total *    0.00000      9.99643    29.88409    0.11947    40.00000

 Normal termination of Gaussian 16 at Tue Dec  8 10:26:32 2020.
