 Gaussian 16, Revision A.03,

 ----------------------------------------------------------------------
 # opt=(cartesian,calcfc,maxcycle=500) freq B3LYP/6-31G(d) empiricaldis
 persion=gd3bj scf=xqc
 ----------------------------------------------------------------------

 ------------------------------
 CID_62239983_JID_7778_neutraal
 ------------------------------
 Symbolic Z-matrix:
 Charge =  0 Multiplicity = 1

 SCF Done:  E(RB3LYP) =  -1194.26274189     A.U. after   15 cycles
 SCF Done:  E(RB3LYP) =  -1194.26866372     A.U. after   12 cycles
 SCF Done:  E(RB3LYP) =  -1194.27347201     A.U. after   12 cycles
 SCF Done:  E(RB3LYP) =  -1194.27560555     A.U. after   12 cycles
 SCF Done:  E(RB3LYP) =  -1194.27611478     A.U. after   12 cycles
 SCF Done:  E(RB3LYP) =  -1194.27657243     A.U. after   12 cycles
 SCF Done:  E(RB3LYP) =  -1194.27655224     A.U. after   12 cycles
 SCF Done:  E(RB3LYP) =  -1194.27688090     A.U. after   11 cycles
 SCF Done:  E(RB3LYP) =  -1194.27709199     A.U. after   12 cycles
 SCF Done:  E(RB3LYP) =  -1194.27721520     A.U. after   11 cycles
 SCF Done:  E(RB3LYP) =  -1194.27861544     A.U. after    8 cycles
 SCF Done:  E(RB3LYP) =  -1194.27861549     A.U. after    7 cycles
 SCF Done:  E(RB3LYP) =  -1194.27861502     A.U. after    9 cycles
 SCF Done:  E(RB3LYP) =  -1194.27861553     A.U. after    6 cycles
 SCF Done:  E(RB3LYP) =  -1194.27861513     A.U. after    9 cycles
 SCF Done:  E(RB3LYP) =  -1194.27861554     A.U. after    6 cycles
 Optimization completed.
    -- Stationary point found.
 Normal termination of Gaussian 16 at Sat Feb 27 19:50:39 2021.

 --------------------------------------------------------------------
 #N Geom=AllCheck Guess=TCheck SCRF=Check GenChk RB3LYP/6-31G(d) Freq
 --------------------------------------------------------------------

 Structure from the checkpoint file:  "JID_7778.chk"
 ------------------------------
 CID_62239983_JID_7778_neutraal
 ------------------------------
 Charge =  0 Multiplicity = 1

 SCF Done:  E(RB3LYP) =  -1194.27861554     A.U. after    1 cycles

  Exact polarizability: 185.390   0.041 166.621 -13.387  -4.073  89.086
 Approx polarizability: 256.104  -1.505 272.182 -30.590  -9.424 141.726

                      1                      2                      3
                      A                      A                      A
 Frequencies --     19.6764                33.5751                42.1812
 Red. masses --      4.8113                 6.5784                 7.2100
 Frc consts  --      0.0011                 0.0044                 0.0076
 IR Inten    --      2.3936                 6.6892                 3.8435

                      4                      5                      6
                      A                      A                      A
 Frequencies --     58.7919                91.0628               112.6366
 Red. masses --      5.8911                 4.4593                 4.2046
 Frc consts  --      0.0120                 0.0218                 0.0314
 IR Inten    --      7.0039                 2.5349                 3.9927

                      7                      8                      9
                      A                      A                      A
 Frequencies --    122.5408               151.4308               170.8247
 Red. masses --      3.4978                 1.9978                 2.8181
 Frc consts  --      0.0309                 0.0270                 0.0485
 IR Inten    --     11.4956                 0.2783                 1.3074

                     10                     11                     12
                      A                      A                      A
 Frequencies --    194.5612               227.7298               233.8496
 Red. masses --      2.7968                 3.6849                 3.4799
 Frc consts  --      0.0624                 0.1126                 0.1121
 IR Inten    --      5.3039                 5.8679                11.5620

                     13                     14                     15
                      A                      A                      A
 Frequencies --    244.9472               263.9309               317.2170
 Red. masses --      2.2408                 1.9365                 3.4438
 Frc consts  --      0.0792                 0.0795                 0.2042
 IR Inten    --     16.3495                 0.7230                27.6179

                     16                     17                     18
                      A                      A                      A
 Frequencies --    353.1514               363.6583               389.4040
 Red. masses --      3.1785                 2.7142                 1.6832
 Frc consts  --      0.2336                 0.2115                 0.1504
 IR Inten    --      0.1891                22.7323                73.9913

                     19                     20                     21
                      A                      A                      A
 Frequencies --    431.6477               438.6595               453.1802
 Red. masses --      3.1139                 2.6019                 3.8088
 Frc consts  --      0.3418                 0.2950                 0.4609
 IR Inten    --     26.7620                10.6632                 7.1732

                     22                     23                     24
                      A                      A                      A
 Frequencies --    470.7968               477.7619               495.9780
 Red. masses --      6.6281                 3.7478                 4.4228
 Frc consts  --      0.8656                 0.5040                 0.6410
 IR Inten    --     17.5135                29.6199                 5.7274

                     25                     26                     27
                      A                      A                      A
 Frequencies --    533.4634               566.8746               583.2196
 Red. masses --      2.3282                 2.4788                 4.3733
 Frc consts  --      0.3904                 0.4693                 0.8764
 IR Inten    --     85.6799               197.8404                19.7719

                     28                     29                     30
                      A                      A                      A
 Frequencies --    639.0661               675.7057               703.9389
 Red. masses --      3.9561                 4.9677                 1.5501
 Frc consts  --      0.9519                 1.3364                 0.4526
 IR Inten    --      9.8632                15.7767               149.8203

                     31                     32                     33
                      A                      A                      A
 Frequencies --    716.9686               740.4985               773.3914
 Red. masses --      2.5442                 2.7446                 2.4511
 Frc consts  --      0.7705                 0.8867                 0.8638
 IR Inten    --    100.5504                 1.0031                21.4810

                     34                     35                     36
                      A                      A                      A
 Frequencies --    811.6182               825.7427               834.9987
 Red. masses --      3.0368                 2.8312                 4.2585
 Frc consts  --      1.1786                 1.1374                 1.7494
 IR Inten    --      1.1583                26.0769                84.9944

                     37                     38                     39
                      A                      A                      A
 Frequencies --    877.3085               898.2625               947.4599
 Red. masses --      2.2819                 1.4253                 2.7532
 Frc consts  --      1.0348                 0.6776                 1.4561
 IR Inten    --     26.7487                 0.6837                 1.5965

                     40                     41                     42
                      A                      A                      A
 Frequencies --    992.5050               999.4267              1010.7900
 Red. masses --      1.2814                 2.4875                 5.8810
 Frc consts  --      0.7437                 1.4639                 3.5401
 IR Inten    --      0.0566                 8.2523                12.4776

                     43                     44                     45
                      A                      A                      A
 Frequencies --   1038.7976              1084.6411              1094.0292
 Red. masses --      1.7919                 1.4302                 2.3832
 Frc consts  --      1.1393                 0.9913                 1.6806
 IR Inten    --     11.0261                 2.3040                 4.4875

                     46                     47                     48
                      A                      A                      A
 Frequencies --   1107.7704              1111.1826              1137.7266
 Red. masses --      1.7960                 3.5095                 7.9661
 Frc consts  --      1.2986                 2.5531                 6.0753
 IR Inten    --     18.1986                11.9801               115.4387

                     49                     50                     51
                      A                      A                      A
 Frequencies --   1154.5768              1174.7791              1188.3477
 Red. masses --      1.3305                 1.5854                 1.2640
 Frc consts  --      1.0450                 1.2891                 1.0517
 IR Inten    --     18.0748                14.1463                 8.5890

                     52                     53                     54
                      A                      A                      A
 Frequencies --   1204.4579              1230.7372              1267.0415
 Red. masses --      1.4028                 1.7554                 1.4944
 Frc consts  --      1.1991                 1.5666                 1.4135
 IR Inten    --      4.0184                 7.9912                13.5656

                     55                     56                     57
                      A                      A                      A
 Frequencies --   1293.2590              1314.6665              1344.1955
 Red. masses --      1.8566                 2.5150                 1.3945
 Frc consts  --      1.8295                 2.5610                 1.4845
 IR Inten    --    135.1078                22.5604               117.7824

                     58                     59                     60
                      A                      A                      A
 Frequencies --   1361.1874              1394.5317              1412.4961
 Red. masses --      4.4780                 2.9254                 1.5622
 Frc consts  --      4.8884                 3.3519                 1.8363
 IR Inten    --    178.2575                20.8577                21.5941

                     61                     62                     63
                      A                      A                      A
 Frequencies --   1456.7559              1470.9692              1474.8124
 Red. masses --      2.4053                 1.0961                 1.3814
 Frc consts  --      3.0074                 1.3974                 1.7702
 IR Inten    --      0.8166                 5.2821                43.7046

                     64                     65                     66
                      A                      A                      A
 Frequencies --   1509.9956              1513.7345              1519.4444
 Red. masses --      1.0829                 1.1310                 1.7517
 Frc consts  --      1.4547                 1.5269                 2.3828
 IR Inten    --     20.8335                19.5270                 4.3021

                     67                     68                     69
                      A                      A                      A
 Frequencies --   1539.1467              1563.2372              1587.1753
 Red. masses --      1.3015                 1.6360                 2.2423
 Frc consts  --      1.8166                 2.3555                 3.3281
 IR Inten    --     28.3858               249.1537               389.7023

                     70                     71                     72
                      A                      A                      A
 Frequencies --   1610.8532              1635.0178              1666.7575
 Red. masses --      1.1095                 5.1859                 6.0256
 Frc consts  --      1.6962                 8.1681                 9.8627
 IR Inten    --     46.2307                12.0505               286.8006

                     73                     74                     75
                      A                      A                      A
 Frequencies --   1773.3529              3030.3711              3069.5476
 Red. masses --     10.4050                 1.0509                 1.0659
 Frc consts  --     19.2790                 5.6857                 5.9169
 IR Inten    --    191.4817                57.6286                27.0788

                     76                     77                     78
                      A                      A                      A
 Frequencies --   3084.0466              3119.1384              3135.6038
 Red. masses --      1.0574                 1.0853                 1.0990
 Frc consts  --      5.9258                 6.2214                 6.3664
 IR Inten    --      5.6465                31.7424                 6.2152

                     79                     80                     81
                      A                      A                      A
 Frequencies --   3150.2588              3166.2568              3186.6557
 Red. masses --      1.1091                 1.1039                 1.0875
 Frc consts  --      6.4850                 6.5204                 6.5063
 IR Inten    --      7.9213                 8.3571                10.1080

                     82                     83                     84
                      A                      A                      A
 Frequencies --   3204.2820              3249.8325              3519.3704
 Red. masses --      1.0948                 1.0929                 1.0450
 Frc consts  --      6.6232                 6.8007                 7.6259
 IR Inten    --     24.7787                 0.7668                30.5311

                     85                     86                     87
                      A                      A                      A
 Frequencies --   3554.4606              3629.1644              3642.6490
 Red. masses --      1.0773                 1.0767                 1.1014
 Frc consts  --      8.0194                 8.3551                 8.6104
 IR Inten    --     84.7853                26.2814                30.6720

 - Thermochemistry -
 -------------------
 Temperature   298.150 Kelvin.  Pressure   1.00000 Atm.
 Atom     1 has atomic number 16 and mass  31.97207

 Molecular mass:   258.07866 amu.
 Principal axes and moments of inertia in atomic units:
                           1         2         3
     Eigenvalues --  2642.336847233.849599245.92646
           X            0.99982  -0.01821   0.00545
           Y            0.01824   0.99981  -0.00665
           Z           -0.00532   0.00675   0.99996
 This molecule is an asymmetric top.
 Rotational symmetry number  1.
 Warning -- assumption of classical behavior for rotation
           may cause significant error
 Rotational temperatures (Kelvin)      0.03278     0.01197     0.00937
 Rotational constants (GHZ):           0.68301     0.24949     0.19519
 Zero-point vibrational energy     647584.9 (Joules/Mol)
                                  154.77651 (Kcal/Mol)
 Warning -- explicit consideration of  27 degrees of freedom as
           vibrations may cause significant error
 Vibrational temperatures:     28.31    48.31    60.69    84.59   131.02
          (Kelvin)            162.06   176.31   217.88   245.78   279.93
                              327.65   336.46   352.42   379.74   456.40
                              508.11   523.22   560.27   621.04   631.13
                              652.03   677.37   687.39   713.60   767.53
                              815.61   839.12   919.47   972.19  1012.81
                             1031.56  1065.41  1112.74  1167.74  1188.06
                             1201.38  1262.25  1292.40  1363.18  1427.99
                             1437.95  1454.30  1494.60  1560.56  1574.06
                             1593.83  1598.74  1636.93  1661.18  1690.25
                             1709.77  1732.95  1770.76  1822.99  1860.71
                             1891.51  1934.00  1958.45  2006.42  2032.27
                             2095.95  2116.40  2121.93  2172.55  2177.93
                             2186.14  2214.49  2249.15  2283.59  2317.66
                             2352.43  2398.09  2551.46  4360.03  4416.39
                             4437.26  4487.74  4511.43  4532.52  4555.54
                             4584.89  4610.25  4675.78  5063.59  5114.08
                             5221.56  5240.96

 Zero-point correction=                           0.246652 (Hartree/Particle)
 Thermal correction to Energy=                    0.263893
 Thermal correction to Enthalpy=                  0.264838
 Thermal correction to Gibbs Free Energy=         0.199732
 Sum of electronic and zero-point Energies=          -1194.031963
 Sum of electronic and thermal Energies=             -1194.014722
 Sum of electronic and thermal Enthalpies=           -1194.013778
 Sum of electronic and thermal Free Energies=        -1194.078884

                     E (Thermal)             CV                S
                      KCal/Mol        Cal/Mol-Kelvin    Cal/Mol-Kelvin
 Total                  165.596             63.872            137.027
 Electronic               0.000              0.000              0.000
 Translational            0.889              2.981             42.544
 Rotational               0.889              2.981             33.535
 Vibrational            163.818             57.910             60.947
 Vibration     1          0.593              1.986              6.667
 Vibration     2          0.594              1.983              5.606
 Vibration     3          0.595              1.980              5.154
 Vibration     4          0.596              1.974              4.497
 Vibration     5          0.602              1.956              3.637
 Vibration     6          0.607              1.939              3.223
 Vibration     7          0.610              1.930              3.060
 Vibration     8          0.619              1.901              2.654
 Vibration     9          0.626              1.878              2.426
 Vibration    10          0.635              1.847              2.184
 Vibration    11          0.651              1.799              1.897
 Vibration    12          0.654              1.789              1.849
 Vibration    13          0.660              1.771              1.767
 Vibration    14          0.670              1.739              1.636
 Vibration    15          0.704              1.641              1.324
 Vibration    16          0.729              1.569              1.152
 Vibration    17          0.737              1.547              1.106
 Vibration    18          0.757              1.493              1.002
 Vibration    19          0.793              1.401              0.853
 Vibration    20          0.799              1.386              0.831
 Vibration    21          0.812              1.354              0.786
 Vibration    22          0.828              1.315              0.735
 Vibration    23          0.834              1.299              0.716
 Vibration    24          0.852              1.259              0.668
 Vibration    25          0.888              1.176              0.580
 Vibration    26          0.923              1.103              0.510
 Vibration    27          0.940              1.068              0.479

 Normal termination of Gaussian 16 at Sat Feb 27 20:00:20 2021.

 ----------------------------------------------------------------------
 # B3LYP/6-311++G(d,p) empiricaldispersion=gd3bj scf=xqc pop=npa geom=c
 heck
 ----------------------------------------------------------------------

 --------------------------------------
 CID_62239983_JID_7778_Energie_neutraal
 --------------------------------------
 Structure from the checkpoint file:  "JID_7778.chk"
 Charge =  0 Multiplicity = 1

 SCF Done:  E(RB3LYP) =  -1194.54525847     A.U. after   15 cycles
 Normal termination of Gaussian 16 at Sat Feb 27 20:04:25 2021.

 ----------------------------------------------------------------------
 # B3LYP/6-311++G(d,p) empiricaldispersion=gd3bj scf=xqc pop=npa geom=c
 heck
 ----------------------------------------------------------------------

 ------------------------------------
 CID_62239983_JID_7778_Energie_kation
 ------------------------------------
 Structure from the checkpoint file:  "JID_7778.chk"
 Charge =  1 Multiplicity = 2

 SCF Done:  E(UB3LYP) =  -1194.25880125     A.U. after   28 cycles
 Normal termination of Gaussian 16 at Sat Feb 27 20:14:29 2021.
 Gaussian 16:  ES64L-G16RevA.03 25-Dec-2016

 ----------------------------------------------------------------------
 # B3LYP/6-311++G(d,p) empiricaldispersion=gd3bj scf=xqc pop=npa geom=c
 heck
 ----------------------------------------------------------------------

 -----------------------------------
 CID_62239983_JID_7778_Energie_anion
 -----------------------------------
 Structure from the checkpoint file:  "JID_7778.chk"
 Charge = -1 Multiplicity = 2

                         Standard orientation:
 ---------------------------------------------------------------------
 Center     Atomic      Atomic             Coordinates (Angstroms)
 Number     Number       Type             X           Y           Z
 ---------------------------------------------------------------------
      1         16           0        3.044267    0.484359    0.089448
      2          8           0        3.921698    0.507187   -1.079857
      3          8           0        1.821058    1.290462    0.156854
      4          8           0       -0.772871   -3.067953   -0.005986
      5          7           0        0.331581   -1.157895   -0.629779
      6          7           0        3.980069    0.964292    1.395819
      7          7           0       -1.796050    0.332189   -0.168228
      8          7           0       -2.599075    2.499328   -0.069180
      9          6           0        2.584847   -1.249672    0.386265
     10          6           0        1.637561   -1.760978   -0.709119
     11          6           0       -0.760088   -1.855752   -0.212043
     12          6           0       -1.978307   -0.989882   -0.015477
     13          6           0       -3.192555   -1.571518    0.319450
     14          6           0       -2.834572    1.151140    0.030875
     15          6           0       -4.284673   -0.712333    0.504540
     16          6           0       -4.118767    0.653898    0.366061
     17          6           0       -1.345150    3.010518   -0.601264
     18          1           0        3.521899   -1.814759    0.395156
     19          1           0        2.105803   -1.303805    1.367823
     20          1           0        2.092408   -1.585783   -1.690887
     21          1           0        1.499228   -2.837410   -0.579713
     22          1           0        0.234726   -0.147051   -0.658239
     23          1           0        4.875838    0.488674    1.451251
     24          1           0        3.471491    0.986152    2.274893
     25          1           0       -3.262858   -2.646676    0.425057
     26          1           0       -5.260952   -1.114505    0.760817
     27          1           0       -4.947554    1.339894    0.517328
     28          1           0       -3.415195    3.082424   -0.182153
     29          1           0       -0.503926    2.599008   -0.040132
     30          1           0       -1.345376    4.098437   -0.497474
     31          1           0       -1.198331    2.750155   -1.659135
 ---------------------------------------------------------------------

 SCF Done:  E(UB3LYP) =  -1194.55140638     A.U. after   31 cycles

 The electronic state is 2-A.
 Alpha  occ. eigenvalues --  -88.96610 -19.01997 -19.01910 -18.95877 -14.24303
 Alpha  occ. eigenvalues --  -14.22613 -14.20826 -14.17862 -10.13694 -10.13152
 Alpha  occ. eigenvalues --  -10.11290 -10.11243 -10.09570 -10.07887 -10.06948
 Alpha  occ. eigenvalues --  -10.05697 -10.05062  -8.02795  -5.99091  -5.99040
 Alpha  occ. eigenvalues --   -5.98859  -1.02325  -0.91432  -0.91119  -0.86049
 Alpha  occ. eigenvalues --   -0.81338  -0.81082  -0.79166  -0.69328  -0.68299
 Alpha  occ. eigenvalues --   -0.64810  -0.59448  -0.57887  -0.53411  -0.51208
 Alpha  occ. eigenvalues --   -0.49866  -0.47238  -0.44684  -0.43916  -0.43066
 Alpha  occ. eigenvalues --   -0.39744  -0.38925  -0.38627  -0.37737  -0.36743
 Alpha  occ. eigenvalues --   -0.35138  -0.34676  -0.33623  -0.32316  -0.31937
 Alpha  occ. eigenvalues --   -0.30699  -0.29917  -0.29118  -0.28731  -0.27900
 Alpha  occ. eigenvalues --   -0.26412  -0.25896  -0.24940  -0.22822  -0.21330
 Alpha  occ. eigenvalues --   -0.21241  -0.20361  -0.19603  -0.17360  -0.16208
 Alpha  occ. eigenvalues --   -0.14107  -0.13089  -0.10546   0.03402
 Alpha virt. eigenvalues --    0.05132   0.06470   0.08114   0.08457   0.09190
 Alpha virt. eigenvalues --    0.09670   0.10316   0.10633   0.11146   0.11461
 Alpha virt. eigenvalues --    0.12667   0.13062   0.13360   0.14237   0.14333

  Beta  occ. eigenvalues --  -88.96606 -19.01983 -19.01896 -18.95731 -14.24210
  Beta  occ. eigenvalues --  -14.22621 -14.20809 -14.17696 -10.13593 -10.13193
  Beta  occ. eigenvalues --  -10.11256 -10.11234 -10.09568 -10.07697 -10.06873
  Beta  occ. eigenvalues --  -10.05518 -10.05074  -8.02790  -5.99086  -5.99038
  Beta  occ. eigenvalues --   -5.98854  -1.02286  -0.91387  -0.90872  -0.85933
  Beta  occ. eigenvalues --   -0.81182  -0.80971  -0.78998  -0.69209  -0.68047
  Beta  occ. eigenvalues --   -0.64605  -0.59327  -0.57807  -0.53151  -0.51059
  Beta  occ. eigenvalues --   -0.49752  -0.47121  -0.44591  -0.43816  -0.42996
  Beta  occ. eigenvalues --   -0.39673  -0.38868  -0.38584  -0.37631  -0.36606
  Beta  occ. eigenvalues --   -0.35073  -0.34573  -0.33552  -0.32194  -0.31863
  Beta  occ. eigenvalues --   -0.30528  -0.29617  -0.28942  -0.28550  -0.27815
  Beta  occ. eigenvalues --   -0.26018  -0.25655  -0.24882  -0.22795  -0.21276
  Beta  occ. eigenvalues --   -0.21227  -0.20279  -0.19311  -0.16287  -0.16022
  Beta  occ. eigenvalues --   -0.13691  -0.12890  -0.09980
  Beta virt. eigenvalues --    0.06337   0.06664   0.07558   0.08046   0.09000
  Beta virt. eigenvalues --    0.09334   0.10258   0.10418   0.10734   0.11134
  Beta virt. eigenvalues --    0.11502   0.12785   0.13035   0.13573   0.14301

 Mulliken charges and spin densities:
               1          2
     1  S    1.642693  -1.540747
     2  O   -0.169782   0.009418
     3  O   -0.258218   0.028721
     4  O   -0.432691   0.057544
     5  N    0.013750  -0.008415
     6  N   -0.485079   0.070289
     7  N   -0.088778   0.075383
     8  N   -0.129745   0.001232
     9  C   -0.616704   0.245159
    10  C   -0.450440   0.046152
    11  C   -0.406696  -0.105561
    12  C    0.320686   0.155255
    13  C   -0.298112   0.059787
    14  C   -0.013613  -0.041801
    15  C   -0.339373   0.056438
    16  C   -0.152029   0.126396
    17  C   -0.427143  -0.004790
    18  H   -0.307056   0.541464
    19  H    0.052991   0.200571
    20  H    0.136187   0.044396
    21  H    0.209785  -0.011076
    22  H    0.475246  -0.046100
    23  H   -0.298536   0.601149
    24  H   -0.115956   0.404189
    25  H    0.191367   0.001203
    26  H    0.138267  -0.002063
    27  H    0.096296  -0.009378
    28  H    0.240093   0.011217
    29  H    0.230035   0.023326
    30  H    0.090145   0.011147
    31  H    0.152410  -0.000504
 Sum of Mulliken charges =  -1.00000   1.00000

 Dipole moment (field-independent basis, Debye):
    X=             -5.5089    Y=              2.9257    Z=             -1.7973  Tot=              6.4913
 Quadrupole moment (field-independent basis, Debye-Ang):
   XX=           -175.5843   YY=           -136.6077   ZZ=           -130.2332
   XY=            -14.9278   XZ=             -6.6072   YZ=             -0.4675

 Summary of Natural Population Analysis:

                                       Natural Population
                Natural  -----------------------------------------------
    Atom  No    Charge         Core      Valence    Rydberg      Total
 -----------------------------------------------------------------------
      S    1    1.09099      4.99933     1.80776    0.10192     6.90901
      O    2   -0.46546      0.99990     3.45953    0.00603     4.46546
      O    3   -0.46750      0.99990     3.46090    0.00670     4.46750
      O    4   -0.32416      0.99988     3.31938    0.00490     4.32416
      N    5   -0.32787      0.99966     2.81842    0.00979     3.82787
      N    6   -0.51793      0.99977     3.00760    0.01056     4.01793
      N    7   -0.24983      0.99964     2.74144    0.00875     3.74983
      N    8   -0.31270      0.99967     2.80383    0.00921     3.81270
      C    9   -0.29088      0.99958     2.27934    0.01196     3.29088
      C   10   -0.10433      0.99962     2.09121    0.01350     3.10433
      C   11    0.33980      0.99963     1.63811    0.02246     2.66020
      C   12    0.09934      0.99949     1.88811    0.01305     2.90066
      C   13   -0.13029      0.99953     2.12202    0.00874     3.13029
      C   14    0.19645      0.99956     1.78978    0.01421     2.80355
      C   15   -0.07202      0.99958     2.06351    0.00893     3.07202
      C   16   -0.11224      0.99953     2.10470    0.00801     3.11224
      C   17   -0.18092      0.99966     2.17414    0.00712     3.18092
      H   18    0.11526      0.00000     0.38319    0.00154     0.38474
      H   19    0.11562      0.00000     0.38297    0.00141     0.38438
      H   20    0.09862      0.00000     0.40022    0.00116     0.40138
      H   21    0.11795      0.00000     0.38061    0.00144     0.38205
      H   22    0.21776      0.00000     0.28008    0.00216     0.28224
      H   23    0.20093      0.00000     0.29030    0.00877     0.29907
      H   24    0.19911      0.00000     0.29685    0.00404     0.30089
      H   25    0.11101      0.00000     0.38799    0.00101     0.38899
      H   26    0.09243      0.00000     0.40662    0.00095     0.40757
      H   27    0.09155      0.00000     0.40739    0.00106     0.40845
      H   28    0.18148      0.00000     0.31674    0.00178     0.31852
      H   29    0.11387      0.00000     0.38431    0.00182     0.38613
      H   30    0.08751      0.00000     0.41177    0.00072     0.41249
      H   31    0.08646      0.00000     0.41229    0.00125     0.41354
 =======================================================================
   * Total *    0.00000     20.99395    46.71110    0.29495    68.00000

 Normal termination of Gaussian 16 at Sat Feb 27 20:25:37 2021.
