 Gaussian 16, Revision A.03,

 -----------------------------------------------------------
 # opt freq B3LYP/6-31G(d) empiricaldispersion=gd3bj scf=xqc
 -----------------------------------------------------------

 ------------------------------
 CID_53400503_JID_2955_neutraal
 ------------------------------
 Symbolic Z-matrix:
 Charge =  0 Multiplicity = 1

 SCF Done:  E(RB3LYP) =  -497.794795166     A.U. after   14 cycles
 SCF Done:  E(RB3LYP) =  -497.802764598     A.U. after   13 cycles
 SCF Done:  E(RB3LYP) =  -497.804521931     A.U. after   13 cycles
 SCF Done:  E(RB3LYP) =  -497.805027092     A.U. after   13 cycles
 SCF Done:  E(RB3LYP) =  -497.805119405     A.U. after   12 cycles
 SCF Done:  E(RB3LYP) =  -497.805158268     A.U. after   11 cycles
 SCF Done:  E(RB3LYP) =  -497.805179734     A.U. after   10 cycles
 SCF Done:  E(RB3LYP) =  -497.805184970     A.U. after    9 cycles
 SCF Done:  E(RB3LYP) =  -497.805189445     A.U. after    9 cycles
 SCF Done:  E(RB3LYP) =  -497.805191353     A.U. after    8 cycles
 SCF Done:  E(RB3LYP) =  -497.805191720     A.U. after    8 cycles
 Optimization completed.
    -- Stationary point found.
 Normal termination of Gaussian 16 at Wed Dec  9 18:17:44 2020.

 --------------------------------------------------------------------
 #N Geom=AllCheck Guess=TCheck SCRF=Check GenChk RB3LYP/6-31G(d) Freq
 --------------------------------------------------------------------

 Structure from the checkpoint file:  "JID_2955.chk"
 ------------------------------
 CID_53400503_JID_2955_neutraal
 ------------------------------
 Charge =  0 Multiplicity = 1

 SCF Done:  E(RB3LYP) =  -497.805191720     A.U. after    1 cycles

  Exact polarizability: 173.329  -1.757 109.486   0.709  -2.394  65.388
 Approx polarizability: 251.208  -7.154 188.764   2.846  -8.648 103.483

                      1                      2                      3
                      A                      A                      A
 Frequencies --     85.8487               100.0900               146.2175
 Red. masses --      3.2371                 3.0310                 1.0795
 Frc consts  --      0.0141                 0.0179                 0.0136
 IR Inten    --      1.3542                 0.1088                 0.3970

                      4                      5                      6
                      A                      A                      A
 Frequencies --    170.9684               207.8881               235.2794
 Red. masses --      1.1038                 1.9990                 1.8179
 Frc consts  --      0.0190                 0.0509                 0.0593
 IR Inten    --      0.0159                 1.1874                 2.3566

                      7                      8                      9
                      A                      A                      A
 Frequencies --    254.8828               282.1551               322.6987
 Red. masses --      1.9864                 3.6816                 2.5377
 Frc consts  --      0.0760                 0.1727                 0.1557
 IR Inten    --      2.0947                 0.5781                 0.5636

                     10                     11                     12
                      A                      A                      A
 Frequencies --    344.9716               374.9165               419.0167
 Red. masses --      3.1526                 3.0416                 4.4775
 Frc consts  --      0.2210                 0.2519                 0.4632
 IR Inten    --      7.7558                 5.3114                 0.0664

                     13                     14                     15
                      A                      A                      A
 Frequencies --    433.9205               494.1177               552.4149
 Red. masses --      3.4338                 4.0788                 3.1846
 Frc consts  --      0.3809                 0.5867                 0.5726
 IR Inten    --      3.6335                 1.5176                 3.9994

                     16                     17                     18
                      A                      A                      A
 Frequencies --    635.7216               655.2852               677.3274
 Red. masses --      3.4839                 3.7249                 5.1384
 Frc consts  --      0.8296                 0.9424                 1.3889
 IR Inten    --      1.0650                 6.4175                 6.6044

                     19                     20                     21
                      A                      A                      A
 Frequencies --    717.6284               755.0487               785.1930
 Red. masses --      4.5600                 2.6925                 3.9892
 Frc consts  --      1.3836                 0.9044                 1.4491
 IR Inten    --      3.6667                 9.1337                 2.8780

                     22                     23                     24
                      A                      A                      A
 Frequencies --    841.5057               845.3286               891.7964
 Red. masses --      2.6170                 1.4310                 2.0875
 Frc consts  --      1.0919                 0.6025                 0.9782
 IR Inten    --      1.4440                21.1033                 0.8329

                     25                     26                     27
                      A                      A                      A
 Frequencies --    945.9691              1019.3289              1036.2962
 Red. masses --      4.0961                 2.0909                 1.4593
 Frc consts  --      2.1596                 1.2800                 0.9233
 IR Inten    --     17.0654                31.7908                 6.5134

                     28                     29                     30
                      A                      A                      A
 Frequencies --   1045.4746              1064.7508              1070.3891
 Red. masses --      1.5784                 2.3538                 1.4789
 Frc consts  --      1.0165                 1.5722                 0.9984
 IR Inten    --      1.3739                 2.2734                 5.7188

                     31                     32                     33
                      A                      A                      A
 Frequencies --   1078.1877              1085.5195              1103.4540
 Red. masses --      1.6340                 1.5885                 1.5843
 Frc consts  --      1.1192                 1.1029                 1.1365
 IR Inten    --      3.4041                 0.3406                 8.8818

                     34                     35                     36
                      A                      A                      A
 Frequencies --   1176.5768              1182.5871              1217.7644
 Red. masses --      2.9548                 1.2464                 3.3762
 Frc consts  --      2.4100                 1.0270                 2.9499
 IR Inten    --      0.3895                 3.7617                 1.3853

                     37                     38                     39
                      A                      A                      A
 Frequencies --   1253.5769              1275.9798              1319.0022
 Red. masses --      2.4616                 2.3121                 2.4685
 Frc consts  --      2.2792                 2.2180                 2.5303
 IR Inten    --     50.1883               122.6992                 9.7118

                     40                     41                     42
                      A                      A                      A
 Frequencies --   1386.0798              1409.5649              1433.8166
 Red. masses --      3.0555                 3.2831                 1.3732
 Frc consts  --      3.4586                 3.8434                 1.6633
 IR Inten    --      7.6099                 2.5788                21.1523

                     43                     44                     45
                      A                      A                      A
 Frequencies --   1440.4753              1452.2044              1502.4730
 Red. masses --      1.2893                 1.2585                 1.0855
 Frc consts  --      1.5763                 1.5637                 1.4438
 IR Inten    --      4.8873                 0.2936                19.7491

                     46                     47                     48
                      A                      A                      A
 Frequencies --   1502.6509              1504.2019              1507.9955
 Red. masses --      1.0477                 1.0498                 1.0924
 Frc consts  --      1.3938                 1.3995                 1.4636
 IR Inten    --      0.5882                 8.1810                16.7793

                     49                     50                     51
                      A                      A                      A
 Frequencies --   1521.9834              1526.8103              1593.7014
 Red. masses --      1.0463                 1.1209                 7.5199
 Frc consts  --      1.4281                 1.5396                11.2532
 IR Inten    --     16.5910                 2.4328                13.7850

                     52                     53                     54
                      A                      A                      A
 Frequencies --   1600.2995              1654.3673              1708.7737
 Red. masses --      5.1816                 7.9435                 7.0712
 Frc consts  --      7.8183                12.8093                12.1651
 IR Inten    --     11.3350               151.5035                48.4137

                     55                     56                     57
                      A                      A                      A
 Frequencies --   2914.2609              3041.4857              3047.1630
 Red. masses --      1.0772                 1.0391                 1.0381
 Frc consts  --      5.3902                 5.6633                 5.6793
 IR Inten    --      1.1131                 2.9047                49.8155

                     58                     59                     60
                      A                      A                      A
 Frequencies --   3059.5797              3090.2066              3096.6262
 Red. masses --      1.0378                 1.0999                 1.0997
 Frc consts  --      5.7240                 6.1886                 6.2130
 IR Inten    --     11.8328                 0.6926                33.4098

                     61                     62                     63
                      A                      A                      A
 Frequencies --   3114.0718              3134.7346              3140.9355
 Red. masses --      1.0999                 1.1000                 1.1003
 Frc consts  --      6.2841                 6.3685                 6.3955
 IR Inten    --     11.2495                21.5900                12.0273

                     64                     65                     66
                      A                      A                      A
 Frequencies --   3166.7463              3198.9218              3204.1549
 Red. masses --      1.1018                 1.0911                 1.0911
 Frc consts  --      6.5103                 6.5782                 6.6001
 IR Inten    --     10.0837                12.3599                 7.2989

 - Thermochemistry -
 -------------------
 Temperature   298.150 Kelvin.  Pressure   1.00000 Atm.
 Atom     1 has atomic number  6 and mass  12.00000

 Molecular mass:   160.10005 amu.
 Principal axes and moments of inertia in atomic units:
                           1         2         3
     Eigenvalues --   772.115893023.090683663.34952
           X            1.00000  -0.00078   0.00015
           Y            0.00077   1.00000   0.00272
           Z           -0.00015  -0.00272   1.00000
 This molecule is an asymmetric top.
 Rotational symmetry number  1.
 Warning -- assumption of classical behavior for rotation
           may cause significant error
 Rotational temperatures (Kelvin)      0.11218     0.02865     0.02364
 Rotational constants (GHZ):           2.33740     0.59699     0.49265
 Zero-point vibrational energy     526712.0 (Joules/Mol)
                                  125.88718 (Kcal/Mol)
 Warning -- explicit consideration of  15 degrees of freedom as
           vibrations may cause significant error
 Vibrational temperatures:    123.52   144.01   210.37   245.99   299.10
          (Kelvin)            338.51   366.72   405.96   464.29   496.34
                              539.42   602.87   624.31   710.93   794.80
                              914.66   942.81   974.52  1032.51  1086.35
                             1129.72  1210.74  1216.24  1283.10  1361.04
                             1466.59  1491.00  1504.20  1531.94  1540.05
                             1551.27  1561.82  1587.62  1692.83  1701.48
                             1752.09  1803.62  1835.85  1897.75  1994.26
                             2028.05  2062.94  2072.52  2089.40  2161.72
                             2161.98  2164.21  2169.67  2189.79  2196.74
                             2292.98  2302.47  2380.27  2458.54  4192.97
                             4376.02  4384.19  4402.05  4446.12  4455.35
                             4480.45  4510.18  4519.11  4556.24  4602.53
                             4610.06

 Zero-point correction=                           0.200614 (Hartree/Particle)
 Thermal correction to Energy=                    0.211563
 Thermal correction to Enthalpy=                  0.212507
 Thermal correction to Gibbs Free Energy=         0.164499
 Sum of electronic and zero-point Energies=           -497.604578
 Sum of electronic and thermal Energies=              -497.593629
 Sum of electronic and thermal Enthalpies=            -497.592684
 Sum of electronic and thermal Free Energies=         -497.640693

                     E (Thermal)             CV                S
                      KCal/Mol        Cal/Mol-Kelvin    Cal/Mol-Kelvin
 Total                  132.758             42.477            101.042
 Electronic               0.000              0.000              0.000
 Translational            0.889              2.981             41.121
 Rotational               0.889              2.981             30.526
 Vibrational            130.980             36.515             29.395
 Vibration     1          0.601              1.959              3.753
 Vibration     2          0.604              1.949              3.453
 Vibration     3          0.617              1.907              2.721
 Vibration     4          0.626              1.878              2.425
 Vibration     5          0.641              1.829              2.062
 Vibration     6          0.655              1.787              1.838
 Vibration     7          0.665              1.755              1.697
 Vibration     8          0.681              1.707              1.521
 Vibration     9          0.708              1.630              1.296
 Vibration    10          0.723              1.585              1.189
 Vibration    11          0.746              1.524              1.060
 Vibration    12          0.782              1.429              0.895
 Vibration    13          0.795              1.396              0.846
 Vibration    14          0.850              1.263              0.673
 Vibration    15          0.908              1.134              0.539

 Optimization completed.
    -- Stationary point found.
 Normal termination of Gaussian 16 at Wed Dec  9 18:23:27 2020.

 ----------------------------------------------------------------------
 # B3LYP/6-311++G(d,p) empiricaldispersion=gd3bj scf=xqc pop=npa geom=c
 heck
 ----------------------------------------------------------------------

 --------------------------------------
 CID_53400503_JID_2955_Energie_neutraal
 --------------------------------------
 Structure from the checkpoint file:  "JID_2955.chk"
 Charge =  0 Multiplicity = 1

 SCF Done:  E(RB3LYP) =  -497.934500610     A.U. after   15 cycles
 Normal termination of Gaussian 16 at Wed Dec  9 18:27:07 2020.

 ----------------------------------------------------------------------
 # B3LYP/6-311++G(d,p) empiricaldispersion=gd3bj scf=xqc pop=npa geom=c
 heck
 ----------------------------------------------------------------------

 ------------------------------------
 CID_53400503_JID_2955_Energie_kation
 ------------------------------------
 Structure from the checkpoint file:  "JID_2955.chk"
 Charge =  1 Multiplicity = 2

 SCF Done:  E(UB3LYP) =  -497.635348063     A.U. after   22 cycles
 Normal termination of Gaussian 16 at Wed Dec  9 18:32:20 2020.
 Gaussian 16:  ES64L-G16RevA.03 25-Dec-2016

 ----------------------------------------------------------------------
 # B3LYP/6-311++G(d,p) empiricaldispersion=gd3bj scf=xqc pop=npa geom=c
 heck
 ----------------------------------------------------------------------

 -----------------------------------
 CID_53400503_JID_2955_Energie_anion
 -----------------------------------
 Structure from the checkpoint file:  "JID_2955.chk"
 Charge = -1 Multiplicity = 2

                         Standard orientation:
 ---------------------------------------------------------------------
 Center     Atomic      Atomic             Coordinates (Angstroms)
 Number     Number       Type             X           Y           Z
 ---------------------------------------------------------------------
      1          6           0       -3.042442    1.472598    0.373781
      2          6           0       -1.759766    0.743766    0.055002
      3          6           0       -0.605983    1.425611   -0.119639
      4          6           0        0.623289    0.701599   -0.556398
      5          6           0        0.612889   -0.758450   -0.213510
      6          7           0        1.809646   -1.165887    0.104028
      7          6           0        2.583878    0.033595    0.085808
      8          7           0        1.974182    1.136923   -0.220002
      9          6           0        4.034910   -0.050846    0.424666
     10          6           0       -0.636919   -1.459335   -0.173045
     11          6           0       -1.786037   -0.734589   -0.042727
     12          6           0       -3.110988   -1.439232    0.072971
     13          1           0       -3.809114    1.302388   -0.392274
     14          1           0       -2.867297    2.549965    0.437651
     15          1           0       -3.469823    1.144552    1.329303
     16          1           0       -0.574240    2.509746   -0.056916
     17          1           0        0.591737    0.748983   -1.666504
     18          1           0        4.164342   -0.517443    1.407703
     19          1           0        4.557168   -0.685200   -0.300941
     20          1           0        4.483717    0.944064    0.426721
     21          1           0       -0.648214   -2.543903   -0.121752
     22          1           0       -3.601582   -1.220687    1.029338
     23          1           0       -3.802938   -1.115817   -0.715063
     24          1           0       -2.987525   -2.522210   -0.006892
 ---------------------------------------------------------------------

 SCF Done:  E(UB3LYP) =  -497.955140451     A.U. after   23 cycles

 The electronic state is 2-A.
 Alpha  occ. eigenvalues --  -14.12541 -14.12065 -10.06595 -10.04141 -10.03697
 Alpha  occ. eigenvalues --  -10.03680 -10.03509 -10.02997 -10.02468 -10.01706
 Alpha  occ. eigenvalues --  -10.00720  -9.99831  -0.81832  -0.69385  -0.68357
 Alpha  occ. eigenvalues --   -0.62510  -0.61609  -0.58319  -0.54400  -0.50786
 Alpha  occ. eigenvalues --   -0.44019  -0.41710  -0.38398  -0.33499  -0.33274
 Alpha  occ. eigenvalues --   -0.31713  -0.30284  -0.29179  -0.28886  -0.27954
 Alpha  occ. eigenvalues --   -0.27335  -0.26509  -0.25712  -0.25505  -0.22201
 Alpha  occ. eigenvalues --   -0.20978  -0.19915  -0.17736  -0.16028  -0.12679
 Alpha  occ. eigenvalues --   -0.10522  -0.09592  -0.06544   0.04066
 Alpha virt. eigenvalues --    0.08434   0.09731   0.09997   0.11303   0.11820
 Alpha virt. eigenvalues --    0.12656   0.12815   0.13254   0.13760   0.14117
 Alpha virt. eigenvalues --    0.14567   0.15312   0.16040   0.16446   0.17216

  Beta  occ. eigenvalues --  -14.12313 -14.11864 -10.06599 -10.04137 -10.03767
  Beta  occ. eigenvalues --  -10.03713 -10.03507 -10.02757 -10.02547 -10.01275
  Beta  occ. eigenvalues --  -10.00327  -9.99766  -0.81482  -0.68895  -0.67886
  Beta  occ. eigenvalues --   -0.62254  -0.61375  -0.58134  -0.54015  -0.50509
  Beta  occ. eigenvalues --   -0.43381  -0.41360  -0.38144  -0.33259  -0.32882
  Beta  occ. eigenvalues --   -0.31286  -0.30030  -0.29061  -0.28615  -0.27792
  Beta  occ. eigenvalues --   -0.27180  -0.26307  -0.25578  -0.25376  -0.21970
  Beta  occ. eigenvalues --   -0.20643  -0.19618  -0.16627  -0.14817  -0.12057
  Beta  occ. eigenvalues --   -0.09884  -0.08915  -0.05022
  Beta virt. eigenvalues --    0.08338   0.09553   0.09903   0.10286   0.11339
  Beta virt. eigenvalues --    0.11867   0.12611   0.12908   0.13294   0.13698
  Beta virt. eigenvalues --    0.14151   0.14714   0.15878   0.16112   0.16412

 Mulliken charges and spin densities:
               1          2
     1  C   -0.627371  -0.051183
     2  C    0.233625  -0.049639
     3  C   -0.002975   0.326403
     4  C   -0.002019  -0.309927
     5  C   -0.690053   0.292803
     6  N   -0.135164   0.095554
     7  C   -0.076246  -0.008222
     8  N   -0.098945   0.127826
     9  C   -0.502970  -0.048975
    10  C   -0.287845   0.120397
    11  C    0.466155   0.258549
    12  C   -0.575603  -0.021871
    13  H    0.120407  -0.003246
    14  H    0.127450   0.004037
    15  H    0.100115   0.014044
    16  H    0.076631   0.007725
    17  H    0.064964   0.184384
    18  H    0.132793   0.001952
    19  H    0.129587   0.007465
    20  H    0.114571   0.004824
    21  H    0.085587  -0.000136
    22  H    0.097761   0.033917
    23  H    0.113030   0.010371
    24  H    0.136514   0.002950
 Sum of Mulliken charges =  -1.00000   1.00000

 Dipole moment (field-independent basis, Debye):
    X=             -2.7678    Y=              0.2255    Z=             -0.0847  Tot=              2.7782
 Quadrupole moment (field-independent basis, Debye-Ang):
   XX=            -98.5902   YY=            -90.8655   ZZ=            -81.1356
   XY=             -1.0435   XZ=              0.5055   YZ=              0.5521

 Summary of Natural Population Analysis:

                                       Natural Population
                Natural  -----------------------------------------------
    Atom  No    Charge         Core      Valence    Rydberg      Total
 -----------------------------------------------------------------------
      C    1   -0.28620      0.99964     2.28215    0.00441     3.28620
      C    2   -0.06230      0.99948     2.05444    0.00839     3.06230
      C    3    0.01218      0.99946     1.97870    0.00966     2.98782
      C    4   -0.07371      0.99951     2.06102    0.01318     3.07371
      C    5    0.17929      0.99955     1.80537    0.01578     2.82071
      N    6   -0.26446      0.99967     2.75245    0.01233     3.76446
      C    7    0.19231      0.99964     1.78920    0.01885     2.80769
      N    8   -0.23844      0.99968     2.72725    0.01151     3.73844
      C    9   -0.30148      0.99962     2.29724    0.00462     3.30148
      C   10   -0.12858      0.99945     2.11910    0.01002     3.12858
      C   11    0.08331      0.99950     1.90872    0.00847     2.91669
      C   12   -0.29606      0.99965     2.29209    0.00432     3.29606
      H   13    0.09157      0.00000     0.40715    0.00128     0.40843
      H   14    0.09627      0.00000     0.40281    0.00092     0.40373
      H   15    0.09247      0.00000     0.40610    0.00143     0.40753
      H   16    0.08411      0.00000     0.41414    0.00174     0.41589
      H   17    0.13788      0.00000     0.36022    0.00190     0.36212
      H   18    0.10071      0.00000     0.39824    0.00105     0.39929
      H   19    0.09932      0.00000     0.39962    0.00105     0.40068
      H   20    0.10064      0.00000     0.39808    0.00128     0.39936
      H   21    0.09034      0.00000     0.40789    0.00177     0.40966
      H   22    0.09755      0.00000     0.40131    0.00114     0.40245
      H   23    0.09714      0.00000     0.40172    0.00114     0.40286
      H   24    0.09614      0.00000     0.40298    0.00088     0.40386
 =======================================================================
   * Total *    0.00000     11.99485    30.86803    0.13712    43.00000

 Normal termination of Gaussian 16 at Wed Dec  9 18:37:37 2020.
