 Gaussian 16, Revision A.03,

 -----------------------------------------------------------
 # opt freq B3LYP/6-31G(d) empiricaldispersion=gd3bj scf=xqc
 -----------------------------------------------------------

 -------------------------------
 CID_54750155_JID_10162_neutraal
 -------------------------------
 Symbolic Z-matrix:
 Charge =  0 Multiplicity = 1

 SCF Done:  E(RB3LYP) =  -992.096164309     A.U. after   16 cycles
 SCF Done:  E(RB3LYP) =  -992.103003805     A.U. after   14 cycles
 SCF Done:  E(RB3LYP) =  -992.100325722     A.U. after   13 cycles
 SCF Done:  E(RB3LYP) =  -992.104609458     A.U. after   14 cycles
 SCF Done:  E(RB3LYP) =  -992.105873839     A.U. after   14 cycles
 SCF Done:  E(RB3LYP) =  -992.110001397     A.U. after   13 cycles
 SCF Done:  E(RB3LYP) =  -992.111783424     A.U. after   13 cycles
 SCF Done:  E(RB3LYP) =  -992.112609493     A.U. after   12 cycles
 SCF Done:  E(RB3LYP) =  -992.112876764     A.U. after   12 cycles
 SCF Done:  E(RB3LYP) =  -992.113167115     A.U. after   12 cycles
 SCF Done:  E(RB3LYP) =  -992.113832947     A.U. after   12 cycles
 SCF Done:  E(RB3LYP) =  -992.113841586     A.U. after   11 cycles
 SCF Done:  E(RB3LYP) =  -992.113844090     A.U. after    9 cycles
 SCF Done:  E(RB3LYP) =  -992.113844509     A.U. after    9 cycles
 SCF Done:  E(RB3LYP) =  -992.113844626     A.U. after    7 cycles
 SCF Done:  E(RB3LYP) =  -992.113844661     A.U. after    7 cycles
 Optimization completed.
    -- Stationary point found.
 Normal termination of Gaussian 16 at Mon Dec 14 13:55:42 2020.

 --------------------------------------------------------------------
 #N Geom=AllCheck Guess=TCheck SCRF=Check GenChk RB3LYP/6-31G(d) Freq
 --------------------------------------------------------------------

 Structure from the checkpoint file:  "JID_10162.chk"
 -------------------------------
 CID_54750155_JID_10162_neutraal
 -------------------------------
 Charge =  0 Multiplicity = 1

 SCF Done:  E(RB3LYP) =  -992.113844661     A.U. after    1 cycles

  Exact polarizability: 227.571  -8.406 173.036 -10.369   2.114 106.066
 Approx polarizability: 315.668 -11.388 328.628 -25.857   7.199 180.139

                      1                      2                      3
                      A                      A                      A
 Frequencies --     15.9956                21.8792                33.8207
 Red. masses --      6.5837                 5.1845                 6.7445
 Frc consts  --      0.0010                 0.0015                 0.0045
 IR Inten    --      0.8168                 1.8123                 3.3173

                      4                      5                      6
                      A                      A                      A
 Frequencies --     80.2951               122.0222               154.5329
 Red. masses --      6.9305                 9.7978                 8.2974
 Frc consts  --      0.0263                 0.0860                 0.1167
 IR Inten    --      1.0054                 2.9235                 0.0678

                      7                      8                      9
                      A                      A                      A
 Frequencies --    163.0275               184.7841               204.4705
 Red. masses --      4.6416                 3.5639                 6.8554
 Frc consts  --      0.0727                 0.0717                 0.1689
 IR Inten    --      0.6778                 2.9724                 0.5672

                     10                     11                     12
                      A                      A                      A
 Frequencies --    208.5296               224.5168               244.1484
 Red. masses --      7.4799                 5.2790                 1.4228
 Frc consts  --      0.1916                 0.1568                 0.0500
 IR Inten    --      1.4119                 1.5224                 3.6130

                     13                     14                     15
                      A                      A                      A
 Frequencies --    283.2061               306.8294               351.9820
 Red. masses --      5.0383                 2.3698                 3.5186
 Frc consts  --      0.2381                 0.1314                 0.2568
 IR Inten    --      1.7245                17.0004                 0.1435

                     16                     17                     18
                      A                      A                      A
 Frequencies --    365.1145               374.7133               394.4838
 Red. masses --      6.4094                 3.9391                 1.1121
 Frc consts  --      0.5034                 0.3259                 0.1020
 IR Inten    --      1.7336                 1.0984               106.8009

                     19                     20                     21
                      A                      A                      A
 Frequencies --    396.8741               437.3254               441.5050
 Red. masses --      6.1790                 1.2636                 3.6606
 Frc consts  --      0.5734                 0.1424                 0.4204
 IR Inten    --      6.2855                91.6812                24.2845

                     22                     23                     24
                      A                      A                      A
 Frequencies --    472.3747               517.4242               533.6044
 Red. masses --      8.7936                 4.8149                 5.7688
 Frc consts  --      1.1561                 0.7595                 0.9678
 IR Inten    --      0.7085                 8.5331                 9.0429

                     25                     26                     27
                      A                      A                      A
 Frequencies --    552.8580               563.1044               566.0359
 Red. masses --      3.8790                 3.5405                 4.6447
 Frc consts  --      0.6985                 0.6614                 0.8768
 IR Inten    --      5.1005                 9.7087                 1.6865

                     28                     29                     30
                      A                      A                      A
 Frequencies --    577.9051               609.8814               612.1560
 Red. masses --      5.7958                 5.3970                 7.4390
 Frc consts  --      1.1405                 1.1828                 1.6424
 IR Inten    --      2.7710                 5.1506                 6.9915

                     31                     32                     33
                      A                      A                      A
 Frequencies --    636.1437               659.0575               680.1599
 Red. masses --      4.4895                 4.3356                 4.5557
 Frc consts  --      1.0704                 1.1096                 1.2417
 IR Inten    --     21.5713                 4.6428                 1.6277

                     34                     35                     36
                      A                      A                      A
 Frequencies --    692.6092               716.3436               724.2566
 Red. masses --      4.0817                 4.4585                 3.7837
 Frc consts  --      1.1536                 1.3480                 1.1694
 IR Inten    --      5.4637                14.7481                 0.8856

                     37                     38                     39
                      A                      A                      A
 Frequencies --    799.8702               807.8909               822.0234
 Red. masses --      1.4291                 4.9943                 1.7195
 Frc consts  --      0.5387                 1.9206                 0.6846
 IR Inten    --     29.8204               106.6141                48.6986

                     40                     41                     42
                      A                      A                      A
 Frequencies --    828.5029               833.2933               851.2169
 Red. masses --      1.5540                 2.9619                 1.4287
 Frc consts  --      0.6285                 1.2118                 0.6099
 IR Inten    --     46.2444                44.2626                15.4675

                     43                     44                     45
                      A                      A                      A
 Frequencies --    859.7713               965.5678              1007.1758
 Red. masses --      1.1336                 2.4906                 6.1067
 Frc consts  --      0.4937                 1.3681                 3.6498
 IR Inten    --     67.9517                 9.7670                 6.8324

                     46                     47                     48
                      A                      A                      A
 Frequencies --   1007.9912              1017.8156              1022.4031
 Red. masses --      3.0903                 2.5608                 3.5746
 Frc consts  --      1.8500                 1.5630                 2.2015
 IR Inten    --     20.6114                10.4517                 9.8256

                     49                     50                     51
                      A                      A                      A
 Frequencies --   1052.9337              1062.9839              1093.9576
 Red. masses --      3.0492                 1.6616                 2.0716
 Frc consts  --      1.9918                 1.1062                 1.4607
 IR Inten    --      6.1416                 2.9199                 5.0737

                     52                     53                     54
                      A                      A                      A
 Frequencies --   1134.7664              1190.2777              1210.8349
 Red. masses --      2.3788                 1.3479                 1.4889
 Frc consts  --      1.8048                 1.1252                 1.2861
 IR Inten    --     76.5711               114.8993                18.7969

                     55                     56                     57
                      A                      A                      A
 Frequencies --   1219.7977              1222.5961              1226.1132
 Red. masses --      1.2770                 1.7140                 2.0245
 Frc consts  --      1.1195                 1.5095                 1.7932
 IR Inten    --    107.4265               150.7896               145.9288

                     58                     59                     60
                      A                      A                      A
 Frequencies --   1269.7233              1291.7552              1314.4846
 Red. masses --      1.7326                 1.9153                 2.4941
 Frc consts  --      1.6457                 1.8830                 2.5391
 IR Inten    --    191.2120                23.7452                61.0441

                     61                     62                     63
                      A                      A                      A
 Frequencies --   1330.4267              1370.6709              1378.2339
 Red. masses --      2.1593                 4.2686                 3.8228
 Frc consts  --      2.2519                 4.7250                 4.2784
 IR Inten    --     12.9891               292.4686                28.4008

                     64                     65                     66
                      A                      A                      A
 Frequencies --   1413.6318              1441.5164              1463.1686
 Red. masses --      2.3688                 1.2478                 3.5171
 Frc consts  --      2.7890                 1.5277                 4.4363
 IR Inten    --    149.4701                 7.3245                58.6449

                     67                     68                     69
                      A                      A                      A
 Frequencies --   1482.4965              1495.3109              1503.9436
 Red. masses --      2.7490                 1.3294                 2.7202
 Frc consts  --      3.5597                 1.7513                 3.6250
 IR Inten    --    154.6593                60.1601                93.4658

                     70                     71                     72
                      A                      A                      A
 Frequencies --   1529.9037              1531.7259              1553.9075
 Red. masses --      1.2946                 1.1158                 1.8403
 Frc consts  --      1.7854                 1.5424                 2.6181
 IR Inten    --     31.8109                16.8202               102.9270

                     73                     74                     75
                      A                      A                      A
 Frequencies --   1625.6449              1643.1606              1663.7839
 Red. masses --      6.6334                 3.9478                 7.9225
 Frc consts  --     10.3286                 6.2801                12.9213
 IR Inten    --    315.1708               175.8832               109.3126

                     76                     77                     78
                      A                      A                      A
 Frequencies --   1689.4577              1718.3064              1865.4602
 Red. masses --      4.0846                 6.1145                12.2139
 Frc consts  --      6.8690                10.6369                25.0425
 IR Inten    --    500.8157               124.1395               641.6416

                     79                     80                     81
                      A                      A                      A
 Frequencies --   3068.9968              3076.5182              3130.6979
 Red. masses --      1.0416                 1.0711                 1.0959
 Frc consts  --      5.7804                 5.9729                 6.3283
 IR Inten    --     11.3868                 1.7761                12.2498

                     82                     83                     84
                      A                      A                      A
 Frequencies --   3156.7908              3182.8461              3187.1344
 Red. masses --      1.1012                 1.0861                 1.0731
 Frc consts  --      6.4657                 6.4827                 6.4225
 IR Inten    --      8.4774                76.0532               260.2698

                     85                     86                     87
                      A                      A                      A
 Frequencies --   3204.0709              3220.6517              3231.3359
 Red. masses --      1.0914                 1.0910                 1.0923
 Frc consts  --      6.6014                 6.6676                 6.7195
 IR Inten    --     13.9690                 4.1220                 0.5786

                     88                     89                     90
                      A                      A                      A
 Frequencies --   3256.2131              3741.8379              3748.7084
 Red. masses --      1.0921                 1.0659                 1.0662
 Frc consts  --      6.8221                 8.7926                 8.8281
 IR Inten    --      0.3314                74.8219                59.5240

 - Thermochemistry -
 -------------------
 Temperature   298.150 Kelvin.  Pressure   1.00000 Atm.
 Atom     1 has atomic number  6 and mass  12.00000

 Molecular mass:   276.06339 amu.
 Principal axes and moments of inertia in atomic units:
                           1         2         3
     Eigenvalues --  2827.017859994.18159**********
           X            0.99998   0.00650   0.00072
           Y           -0.00650   0.99997   0.00307
           Z           -0.00070  -0.00308   1.00000
 This molecule is an asymmetric top.
 Rotational symmetry number  1.
 Warning -- assumption of classical behavior for rotation
           may cause significant error
 Rotational temperatures (Kelvin)      0.03064     0.00867     0.00773
 Rotational constants (GHZ):           0.63839     0.18058     0.16104
 Zero-point vibrational energy     634883.7 (Joules/Mol)
                                  151.74085 (Kcal/Mol)
 Warning -- explicit consideration of  30 degrees of freedom as
           vibrations may cause significant error
 Vibrational temperatures:     23.01    31.48    48.66   115.53   175.56
          (Kelvin)            222.34   234.56   265.86   294.19   300.03
                              323.03   351.28   407.47   441.46   506.42
                              525.32   539.13   567.57   571.01   629.21
                              635.23   679.64   744.46   767.74   795.44
                              810.18   814.40   831.48   877.48   880.76
                              915.27   948.24   978.60   996.51  1030.66
                             1042.04  1150.83  1162.37  1182.71  1192.03
                             1198.92  1224.71  1237.02  1389.24  1449.10
                             1450.27  1464.41  1471.01  1514.94  1529.40
                             1573.96  1632.68  1712.54  1742.12  1755.02
                             1759.04  1764.10  1826.85  1858.55  1891.25
                             1914.19  1972.09  1982.97  2033.90  2074.02
                             2105.17  2132.98  2151.42  2163.84  2201.19
                             2203.81  2235.73  2338.94  2364.14  2393.81
                             2430.75  2472.26  2683.98  4415.60  4426.42
                             4504.38  4541.92  4579.41  4585.58  4609.94
                             4633.80  4649.17  4684.96  5383.67  5393.56

 Zero-point correction=                           0.241814 (Hartree/Particle)
 Thermal correction to Energy=                    0.259199
 Thermal correction to Enthalpy=                  0.260143
 Thermal correction to Gibbs Free Energy=         0.194890
 Sum of electronic and zero-point Energies=           -991.872030
 Sum of electronic and thermal Energies=              -991.854646
 Sum of electronic and thermal Enthalpies=            -991.853702
 Sum of electronic and thermal Free Energies=         -991.918955

                     E (Thermal)             CV                S
                      KCal/Mol        Cal/Mol-Kelvin    Cal/Mol-Kelvin
 Total                  162.650             67.733            137.337
 Electronic               0.000              0.000              0.000
 Translational            0.889              2.981             42.745
 Rotational               0.889              2.981             34.114
 Vibrational            160.872             61.771             60.478
 Vibration     1          0.593              1.986              7.078
 Vibration     2          0.593              1.985              6.456
 Vibration     3          0.594              1.983              5.592
 Vibration     4          0.600              1.963              3.884
 Vibration     5          0.610              1.931              3.068
 Vibration     6          0.620              1.898              2.616
 Vibration     7          0.623              1.888              2.514
 Vibration     8          0.631              1.861              2.280
 Vibration     9          0.640              1.834              2.092
 Vibration    10          0.642              1.828              2.057
 Vibration    11          0.649              1.804              1.922
 Vibration    12          0.659              1.772              1.772
 Vibration    13          0.682              1.705              1.514
 Vibration    14          0.697              1.661              1.379
 Vibration    15          0.729              1.571              1.157
 Vibration    16          0.738              1.544              1.100
 Vibration    17          0.746              1.524              1.060
 Vibration    18          0.761              1.482              0.983
 Vibration    19          0.763              1.477              0.974
 Vibration    20          0.798              1.389              0.835
 Vibration    21          0.801              1.380              0.822
 Vibration    22          0.829              1.311              0.731
 Vibration    23          0.872              1.211              0.616
 Vibration    24          0.889              1.176              0.579
 Vibration    25          0.908              1.133              0.538
 Vibration    26          0.919              1.111              0.518
 Vibration    27          0.922              1.105              0.512
 Vibration    28          0.934              1.079              0.489
 Vibration    29          0.969              1.011              0.433
 Vibration    30          0.971              1.006              0.429

 Optimization completed.
    -- Stationary point found.
 Normal termination of Gaussian 16 at Mon Dec 14 14:10:11 2020.

 ----------------------------------------------------------------------
 # B3LYP/6-311++G(d,p) empiricaldispersion=gd3bj scf=xqc pop=npa geom=c
 heck
 ----------------------------------------------------------------------

 ---------------------------------------
 CID_54750155_JID_10162_Energie_neutraal
 ---------------------------------------
 Structure from the checkpoint file:  "JID_10162.chk"
 Charge =  0 Multiplicity = 1

 SCF Done:  E(RB3LYP) =  -992.413937058     A.U. after   16 cycles
 Normal termination of Gaussian 16 at Mon Dec 14 14:15:35 2020.

 ----------------------------------------------------------------------
 # B3LYP/6-311++G(d,p) empiricaldispersion=gd3bj scf=xqc pop=npa geom=c
 heck
 ----------------------------------------------------------------------

 -------------------------------------
 CID_54750155_JID_10162_Energie_kation
 -------------------------------------
 Structure from the checkpoint file:  "JID_10162.chk"
 Charge =  1 Multiplicity = 2

 SCF Done:  E(UB3LYP) =  -992.114687865     A.U. after   27 cycles
 Normal termination of Gaussian 16 at Mon Dec 14 14:28:01 2020.
 Gaussian 16:  ES64L-G16RevA.03 25-Dec-2016

 ----------------------------------------------------------------------
 # B3LYP/6-311++G(d,p) empiricaldispersion=gd3bj scf=xqc pop=npa geom=c
 heck
 ----------------------------------------------------------------------

 ------------------------------------
 CID_54750155_JID_10162_Energie_anion
 ------------------------------------
 Structure from the checkpoint file:  "JID_10162.chk"
 Charge = -1 Multiplicity = 2

                         Standard orientation:
 ---------------------------------------------------------------------
 Center     Atomic      Atomic             Coordinates (Angstroms)
 Number     Number       Type             X           Y           Z
 ---------------------------------------------------------------------
      1          6           0       -0.470504   -2.010121   -0.089019
      2          6           0       -1.676575   -1.098572   -0.037227
      3          6           0       -2.850527   -1.669174    0.421543
      4          6           0       -4.021494   -0.907305    0.577741
      5          6           0       -4.015007    0.453998    0.321265
      6          6           0       -2.836427    1.066578   -0.114657
      7          6           0       -1.644096    0.299654   -0.360316
      8          6           0       -0.519477    1.016803   -0.951646
      9          8           0       -0.489923    2.265810   -0.996870
     10          6           0        0.673355    0.331433   -1.610890
     11          6           0        1.856997    0.211738   -0.686570
     12          6           0        2.164109    1.076639    0.310984
     13          6           0        3.340936    0.822214    1.087843
     14          6           0        4.127700   -0.265814    0.831051
     15          6           0        3.808818   -1.181559   -0.224555
     16          8           0        4.393684   -2.177088   -0.571939
     17          8           0        2.615164   -0.860523   -0.963572
     18          8           0        3.687140    1.656672    2.093996
     19          8           0       -2.897323    2.387060   -0.305430
     20          8           0       -5.123383   -1.566465    1.013177
     21          1           0        0.413518   -1.552654    0.359885
     22          1           0       -0.682212   -2.927139    0.465930
     23          1           0       -0.205182   -2.310584   -1.108139
     24          1           0       -2.885585   -2.719318    0.688824
     25          1           0       -4.893533    1.075120    0.468119
     26          1           0        0.437614   -0.652455   -2.010617
     27          1           0        0.951615    0.974218   -2.453919
     28          1           0        1.535993    1.941704    0.488203
     29          1           0        5.014760   -0.468626    1.416594
     30          1           0        3.042673    2.379448    2.153113
     31          1           0       -1.979096    2.677230   -0.569117
     32          1           0       -5.860288   -0.939742    1.092940
 ---------------------------------------------------------------------

 SCF Done:  E(UB3LYP) =  -992.448035541     A.U. after   25 cycles

 The electronic state is 2-A.
 Alpha  occ. eigenvalues --  -19.07479 -19.06645 -19.05352 -19.01064 -18.98424
 Alpha  occ. eigenvalues --  -18.95957 -10.18261 -10.14857 -10.14103 -10.11583
 Alpha  occ. eigenvalues --  -10.11397 -10.10165 -10.06593 -10.06494 -10.06314
 Alpha  occ. eigenvalues --  -10.05895 -10.05443 -10.05096 -10.04716 -10.04309
 Alpha  occ. eigenvalues --   -0.99641  -0.98684  -0.96645  -0.94021  -0.91639
 Alpha  occ. eigenvalues --   -0.89104  -0.73315  -0.71330  -0.68449  -0.65646
 Alpha  occ. eigenvalues --   -0.62898  -0.60548  -0.58315  -0.55032  -0.53394
 Alpha  occ. eigenvalues --   -0.51615  -0.49128  -0.45525  -0.44571  -0.43406
 Alpha  occ. eigenvalues --   -0.41434  -0.39610  -0.38907  -0.37663  -0.36452
 Alpha  occ. eigenvalues --   -0.35329  -0.34328  -0.32742  -0.32031  -0.31871
 Alpha  occ. eigenvalues --   -0.31782  -0.31227  -0.30424  -0.30251  -0.29344
 Alpha  occ. eigenvalues --   -0.28960  -0.28787  -0.28376  -0.27460  -0.26056
 Alpha  occ. eigenvalues --   -0.25145  -0.24419  -0.24074  -0.23258  -0.22610
 Alpha  occ. eigenvalues --   -0.19217  -0.18056  -0.16920  -0.12828  -0.12262
 Alpha  occ. eigenvalues --   -0.11731  -0.10400   0.01971
 Alpha virt. eigenvalues --    0.06159   0.06835   0.07128   0.09271   0.09997
 Alpha virt. eigenvalues --    0.10117   0.10682   0.10832   0.11427   0.12192
 Alpha virt. eigenvalues --    0.12498   0.12963   0.13826   0.14091   0.14468

  Beta  occ. eigenvalues --  -19.07438 -19.06560 -19.05276 -19.00990 -18.98392
  Beta  occ. eigenvalues --  -18.95534 -10.18240 -10.14709 -10.13913 -10.11422
  Beta  occ. eigenvalues --  -10.11125 -10.09705 -10.06515 -10.06364 -10.06338
  Beta  occ. eigenvalues --  -10.05854 -10.05459 -10.05197 -10.04786 -10.04408
  Beta  occ. eigenvalues --   -0.99490  -0.98573  -0.96451  -0.93798  -0.91551
  Beta  occ. eigenvalues --   -0.88331  -0.73068  -0.71122  -0.68179  -0.65410
  Beta  occ. eigenvalues --   -0.62607  -0.60404  -0.58256  -0.54900  -0.53065
  Beta  occ. eigenvalues --   -0.51373  -0.48976  -0.45332  -0.44150  -0.43096
  Beta  occ. eigenvalues --   -0.41342  -0.39529  -0.38758  -0.37493  -0.36131
  Beta  occ. eigenvalues --   -0.34999  -0.33957  -0.32575  -0.31863  -0.31596
  Beta  occ. eigenvalues --   -0.31337  -0.30977  -0.30206  -0.29908  -0.29146
  Beta  occ. eigenvalues --   -0.28834  -0.28506  -0.27694  -0.27360  -0.25886
  Beta  occ. eigenvalues --   -0.24726  -0.24159  -0.23805  -0.22517  -0.21603
  Beta  occ. eigenvalues --   -0.18613  -0.17562  -0.16838  -0.12443  -0.11596
  Beta  occ. eigenvalues --   -0.11307  -0.09822
  Beta virt. eigenvalues --    0.06827   0.06842   0.07110   0.08902   0.09277
  Beta virt. eigenvalues --    0.09990   0.10176   0.10761   0.11335   0.11822
  Beta virt. eigenvalues --    0.12225   0.12558   0.13097   0.13917   0.14119

 Mulliken charges and spin densities:
               1          2
     1  C   -0.625145  -0.012316
     2  C    0.602887   0.165673
     3  C   -0.719405  -0.095759
     4  C   -0.472273   0.179908
     5  C    0.177155  -0.050456
     6  C   -0.542761   0.100991
     7  C    0.385852  -0.118085
     8  C    0.408925   0.378050
     9  O   -0.408384   0.146930
    10  C   -0.186973  -0.096450
    11  C   -0.333159   0.133499
    12  C    0.378806  -0.051237
    13  C   -0.853479   0.083868
    14  C    0.283671   0.053927
    15  C   -0.165899   0.014394
    16  O   -0.352186   0.010065
    17  O   -0.036692   0.021395
    18  O   -0.231344   0.008695
    19  O   -0.318479   0.020450
    20  O   -0.245933   0.014854
    21  H    0.138221   0.015727
    22  H    0.141474   0.004489
    23  H    0.144684   0.006611
    24  H    0.124162   0.004906
    25  H    0.117801   0.002725
    26  H    0.167391  -0.009852
    27  H    0.167218   0.078147
    28  H    0.200646  -0.004316
    29  H    0.192506  -0.003412
    30  H    0.266498   0.000074
    31  H    0.344256  -0.003110
    32  H    0.249956  -0.000387
 Sum of Mulliken charges =  -1.00000   1.00000

 Dipole moment (field-independent basis, Debye):
    X=             -2.6793    Y=              1.5807    Z=              2.1327  Tot=              3.7717
 Quadrupole moment (field-independent basis, Debye-Ang):
   XX=           -176.4928   YY=           -143.7452   ZZ=           -126.4050
   XY=             16.2004   XZ=              1.9630   YZ=              4.3810

 Summary of Natural Population Analysis:

                                       Natural Population
                Natural  -----------------------------------------------
    Atom  No    Charge         Core      Valence    Rydberg      Total
 -----------------------------------------------------------------------
      C    1   -0.29554      0.99964     2.29053    0.00538     3.29554
      C    2    0.06569      0.99952     1.92760    0.00719     2.93431
      C    3   -0.17696      0.99949     2.16829    0.00919     3.17696
      C    4    0.22036      0.99940     1.76820    0.01203     2.77964
      C    5   -0.20385      0.99949     2.19493    0.00943     3.20385
      C    6    0.23151      0.99944     1.75532    0.01373     2.76849
      C    7   -0.14147      0.99942     2.13432    0.00772     3.14147
      C    8    0.33949      0.99961     1.64227    0.01863     2.66051
      O    9   -0.30207      0.99987     3.29517    0.00703     4.30207
      C   10   -0.25039      0.99956     2.24205    0.00878     3.25039
      C   11    0.25050      0.99945     1.73714    0.01291     2.74950
      C   12   -0.20779      0.99944     2.20005    0.00831     3.20779
      C   13    0.21634      0.99941     1.77118    0.01307     2.78366
      C   14   -0.21322      0.99946     2.20488    0.00888     3.21322
      C   15    0.37645      0.99960     1.60102    0.02293     2.62355
      O   16   -0.31059      0.99987     3.30372    0.00700     4.31059
      O   17   -0.26152      0.99983     3.25198    0.00971     4.26152
      O   18   -0.33141      0.99987     3.32496    0.00657     4.33141
      O   19   -0.34749      0.99987     3.34017    0.00745     4.34749
      O   20   -0.33507      0.99987     3.32917    0.00602     4.33507
      H   21    0.10851      0.00000     0.39046    0.00103     0.39149
      H   22    0.09835      0.00000     0.40075    0.00090     0.40165
      H   23    0.10355      0.00000     0.39547    0.00098     0.39645
      H   24    0.09776      0.00000     0.40072    0.00152     0.40224
      H   25    0.09612      0.00000     0.40169    0.00219     0.40388
      H   26    0.11187      0.00000     0.38698    0.00115     0.38813
      H   27    0.12203      0.00000     0.37595    0.00202     0.37797
      H   28    0.11807      0.00000     0.38059    0.00134     0.38193
      H   29    0.10897      0.00000     0.38990    0.00113     0.39103
      H   30    0.23391      0.00000     0.26378    0.00231     0.26609
      H   31    0.25004      0.00000     0.24647    0.00349     0.24996
      H   32    0.22784      0.00000     0.26981    0.00234     0.27216
 =======================================================================
   * Total *   -0.00000     19.99211    51.78553    0.22236    72.00000

 Normal termination of Gaussian 16 at Mon Dec 14 14:39:27 2020.
