 Gaussian 16, Revision A.03,

 -----------------------------------------------------------
 # opt freq B3LYP/6-31G(d) empiricaldispersion=gd3bj scf=xqc
 -----------------------------------------------------------

 ------------------------------
 CID_54014263_JID_4425_neutraal
 ------------------------------
 Symbolic Z-matrix:
 Charge =  0 Multiplicity = 1

 SCF Done:  E(RB3LYP) =  -1545.14049916     A.U. after   23 cycles
 SCF Done:  E(RB3LYP) =  -1545.18724496     A.U. after   15 cycles
 SCF Done:  E(RB3LYP) =  -1545.21108542     A.U. after   16 cycles
 SCF Done:  E(RB3LYP) =  -1545.20860777     A.U. after   15 cycles
 SCF Done:  E(RB3LYP) =  -1545.21541903     A.U. after   14 cycles
 SCF Done:  E(RB3LYP) =  -1545.21757172     A.U. after   14 cycles
 SCF Done:  E(RB3LYP) =  -1545.21918426     A.U. after   13 cycles
 SCF Done:  E(RB3LYP) =  -1545.21741919     A.U. after   15 cycles
 SCF Done:  E(RB3LYP) =  -1545.22014088     A.U. after   13 cycles
 SCF Done:  E(RB3LYP) =  -1545.22049168     A.U. after   13 cycles
 SCF Done:  E(RB3LYP) =  -1545.22199545     A.U. after   11 cycles
 SCF Done:  E(RB3LYP) =  -1545.22200087     A.U. after    9 cycles
 SCF Done:  E(RB3LYP) =  -1545.22200305     A.U. after    9 cycles
 SCF Done:  E(RB3LYP) =  -1545.22200597     A.U. after    9 cycles
 SCF Done:  E(RB3LYP) =  -1545.22200655     A.U. after    9 cycles
 SCF Done:  E(RB3LYP) =  -1545.22200676     A.U. after    8 cycles
 Optimization completed.
    -- Stationary point found.
 Normal termination of Gaussian 16 at Thu Dec 10 09:55:31 2020.

 --------------------------------------------------------------------
 #N Geom=AllCheck Guess=TCheck SCRF=Check GenChk RB3LYP/6-31G(d) Freq
 --------------------------------------------------------------------

 Structure from the checkpoint file:  "JID_4425.chk"
 ------------------------------
 CID_54014263_JID_4425_neutraal
 ------------------------------
 Charge =  0 Multiplicity = 1

 SCF Done:  E(RB3LYP) =  -1545.22200676     A.U. after    1 cycles

  Exact polarizability: 106.088  -2.923 110.882  -7.946  -3.002  70.251
 Approx polarizability: 167.164 -11.597 169.069 -24.951  -5.580 139.566

                      1                      2                      3
                      A                      A                      A
 Frequencies --     42.0249                55.8386                88.6699
 Red. masses --     11.7485                 5.7329                11.3707
 Frc consts  --      0.0122                 0.0105                 0.0527
 IR Inten    --      1.0088                10.3611                 5.6838

                      4                      5                      6
                      A                      A                      A
 Frequencies --     95.9344               129.7328               136.2662
 Red. masses --     11.8563                12.2683                12.4282
 Frc consts  --      0.0643                 0.1217                 0.1360
 IR Inten    --      5.5753                 2.7387                 0.4286

                      7                      8                      9
                      A                      A                      A
 Frequencies --    178.2138               198.5508               211.3149
 Red. masses --      9.2415                10.3498                10.5647
 Frc consts  --      0.1729                 0.2404                 0.2780
 IR Inten    --      5.5490                15.6676                 1.3589

                     10                     11                     12
                      A                      A                      A
 Frequencies --    242.9468               270.1200               356.6294
 Red. masses --      9.0793                 3.4406                 4.4658
 Frc consts  --      0.3157                 0.1479                 0.3346
 IR Inten    --      2.7674                15.3851                60.6140

                     13                     14                     15
                      A                      A                      A
 Frequencies --    370.2704               378.3328               392.0926
 Red. masses --      7.0531                11.0322                 9.9976
 Frc consts  --      0.5697                 0.9304                 0.9056
 IR Inten    --      4.7713                 7.1298                14.3423

                     16                     17                     18
                      A                      A                      A
 Frequencies --    401.6687               436.7508               457.8044
 Red. masses --      1.5018                 1.5433                11.9998
 Frc consts  --      0.1428                 0.1734                 1.4818
 IR Inten    --    100.6488               155.6784                14.6766

                     19                     20                     21
                      A                      A                      A
 Frequencies --    482.7940               528.4186               534.6142
 Red. masses --      9.5754                 5.2924                 1.1473
 Frc consts  --      1.3150                 0.8707                 0.1932
 IR Inten    --     32.5266                85.5975                67.7161

                     22                     23                     24
                      A                      A                      A
 Frequencies --    557.5266               603.6526               647.9705
 Red. masses --      2.6709                 3.3393                 4.3640
 Frc consts  --      0.4892                 0.7169                 1.0796
 IR Inten    --    128.2967               154.5718                17.7853

                     25                     26                     27
                      A                      A                      A
 Frequencies --    674.2151               724.0265               745.3454
 Red. masses --      8.4441                 5.0383                 7.1745
 Frc consts  --      2.2615                 1.5561                 2.3483
 IR Inten    --     19.4325                15.8658                41.9630

                     28                     29                     30
                      A                      A                      A
 Frequencies --    811.1425               847.4051               909.6344
 Red. masses --     11.8698                 6.3961                 3.7919
 Frc consts  --      4.6014                 2.7061                 1.8486
 IR Inten    --     33.5155                29.8465               155.6714

                     31                     32                     33
                      A                      A                      A
 Frequencies --   1011.6404              1075.2214              1127.2939
 Red. masses --      3.1431                 9.3500                 1.9862
 Frc consts  --      1.8952                 6.3688                 1.4871
 IR Inten    --     69.9800               111.3835                10.1309

                     34                     35                     36
                      A                      A                      A
 Frequencies --   1151.4030              1246.5311              1313.1214
 Red. masses --     11.4493                11.3783                 3.5034
 Frc consts  --      8.9430                10.4168                 3.5592
 IR Inten    --    214.1149               130.5748               136.2275

                     37                     38                     39
                      A                      A                      A
 Frequencies --   1324.9647              1371.0467              1380.6008
 Red. masses --      2.9264                 3.1764                 5.8261
 Frc consts  --      3.0269                 3.5179                 6.5428
 IR Inten    --    382.2706                26.0033               181.0068

                     40                     41                     42
                      A                      A                      A
 Frequencies --   1415.9461              1491.6552              1651.6346
 Red. masses --      2.6213                 2.3260                 1.2284
 Frc consts  --      3.0964                 3.0493                 1.9744
 IR Inten    --    108.6336               534.9141                87.3004

                     43                     44                     45
                      A                      A                      A
 Frequencies --   1785.6028              1833.0226              3548.7321
 Red. masses --      7.0746                10.9291                 1.0759
 Frc consts  --     13.2898                21.6357                 7.9827
 IR Inten    --    579.8618               362.5783                83.9819

                     46                     47                     48
                      A                      A                      A
 Frequencies --   3582.4258              3596.4885              3698.9848
 Red. masses --      1.0485                 1.0754                 1.1036
 Frc consts  --      7.9280                 8.1957                 8.8968
 IR Inten    --     71.2949                75.7544                54.2501

 - Thermochemistry -
 -------------------
 Temperature   298.150 Kelvin.  Pressure   1.00000 Atm.
 Atom     1 has atomic number  6 and mass  12.00000

 Molecular mass:   243.95723 amu.
 Principal axes and moments of inertia in atomic units:
                           1         2         3
     Eigenvalues --  2426.944103046.872724499.52666
           X            0.99942   0.03254  -0.00973
           Y           -0.03267   0.99938  -0.01341
           Z            0.00929   0.01372   0.99986
 This molecule is an asymmetric top.
 Rotational symmetry number  1.
 Warning -- assumption of classical behavior for rotation
           may cause significant error
 Rotational temperatures (Kelvin)      0.03569     0.02843     0.01925
 Rotational constants (GHZ):           0.74363     0.59233     0.40110
 Zero-point vibrational energy     275836.3 (Joules/Mol)
                                   65.92645 (Kcal/Mol)
 Warning -- explicit consideration of  23 degrees of freedom as
           vibrations may cause significant error
 Vibrational temperatures:     60.46    80.34   127.58   138.03   186.66
          (Kelvin)            196.06   256.41   285.67   304.04   349.55
                              388.64   513.11   532.74   544.34   564.13
                              577.91   628.39   658.68   694.63   760.28
                              769.19   802.16   868.52   932.28   970.05
                             1041.71  1072.39  1167.05  1219.23  1308.76
                             1455.52  1547.00  1621.92  1656.61  1793.48
                             1889.29  1906.33  1972.63  1986.38  2037.23
                             2146.16  2376.33  2569.08  2637.31  5105.83
                             5154.31  5174.54  5322.01

 Zero-point correction=                           0.105060 (Hartree/Particle)
 Thermal correction to Energy=                    0.119061
 Thermal correction to Enthalpy=                  0.120005
 Thermal correction to Gibbs Free Energy=         0.063564
 Sum of electronic and zero-point Energies=          -1545.116946
 Sum of electronic and thermal Energies=             -1545.102946
 Sum of electronic and thermal Enthalpies=           -1545.102002
 Sum of electronic and thermal Free Energies=        -1545.158443

                     E (Thermal)             CV                S
                      KCal/Mol        Cal/Mol-Kelvin    Cal/Mol-Kelvin
 Total                   74.712             49.952            118.790
 Electronic               0.000              0.000              0.000
 Translational            0.889              2.981             42.376
 Rotational               0.889              2.981             31.876
 Vibrational             72.934             43.990             44.538
 Vibration     1          0.595              1.980              5.161
 Vibration     2          0.596              1.975              4.599
 Vibration     3          0.601              1.957              3.689
 Vibration     4          0.603              1.952              3.535
 Vibration     5          0.612              1.924              2.950
 Vibration     6          0.614              1.917              2.856
 Vibration     7          0.629              1.869              2.347
 Vibration     8          0.637              1.842              2.146
 Vibration     9          0.643              1.824              2.032
 Vibration    10          0.659              1.774              1.781
 Vibration    11          0.674              1.728              1.595
 Vibration    12          0.732              1.562              1.137
 Vibration    13          0.742              1.533              1.079
 Vibration    14          0.749              1.516              1.046
 Vibration    15          0.760              1.487              0.992
 Vibration    16          0.767              1.467              0.957
 Vibration    17          0.797              1.390              0.837
 Vibration    18          0.816              1.344              0.773
 Vibration    19          0.839              1.288              0.703
 Vibration    20          0.883              1.187              0.591
 Vibration    21          0.890              1.173              0.577
 Vibration    22          0.913              1.123              0.529
 Vibration    23          0.962              1.024              0.443

                           ! Non-Optimized Parameters !
 Normal termination of Gaussian 16 at Thu Dec 10 10:00:38 2020.

 ----------------------------------------------------------------------
 # B3LYP/6-311++G(d,p) empiricaldispersion=gd3bj scf=xqc pop=npa geom=c
 heck
 ----------------------------------------------------------------------

 --------------------------------------
 CID_54014263_JID_4425_Energie_neutraal
 --------------------------------------
 Structure from the checkpoint file:  "JID_4425.chk"
 Charge =  0 Multiplicity = 1

 SCF Done:  E(RB3LYP) =  -1545.51495887     A.U. after   16 cycles
 Normal termination of Gaussian 16 at Thu Dec 10 10:02:50 2020.

 ----------------------------------------------------------------------
 # B3LYP/6-311++G(d,p) empiricaldispersion=gd3bj scf=xqc pop=npa geom=c
 heck
 ----------------------------------------------------------------------

 ------------------------------------
 CID_54014263_JID_4425_Energie_kation
 ------------------------------------
 Structure from the checkpoint file:  "JID_4425.chk"
 Charge =  1 Multiplicity = 2

 SCF Done:  E(UB3LYP) =  -1545.13390818     A.U. after   31 cycles
 Normal termination of Gaussian 16 at Thu Dec 10 10:08:58 2020.
 Gaussian 16:  ES64L-G16RevA.03 25-Dec-2016

 ----------------------------------------------------------------------
 # B3LYP/6-311++G(d,p) empiricaldispersion=gd3bj scf=xqc pop=npa geom=c
 heck
 ----------------------------------------------------------------------

 -----------------------------------
 CID_54014263_JID_4425_Energie_anion
 -----------------------------------
 Structure from the checkpoint file:  "JID_4425.chk"
 Charge = -1 Multiplicity = 2

                         Standard orientation:
 ---------------------------------------------------------------------
 Center     Atomic      Atomic             Coordinates (Angstroms)
 Number     Number       Type             X           Y           Z
 ---------------------------------------------------------------------
      1          6           0        0.581042    1.963693   -0.160997
      2          8           0       -0.382533    1.818497    0.581438
      3          7           0        0.871913    3.148842   -0.770460
      4          7           0        1.474617    0.941227   -0.512808
      5         16           0        1.737088   -0.494465    0.328016
      6          8           0        3.145267   -0.808991    0.158005
      7          8           0        1.097198   -0.363839    1.618788
      8          7           0        0.951196   -1.662467   -0.628317
      9          6           0       -0.448648   -1.796400   -0.712728
     10          8           0       -0.978491   -2.878118   -0.776486
     11          7           0       -1.087595   -0.558851   -0.916376
     12         16           0       -2.022935    0.060826    0.119693
     13          8           0       -2.147033   -0.492930    1.456862
     14          8           0       -2.893831    1.108386   -0.375526
     15          1           0        1.824712    3.383653   -1.012590
     16          1           0        0.269337    3.917891   -0.508986
     17          1           0        2.050125    1.041813   -1.341504
     18          1           0        1.439488   -2.554182   -0.566841
 ---------------------------------------------------------------------

 SCF Done:  E(UB3LYP) =  -1545.54643318     A.U. after   29 cycles

 The electronic state is 2-A.
 Alpha  occ. eigenvalues --  -89.00105 -88.88816 -19.03877 -19.03278 -19.00005
 Alpha  occ. eigenvalues --  -18.99098 -18.98894 -18.98511 -14.27214 -14.25668
 Alpha  occ. eigenvalues --  -14.24866 -14.18555 -10.21885 -10.18971  -8.05955
 Alpha  occ. eigenvalues --   -7.95784  -6.02252  -6.02193  -6.02139  -5.91994
 Alpha  occ. eigenvalues --   -5.91929  -5.91898  -1.05270  -0.98919  -0.96397
 Alpha  occ. eigenvalues --   -0.94728  -0.93584  -0.88219  -0.85336  -0.83044
 Alpha  occ. eigenvalues --   -0.80985  -0.78239  -0.60921  -0.56388  -0.52456
 Alpha  occ. eigenvalues --   -0.48849  -0.47531  -0.44067  -0.43354  -0.41047
 Alpha  occ. eigenvalues --   -0.38518  -0.37609  -0.36805  -0.34985  -0.34201
 Alpha  occ. eigenvalues --   -0.33342  -0.31175  -0.30541  -0.27490  -0.27103
 Alpha  occ. eigenvalues --   -0.25145  -0.24343  -0.23447  -0.21785  -0.20774
 Alpha  occ. eigenvalues --   -0.20541  -0.19101  -0.18796  -0.18533  -0.17856
 Alpha  occ. eigenvalues --   -0.15322  -0.14661   0.02710
 Alpha virt. eigenvalues --    0.04760   0.08175   0.09245   0.09929   0.10476
 Alpha virt. eigenvalues --    0.11532   0.12055   0.13411   0.13979   0.15235
 Alpha virt. eigenvalues --    0.15657   0.16211   0.16604   0.17454   0.17875

  Beta  occ. eigenvalues --  -89.00086 -88.88548 -19.03870 -19.03261 -18.99970
  Beta  occ. eigenvalues --  -18.98777 -18.98581 -18.98338 -14.27182 -14.25645
  Beta  occ. eigenvalues --  -14.24807 -14.18372 -10.21792 -10.18806  -8.05934
  Beta  occ. eigenvalues --   -7.95506  -6.02232  -6.02157  -6.02125  -5.91820
  Beta  occ. eigenvalues --   -5.91732  -5.91242  -1.05214  -0.98168  -0.96276
  Beta  occ. eigenvalues --   -0.94378  -0.93547  -0.87496  -0.85261  -0.82882
  Beta  occ. eigenvalues --   -0.80862  -0.77793  -0.60797  -0.55862  -0.52200
  Beta  occ. eigenvalues --   -0.48709  -0.47404  -0.43678  -0.43219  -0.40963
  Beta  occ. eigenvalues --   -0.38011  -0.36831  -0.36584  -0.34592  -0.33950
  Beta  occ. eigenvalues --   -0.32920  -0.30269  -0.29845  -0.27424  -0.26972
  Beta  occ. eigenvalues --   -0.25031  -0.23937  -0.23372  -0.21617  -0.20257
  Beta  occ. eigenvalues --   -0.20091  -0.18588  -0.18397  -0.18159  -0.17477
  Beta  occ. eigenvalues --   -0.14861  -0.14125
  Beta virt. eigenvalues --    0.05493   0.08365   0.09363   0.09539   0.10537
  Beta virt. eigenvalues --    0.10777   0.11887   0.13178   0.13462   0.14060
  Beta virt. eigenvalues --    0.15241   0.15720   0.16254   0.16724   0.17418

 Mulliken charges and spin densities:
               1          2
     1  C    0.219943  -0.161364
     2  O   -0.310291  -0.019445
     3  N   -0.325362   0.025303
     4  N   -0.414934  -0.032286
     5  S    0.675952  -0.164326
     6  O   -0.178037   0.001978
     7  O   -0.090246  -0.005069
     8  N   -0.474717   0.014426
     9  C   -0.093745   0.174976
    10  O   -0.318181   0.043756
    11  N   -0.383297   0.024816
    12  S    0.501215   0.353903
    13  O   -0.155987   0.043839
    14  O   -0.250838   0.075319
    15  H   -0.066387   0.303334
    16  H    0.183480   0.112534
    17  H    0.147789   0.198122
    18  H    0.333645   0.010184
 Sum of Mulliken charges =  -1.00000   1.00000

 Dipole moment (field-independent basis, Debye):
    X=              5.4147    Y=              1.7656    Z=             -1.7834  Tot=              5.9680
 Quadrupole moment (field-independent basis, Debye-Ang):
   XX=           -129.6236   YY=           -111.4860   ZZ=           -112.0647
   XY=             -1.0007   XZ=             -1.2350   YZ=              0.5648

 Summary of Natural Population Analysis:

                                       Natural Population
                Natural  -----------------------------------------------
    Atom  No    Charge         Core      Valence    Rydberg      Total
 -----------------------------------------------------------------------
      C    1    0.41800      0.99973     1.55823    0.02404     2.58200
      O    2   -0.31437      0.99986     3.30745    0.00705     4.31437
      N    3   -0.40528      0.99971     2.89784    0.00773     3.90528
      N    4   -0.44149      0.99967     2.92963    0.01218     3.94149
      S    5    1.17588      4.99938     1.71691    0.10784     6.82412
      O    6   -0.46018      0.99990     3.45444    0.00584     4.46018
      O    7   -0.42568      0.99990     3.41979    0.00600     4.42568
      N    8   -0.43632      0.99968     2.92597    0.01068     3.93632
      C    9    0.41984      0.99971     1.55376    0.02669     2.58016
      O   10   -0.28389      0.99986     3.27764    0.00639     4.28389
      N   11   -0.45272      0.99966     2.94224    0.01081     3.95272
      S   12    1.20209      4.99909     1.70641    0.09241     6.79791
      O   13   -0.39776      0.99990     3.39206    0.00579     4.39776
      O   14   -0.40378      0.99990     3.39814    0.00573     4.40378
      H   15    0.19269      0.00000     0.30414    0.00317     0.30731
      H   16    0.19996      0.00000     0.29875    0.00129     0.30004
      H   17    0.20854      0.00000     0.28963    0.00182     0.29146
      H   18    0.20447      0.00000     0.29366    0.00188     0.29553
 =======================================================================
   * Total *   -0.00000     21.99595    39.66672    0.33733    62.00000

 Normal termination of Gaussian 16 at Thu Dec 10 10:16:02 2020.
