 Gaussian 16, Revision A.03,

 -----------------------------------------------------------
 # opt freq B3LYP/6-31G(d) empiricaldispersion=gd3bj scf=xqc
 -----------------------------------------------------------

 -------------------------------
 CID_130315731_JID_5916_neutraal
 -------------------------------
 Symbolic Z-matrix:
 Charge =  0 Multiplicity = 1

 SCF Done:  E(RB3LYP) =  -656.496054622     A.U. after   13 cycles
 SCF Done:  E(RB3LYP) =  -656.502357782     A.U. after   11 cycles
 SCF Done:  E(RB3LYP) =  -656.502997591     A.U. after   10 cycles
 SCF Done:  E(RB3LYP) =  -656.503143695     A.U. after   11 cycles
 SCF Done:  E(RB3LYP) =  -656.504008965     A.U. after   10 cycles
 SCF Done:  E(RB3LYP) =  -656.504256196     A.U. after   10 cycles
 SCF Done:  E(RB3LYP) =  -656.504325630     A.U. after    9 cycles
 SCF Done:  E(RB3LYP) =  -656.504341040     A.U. after    9 cycles
 SCF Done:  E(RB3LYP) =  -656.504344949     A.U. after    8 cycles
 SCF Done:  E(RB3LYP) =  -656.504346232     A.U. after    8 cycles
 SCF Done:  E(RB3LYP) =  -656.504346760     A.U. after    7 cycles
 SCF Done:  E(RB3LYP) =  -656.504346833     A.U. after    6 cycles
 Optimization completed.
    -- Stationary point found.
 Normal termination of Gaussian 16 at Thu Dec 10 17:37:11 2020.

 --------------------------------------------------------------------
 #N Geom=AllCheck Guess=TCheck SCRF=Check GenChk RB3LYP/6-31G(d) Freq
 --------------------------------------------------------------------

 Structure from the checkpoint file:  "JID_5916.chk"
 -------------------------------
 CID_130315731_JID_5916_neutraal
 -------------------------------
 Charge =  0 Multiplicity = 1

 SCF Done:  E(RB3LYP) =  -656.504346833     A.U. after    1 cycles

  Exact polarizability: 155.047   0.074 136.712  -0.623   2.575 122.444
 Approx polarizability: 193.920   1.425 192.171   4.352   2.003 185.710

                      1                      2                      3
                      A                      A                      A
 Frequencies --     28.1256                43.4785                75.1688
 Red. masses --      3.3872                 3.3241                 3.0759
 Frc consts  --      0.0016                 0.0037                 0.0102
 IR Inten    --      0.0117                 0.3966                 0.0991

                      4                      5                      6
                      A                      A                      A
 Frequencies --     92.4020               119.1775               143.9801
 Red. masses --      2.8664                 3.3162                 3.2970
 Frc consts  --      0.0144                 0.0278                 0.0403
 IR Inten    --      0.4278                 0.1358                 2.3422

                      7                      8                      9
                      A                      A                      A
 Frequencies --    193.9047               224.6189               231.5558
 Red. masses --      2.6768                 1.0635                 1.5653
 Frc consts  --      0.0593                 0.0316                 0.0494
 IR Inten    --      0.6334                 0.0054                 2.9891

                     10                     11                     12
                      A                      A                      A
 Frequencies --    242.0381               278.3733               303.2305
 Red. masses --      2.2634                 1.5227                 2.7347
 Frc consts  --      0.0781                 0.0695                 0.1482
 IR Inten    --      1.3700                 2.3092                 1.4009

                     13                     14                     15
                      A                      A                      A
 Frequencies --    314.7814               340.4842               371.4399
 Red. masses --      2.6341                 2.0495                 2.4664
 Frc consts  --      0.1538                 0.1400                 0.2005
 IR Inten    --      3.1988                 4.8545                 3.5074

                     16                     17                     18
                      A                      A                      A
 Frequencies --    385.9608               395.8247               428.3943
 Red. masses --      2.5051                 2.0863                 1.9128
 Frc consts  --      0.2199                 0.1926                 0.2068
 IR Inten    --      2.0655                 1.6218                 7.0015

                     19                     20                     21
                      A                      A                      A
 Frequencies --    445.5235               447.7071               482.9459
 Red. masses --      1.9584                 2.2966                 3.1144
 Frc consts  --      0.2290                 0.2712                 0.4280
 IR Inten    --      1.9127                 6.9556                 2.0769

                     22                     23                     24
                      A                      A                      A
 Frequencies --    539.0816               580.2048               633.2562
 Red. masses --      2.4277                 2.4497                 2.2818
 Frc consts  --      0.4157                 0.4859                 0.5391
 IR Inten    --      1.6070                 0.9458                 4.0375

                     25                     26                     27
                      A                      A                      A
 Frequencies --    667.0076               732.5683               780.5688
 Red. masses --      1.9064                 3.9127                 3.8375
 Frc consts  --      0.4997                 1.2372                 1.3776
 IR Inten    --    100.8236                13.1221                 2.4756

                     28                     29                     30
                      A                      A                      A
 Frequencies --    809.9665               816.3725               823.8501
 Red. masses --      2.1686                 1.5420                 2.0086
 Frc consts  --      0.8382                 0.6055                 0.8032
 IR Inten    --    152.7317                 2.8510                 6.0905

                     31                     32                     33
                      A                      A                      A
 Frequencies --    863.8738               892.5190               895.3635
 Red. masses --      2.3449                 1.8073                 1.9681
 Frc consts  --      1.0310                 0.8483                 0.9296
 IR Inten    --      9.0124                 1.1944                 9.0208

                     34                     35                     36
                      A                      A                      A
 Frequencies --    932.1216               934.5780               936.8173
 Red. masses --      1.9011                 1.7563                 1.6509
 Frc consts  --      0.9732                 0.9038                 0.8537
 IR Inten    --     13.6101                 0.7335                 3.6771

                     37                     38                     39
                      A                      A                      A
 Frequencies --    947.5847               953.3705               962.1727
 Red. masses --      1.5129                 1.7501                 2.6571
 Frc consts  --      0.8004                 0.9372                 1.4493
 IR Inten    --      5.2245                 4.7571                21.3336

                     40                     41                     42
                      A                      A                      A
 Frequencies --    992.8329               999.6296              1015.7002
 Red. masses --      1.9933                 1.9510                 1.6077
 Frc consts  --      1.1577                 1.1487                 0.9772
 IR Inten    --      7.5991                 5.6191                 5.9791

                     43                     44                     45
                      A                      A                      A
 Frequencies --   1021.2429              1050.3833              1065.0503
 Red. masses --      2.1080                 1.7870                 2.9925
 Frc consts  --      1.2953                 1.1616                 2.0000
 IR Inten    --     20.8342                 1.5730                 9.1414

                     46                     47                     48
                      A                      A                      A
 Frequencies --   1111.1847              1123.6225              1129.6000
 Red. masses --      2.8198                 2.4458                 1.7275
 Frc consts  --      2.0513                 1.8193                 1.2987
 IR Inten    --     59.1135                41.1029                12.0119

                     49                     50                     51
                      A                      A                      A
 Frequencies --   1148.4803              1155.3218              1162.4185
 Red. masses --      1.9251                 1.6246                 2.9623
 Frc consts  --      1.4961                 1.2776                 2.3584
 IR Inten    --     22.6967                19.9652                37.5669

                     52                     53                     54
                      A                      A                      A
 Frequencies --   1180.7688              1207.9694              1210.1157
 Red. masses --      1.6801                 1.9904                 1.8595
 Frc consts  --      1.3802                 1.7112                 1.6044
 IR Inten    --     14.8727                 4.9321                27.8603

                     55                     56                     57
                      A                      A                      A
 Frequencies --   1213.2263              1241.7979              1257.7158
 Red. masses --      1.9429                 1.4153                 1.4398
 Frc consts  --      1.6849                 1.2858                 1.3419
 IR Inten    --     36.6750                10.4640                 5.2832

                     58                     59                     60
                      A                      A                      A
 Frequencies --   1270.4763              1297.9889              1313.5883
 Red. masses --      1.4571                 1.4696                 1.4485
 Frc consts  --      1.3857                 1.4587                 1.4726
 IR Inten    --     11.7295                 6.1286                 2.4870

                     61                     62                     63
                      A                      A                      A
 Frequencies --   1321.2055              1346.4051              1352.7920
 Red. masses --      1.3921                 1.5356                 1.5018
 Frc consts  --      1.4317                 1.6402                 1.6193
 IR Inten    --      1.1492                17.4834                15.5103

                     64                     65                     66
                      A                      A                      A
 Frequencies --   1359.5440              1368.2559              1379.3725
 Red. masses --      1.3497                 1.4626                 1.3729
 Frc consts  --      1.4698                 1.6133                 1.5391
 IR Inten    --      7.1469                 0.8075                 3.2915

                     67                     68                     69
                      A                      A                      A
 Frequencies --   1382.8177              1389.0138              1397.0456
 Red. masses --      1.3383                 1.2709                 1.2771
 Frc consts  --      1.5077                 1.4446                 1.4686
 IR Inten    --      7.0254                14.7409                12.6506

                     70                     71                     72
                      A                      A                      A
 Frequencies --   1404.7133              1421.1067              1423.0158
 Red. masses --      1.3302                 1.3542                 1.3009
 Frc consts  --      1.5464                 1.6114                 1.5521
 IR Inten    --      0.1411                 3.9229                 5.0293

                     73                     74                     75
                      A                      A                      A
 Frequencies --   1426.3797              1444.6503              1496.6255
 Red. masses --      1.2790                 1.2413                 1.1040
 Frc consts  --      1.5331                 1.5263                 1.4570
 IR Inten    --      3.5695                13.6152                 6.2142

                     76                     77                     78
                      A                      A                      A
 Frequencies --   1501.2828              1512.5612              1513.0794
 Red. masses --      1.1004                 1.0931                 1.0657
 Frc consts  --      1.4613                 1.4734                 1.4374
 IR Inten    --      6.7918                12.5260                 2.0205

                     79                     80                     81
                      A                      A                      A
 Frequencies --   1514.0322              1516.4395              1518.7918
 Red. masses --      1.0724                 1.0830                 1.1523
 Frc consts  --      1.4483                 1.4673                 1.5661
 IR Inten    --      5.8716                 1.6663                 2.1506

                     82                     83                     84
                      A                      A                      A
 Frequencies --   1520.5921              1524.9699              1530.7575
 Red. masses --      1.0883                 1.0937                 1.0864
 Frc consts  --      1.4826                 1.4985                 1.4999
 IR Inten    --      6.7786                 2.7544                 0.2970

                     85                     86                     87
                      A                      A                      A
 Frequencies --   1539.5925              1542.5257              1547.9497
 Red. masses --      1.0553                 1.1516                 1.0963
 Frc consts  --      1.4738                 1.6144                 1.5477
 IR Inten    --      6.7927                 9.3722                 1.5024

                     88                     89                     90
                      A                      A                      A
 Frequencies --   2984.1514              3032.3499              3033.8590
 Red. masses --      1.0722                 1.0666                 1.0643
 Frc consts  --      5.6257                 5.7783                 5.7716
 IR Inten    --     70.8619                23.7996                26.9252

                     91                     92                     93
                      A                      A                      A
 Frequencies --   3035.7550              3036.8902              3037.9879
 Red. masses --      1.0625                 1.0644                 1.0428
 Frc consts  --      5.7694                 5.7838                 5.6704
 IR Inten    --     45.7508                25.7483                 9.5646

                     94                     95                     96
                      A                      A                      A
 Frequencies --   3041.5709              3043.0241              3046.7836
 Red. masses --      1.0642                 1.0610                 1.0540
 Frc consts  --      5.8005                 5.7887                 5.7645
 IR Inten    --      4.2370                31.1842                56.7483

                     97                     98                     99
                      A                      A                      A
 Frequencies --   3050.7267              3071.8773              3078.5193
 Red. masses --      1.0831                 1.0764                 1.0976
 Frc consts  --      5.9393                 5.9847                 6.1288
 IR Inten    --     26.6847                10.6392                47.7378

                    100                    101                    102
                      A                      A                      A
 Frequencies --   3083.0394              3087.8799              3091.4833
 Red. masses --      1.0991                 1.0980                 1.1009
 Frc consts  --      6.1554                 6.1687                 6.1993
 IR Inten    --     53.5940                37.9366                27.5385

                    103                    104                    105
                      A                      A                      A
 Frequencies --   3093.2465              3096.7193              3099.7012
 Red. masses --      1.1019                 1.1006                 1.0926
 Frc consts  --      6.2116                 6.2186                 6.1852
 IR Inten    --     83.9900                 2.2824                47.2602

                    106                    107                    108
                      A                      A                      A
 Frequencies --   3108.0806              3135.0568              3135.4994
 Red. masses --      1.1005                 1.0970                 1.1004
 Frc consts  --      6.2638                 6.3525                 6.3741
 IR Inten    --     72.7593                40.4333                26.4214

                    109                    110                    111
                      A                      A                      A
 Frequencies --   3143.5510              3465.9717              3497.3050
 Red. masses --      1.0970                 1.0735                 1.0736
 Frc consts  --      6.3871                 7.5978                 7.7365
 IR Inten    --     19.0107                 2.2489                 0.7383

 - Thermochemistry -
 -------------------
 Temperature   298.150 Kelvin.  Pressure   1.00000 Atm.
 Atom     1 has atomic number  6 and mass  12.00000

 Molecular mass:   212.18886 amu.
 Principal axes and moments of inertia in atomic units:
                           1         2         3
     Eigenvalues --  1967.078135153.750946062.01504
           X            0.99994  -0.01121   0.00031
           Y            0.01121   0.99985   0.01345
           Z           -0.00046  -0.01345   0.99991
 This molecule is an asymmetric top.
 Rotational symmetry number  1.
 Warning -- assumption of classical behavior for rotation
           may cause significant error
 Rotational temperatures (Kelvin)      0.04403     0.01681     0.01429
 Rotational constants (GHZ):           0.91747     0.35018     0.29771
 Zero-point vibrational energy     946162.7 (Joules/Mol)
                                  226.13832 (Kcal/Mol)
 Warning -- explicit consideration of  23 degrees of freedom as
           vibrations may cause significant error
 Vibrational temperatures:     40.47    62.56   108.15   132.95   171.47
          (Kelvin)            207.16   278.99   323.18   333.16   348.24
                              400.52   436.28   452.90   489.88   534.42
                              555.31   569.50   616.36   641.01   644.15
                              694.85   775.62   834.79   911.11   959.68
                             1054.00  1123.06  1165.36  1174.58  1185.34
                             1242.92  1284.14  1288.23  1341.12  1344.65
                             1347.87  1363.36  1371.69  1384.35  1428.47
                             1438.24  1461.37  1469.34  1511.27  1532.37
                             1598.75  1616.64  1625.24  1652.41  1662.25
                             1672.46  1698.86  1738.00  1741.09  1745.56
                             1786.67  1809.57  1827.93  1867.52  1889.96
                             1900.92  1937.18  1946.37  1956.08  1968.62
                             1984.61  1989.57  1998.48  2010.04  2021.07
                             2044.66  2047.40  2052.24  2078.53  2153.31
                             2160.01  2176.24  2176.98  2178.35  2181.82
                             2185.20  2187.79  2194.09  2202.42  2215.13
                             2219.35  2227.15  4293.53  4362.88  4365.05
                             4367.77  4369.41  4370.99  4376.14  4378.23
                             4383.64  4389.32  4419.75  4429.30  4435.81
                             4442.77  4447.95  4450.49  4455.49  4459.78
                             4471.83  4510.65  4511.28  4522.87  4986.76
                             5031.84

 Zero-point correction=                           0.360374 (Hartree/Particle)
 Thermal correction to Energy=                    0.375710
 Thermal correction to Enthalpy=                  0.376654
 Thermal correction to Gibbs Free Energy=         0.317708
 Sum of electronic and zero-point Energies=           -656.143972
 Sum of electronic and thermal Energies=              -656.128637
 Sum of electronic and thermal Enthalpies=            -656.127693
 Sum of electronic and thermal Free Energies=         -656.186639

                     E (Thermal)             CV                S
                      KCal/Mol        Cal/Mol-Kelvin    Cal/Mol-Kelvin
 Total                  235.762             60.800            124.062
 Electronic               0.000              0.000              0.000
 Translational            0.889              2.981             41.960
 Rotational               0.889              2.981             32.486
 Vibrational            233.984             54.839             49.616
 Vibration     1          0.593              1.984              5.957
 Vibration     2          0.595              1.980              5.094
 Vibration     3          0.599              1.966              4.013
 Vibration     4          0.602              1.955              3.609
 Vibration     5          0.609              1.933              3.114
 Vibration     6          0.616              1.909              2.750
 Vibration     7          0.635              1.848              2.190
 Vibration     8          0.649              1.804              1.922
 Vibration     9          0.653              1.793              1.867
 Vibration    10          0.658              1.776              1.788
 Vibration    11          0.679              1.714              1.544
 Vibration    12          0.695              1.668              1.399
 Vibration    13          0.702              1.645              1.337
 Vibration    14          0.720              1.595              1.210
 Vibration    15          0.743              1.531              1.074
 Vibration    16          0.755              1.500              1.016
 Vibration    17          0.763              1.479              0.978
 Vibration    18          0.790              1.408              0.864
 Vibration    19          0.805              1.371              0.809
 Vibration    20          0.807              1.366              0.803
 Vibration    21          0.839              1.288              0.702
 Vibration    22          0.894              1.164              0.567
 Vibration    23          0.937              1.074              0.485

                           ! Non-Optimized Parameters !
 Normal termination of Gaussian 16 at Thu Dec 10 17:53:22 2020.

 ----------------------------------------------------------------------
 # B3LYP/6-311++G(d,p) empiricaldispersion=gd3bj scf=xqc pop=npa geom=c
 heck
 ----------------------------------------------------------------------

 ---------------------------------------
 CID_130315731_JID_5916_Energie_neutraal
 ---------------------------------------
 Structure from the checkpoint file:  "JID_5916.chk"
 Charge =  0 Multiplicity = 1

 SCF Done:  E(RB3LYP) =  -656.692736354     A.U. after   14 cycles
 Normal termination of Gaussian 16 at Thu Dec 10 18:02:23 2020.

 ----------------------------------------------------------------------
 # B3LYP/6-311++G(d,p) empiricaldispersion=gd3bj scf=xqc pop=npa geom=c
 heck
 ----------------------------------------------------------------------

 -------------------------------------
 CID_130315731_JID_5916_Energie_kation
 -------------------------------------
 Structure from the checkpoint file:  "JID_5916.chk"
 Charge =  1 Multiplicity = 2

 SCF Done:  E(UB3LYP) =  -656.410254394     A.U. after   27 cycles
 Normal termination of Gaussian 16 at Thu Dec 10 18:23:35 2020.
 Gaussian 16:  ES64L-G16RevA.03 25-Dec-2016

 ----------------------------------------------------------------------
 # B3LYP/6-311++G(d,p) empiricaldispersion=gd3bj scf=xqc pop=npa geom=c
 heck
 ----------------------------------------------------------------------

 ------------------------------------
 CID_130315731_JID_5916_Energie_anion
 ------------------------------------
 Structure from the checkpoint file:  "JID_5916.chk"
 Charge = -1 Multiplicity = 2

                         Standard orientation:
 ---------------------------------------------------------------------
 Center     Atomic      Atomic             Coordinates (Angstroms)
 Number     Number       Type             X           Y           Z
 ---------------------------------------------------------------------
      1          6           0        4.284788   -1.452356   -0.604973
      2          6           0        3.003506   -0.830395   -0.035142
      3          6           0        2.875862   -1.150511    1.463516
      4          7           0        2.993631    0.604909   -0.340980
      5          6           0        1.735193    1.276121   -0.632888
      6          6           0        0.690387    1.441612    0.500050
      7          6           0       -0.231103    0.215746    0.698859
      8          6           0       -1.498648    0.522784   -0.154720
      9          6           0       -2.785016    0.496799    0.686490
     10          6           0       -3.179318   -0.940555    1.067680
     11          7           0       -3.311233   -1.840169   -0.080988
     12          6           0       -2.106514   -1.824632   -0.914151
     13          6           0       -1.661503   -0.418766   -1.353047
     14          8           0       -1.295378    1.851261   -0.679374
     15          6           0       -0.349869    2.513082    0.149510
     16          1           0        5.167992   -1.009468   -0.127296
     17          1           0        4.354476   -1.261215   -1.679550
     18          1           0        4.316292   -2.534783   -0.431874
     19          1           0        2.149440   -1.269368   -0.567320
     20          1           0        3.736904   -0.740545    2.008163
     21          1           0        1.969421   -0.722657    1.899469
     22          1           0        2.861593   -2.232637    1.640178
     23          1           0        3.517988    1.116665    0.365382
     24          1           0        1.999120    2.279101   -0.993957
     25          1           0        1.267932    0.764921   -1.483006
     26          1           0        1.220097    1.701071    1.425323
     27          1           0       -0.497023    0.099640    1.755090
     28          1           0        0.244079   -0.715815    0.386140
     29          1           0       -3.588091    0.950340    0.091107
     30          1           0       -2.660280    1.115350    1.585089
     31          1           0       -4.123712   -0.944031    1.623034
     32          1           0       -2.420444   -1.369930    1.736698
     33          1           0       -4.102199   -1.531153   -0.646434
     34          1           0       -1.303173   -2.303588   -0.336898
     35          1           0       -2.280951   -2.458531   -1.790466
     36          1           0       -2.415085    0.013426   -2.024426
     37          1           0       -0.721305   -0.468620   -1.916214
     38          1           0       -0.828857    2.907787    1.061017
     39          1           0        0.055434    3.357190   -0.417582
 ---------------------------------------------------------------------

 SCF Done:  E(UB3LYP) =  -656.678779397     A.U. after   31 cycles

 The electronic state is 2-A.
 Alpha  occ. eigenvalues --  -19.02119 -14.20210 -14.19740 -10.12837 -10.11517
 Alpha  occ. eigenvalues --  -10.10650 -10.09755 -10.09638 -10.09515 -10.07685
 Alpha  occ. eigenvalues --  -10.07143 -10.06874 -10.06512 -10.06305 -10.06162
 Alpha  occ. eigenvalues --   -0.94176  -0.81723  -0.81044  -0.70230  -0.69413
 Alpha  occ. eigenvalues --   -0.66494  -0.65796  -0.59201  -0.58845  -0.56536
 Alpha  occ. eigenvalues --   -0.53364  -0.51687  -0.49319  -0.48185  -0.45317
 Alpha  occ. eigenvalues --   -0.41056  -0.40181  -0.38224  -0.37380  -0.36777
 Alpha  occ. eigenvalues --   -0.35679  -0.35010  -0.34293  -0.33760  -0.32613
 Alpha  occ. eigenvalues --   -0.31478  -0.31057  -0.29568  -0.29218  -0.28857
 Alpha  occ. eigenvalues --   -0.28653  -0.27088  -0.26597  -0.26112  -0.25390
 Alpha  occ. eigenvalues --   -0.24780  -0.24449  -0.23729  -0.23056  -0.22394
 Alpha  occ. eigenvalues --   -0.21462  -0.15692  -0.13318  -0.12265   0.04277
 Alpha virt. eigenvalues --    0.06068   0.06521   0.07319   0.07846   0.08189
 Alpha virt. eigenvalues --    0.09032   0.09183   0.09744   0.10364   0.10430
 Alpha virt. eigenvalues --    0.11112   0.11365   0.11646   0.12319   0.12562

  Beta  occ. eigenvalues --  -19.02117 -14.20196 -14.19725 -10.12837 -10.11502
  Beta  occ. eigenvalues --  -10.10643 -10.09740 -10.09631 -10.09497 -10.07669
  Beta  occ. eigenvalues --  -10.07127 -10.06865 -10.06494 -10.06286 -10.06131
  Beta  occ. eigenvalues --   -0.94169  -0.81694  -0.81019  -0.70205  -0.69389
  Beta  occ. eigenvalues --   -0.66464  -0.65765  -0.59157  -0.58805  -0.56500
  Beta  occ. eigenvalues --   -0.53322  -0.51640  -0.49266  -0.48143  -0.45285
  Beta  occ. eigenvalues --   -0.41019  -0.40146  -0.38183  -0.37354  -0.36748
  Beta  occ. eigenvalues --   -0.35645  -0.34975  -0.34269  -0.33728  -0.32583
  Beta  occ. eigenvalues --   -0.31451  -0.31024  -0.29535  -0.29190  -0.28824
  Beta  occ. eigenvalues --   -0.28630  -0.27063  -0.26569  -0.26083  -0.25362
  Beta  occ. eigenvalues --   -0.24752  -0.24410  -0.23703  -0.23026  -0.22364
  Beta  occ. eigenvalues --   -0.21446  -0.15674  -0.13292  -0.12247
  Beta virt. eigenvalues --    0.06301   0.06831   0.07291   0.07804   0.08272
  Beta virt. eigenvalues --    0.08698   0.09311   0.09613   0.09956   0.10694
  Beta virt. eigenvalues --    0.10831   0.11378   0.11578   0.11891   0.12620

 Mulliken charges and spin densities:
               1          2
     1  C   -0.042665  -0.420144
     2  C   -0.543952   0.475001
     3  C    0.460521  -0.990363
     4  N    0.011174   0.048284
     5  C    0.088142  -0.877277
     6  C   -1.354245   1.669193
     7  C    1.580881  -1.593520
     8  C   -1.234933   0.682327
     9  C   -0.257676   0.134956
    10  C    1.020798  -1.546912
    11  N   -0.189917   0.158294
    12  C   -0.030986  -0.554976
    13  C   -0.914843   0.697747
    14  O    0.035856   0.005737
    15  C    1.366664  -1.794511
    16  H   -0.035398   0.162597
    17  H   -0.007130   0.155393
    18  H   -0.039205   0.162793
    19  H    0.133875   0.000967
    20  H   -0.231210   0.370016
    21  H   -0.155244   0.319339
    22  H   -0.137181   0.271403
    23  H    0.104447   0.108818
    24  H    0.033879   0.112495
    25  H    0.105885   0.109758
    26  H   -0.552049   0.786680
    27  H    0.021222   0.186186
    28  H    0.778499  -0.704241
    29  H   -0.031100   0.214613
    30  H   -0.236593   0.368215
    31  H   -0.297405   0.500070
    32  H    0.012027   0.144022
    33  H    0.093918   0.125688
    34  H   -0.064860   0.234902
    35  H   -0.337781   0.530126
    36  H   -0.061485   0.252701
    37  H    0.068300   0.016127
    38  H   -0.186026   0.343646
    39  H    0.025798   0.133852
 Sum of Mulliken charges =  -1.00000   1.00000

 Dipole moment (field-independent basis, Debye):
    X=              0.4124    Y=              0.5730    Z=             -2.9580  Tot=              3.0411
 Quadrupole moment (field-independent basis, Debye-Ang):
   XX=           -174.0441   YY=           -143.9663   ZZ=           -139.6752
   XY=             -2.7224   XZ=             -1.1870   YZ=             -3.1335

 Summary of Natural Population Analysis:

                                       Natural Population
                Natural  -----------------------------------------------
    Atom  No    Charge         Core      Valence    Rydberg      Total
 -----------------------------------------------------------------------
      C    1   -0.28224      0.99965     2.27725    0.00535     3.28224
      C    2   -0.01502      0.99962     2.00421    0.01119     3.01502
      C    3   -0.29300      0.99964     2.28743    0.00593     3.29300
      N    4   -0.34356      0.99973     2.83175    0.01208     3.84356
      C    5   -0.08051      0.99960     2.06843    0.01248     3.08051
      C    6   -0.13408      0.99959     2.12204    0.01246     3.13408
      C    7   -0.20667      0.99957     2.19693    0.01017     3.20667
      C    8    0.14005      0.99950     1.84285    0.01760     2.85995
      C    9   -0.20905      0.99956     2.19847    0.01102     3.20905
      C   10   -0.09027      0.99962     2.07931    0.01134     3.09027
      N   11   -0.33517      0.99976     2.82299    0.01242     3.83517
      C   12   -0.09019      0.99962     2.07902    0.01155     3.09019
      C   13   -0.20488      0.99956     2.19506    0.01026     3.20488
      O   14   -0.31005      0.99988     3.30153    0.00865     4.31005
      C   15   -0.00708      0.99956     1.99409    0.01343     3.00708
      H   16    0.09559      0.00000     0.40333    0.00108     0.40441
      H   17    0.10081      0.00000     0.39803    0.00116     0.39919
      H   18    0.09560      0.00000     0.40353    0.00088     0.40440
      H   19    0.08822      0.00000     0.40972    0.00206     0.41178
      H   20    0.09635      0.00000     0.40232    0.00133     0.40365
      H   21    0.10225      0.00000     0.39619    0.00156     0.39775
      H   22    0.09922      0.00000     0.39975    0.00103     0.40078
      H   23    0.17164      0.00000     0.32570    0.00265     0.32836
      H   24    0.09246      0.00000     0.40652    0.00103     0.40754
      H   25    0.09192      0.00000     0.40648    0.00161     0.40808
      H   26    0.10353      0.00000     0.39447    0.00200     0.39647
      H   27    0.10530      0.00000     0.39287    0.00183     0.39470
      H   28    0.10312      0.00000     0.39468    0.00220     0.39688
      H   29    0.09931      0.00000     0.39909    0.00160     0.40069
      H   30    0.10294      0.00000     0.39538    0.00167     0.39706
      H   31    0.09698      0.00000     0.40192    0.00110     0.40302
      H   32    0.09047      0.00000     0.40809    0.00144     0.40953
      H   33    0.16819      0.00000     0.32946    0.00235     0.33181
      H   34    0.08950      0.00000     0.40897    0.00153     0.41050
      H   35    0.09638      0.00000     0.40268    0.00094     0.40362
      H   36    0.10041      0.00000     0.39812    0.00146     0.39959
      H   37    0.10108      0.00000     0.39760    0.00132     0.39892
      H   38    0.08103      0.00000     0.41753    0.00144     0.41897
      H   39    0.08944      0.00000     0.40933    0.00122     0.41056
 =======================================================================
   * Total *    0.00000     14.99445    43.80312    0.20243    59.00000

 Normal termination of Gaussian 16 at Thu Dec 10 18:46:48 2020.
