 Gaussian 16, Revision A.03,

 -----------------------------------------------------------
 # opt freq B3LYP/6-31G(d) empiricaldispersion=gd3bj scf=xqc
 -----------------------------------------------------------

 -------------------------------
 CID_115154241_JID_9537_neutraal
 -------------------------------
 Symbolic Z-matrix:
 Charge =  0 Multiplicity = 1

 SCF Done:  E(RB3LYP) =  -806.570732422     A.U. after   15 cycles
 SCF Done:  E(RB3LYP) =  -806.578097537     A.U. after   12 cycles
 SCF Done:  E(RB3LYP) =  -806.578663839     A.U. after   12 cycles
 SCF Done:  E(RB3LYP) =  -806.578821911     A.U. after   11 cycles
 SCF Done:  E(RB3LYP) =  -806.578945181     A.U. after   11 cycles
 SCF Done:  E(RB3LYP) =  -806.579109345     A.U. after   12 cycles
 SCF Done:  E(RB3LYP) =  -806.579336176     A.U. after   14 cycles
 SCF Done:  E(RB3LYP) =  -806.579084312     A.U. after   13 cycles
 SCF Done:  E(RB3LYP) =  -806.579831382     A.U. after   12 cycles
 SCF Done:  E(RB3LYP) =  -806.538413088     A.U. after   13 cycles
 SCF Done:  E(RB3LYP) =  -806.584518170     A.U. after    8 cycles
 SCF Done:  E(RB3LYP) =  -806.584518233     A.U. after    7 cycles
 SCF Done:  E(RB3LYP) =  -806.584518287     A.U. after    7 cycles
 SCF Done:  E(RB3LYP) =  -806.584518321     A.U. after    7 cycles
 SCF Done:  E(RB3LYP) =  -806.584518342     A.U. after    6 cycles
 Optimization completed.
    -- Stationary point found.
 Normal termination of Gaussian 16 at Sun Dec 13 16:43:43 2020.

 --------------------------------------------------------------------
 #N Geom=AllCheck Guess=TCheck SCRF=Check GenChk RB3LYP/6-31G(d) Freq
 --------------------------------------------------------------------

 Structure from the checkpoint file:  "JID_9537.chk"
 -------------------------------
 CID_115154241_JID_9537_neutraal
 -------------------------------
 Charge =  0 Multiplicity = 1

 SCF Done:  E(RB3LYP) =  -806.584518342     A.U. after    1 cycles

  Exact polarizability: 232.804  32.099 179.603  12.471 -31.285 139.473
 Approx polarizability: 332.116  55.953 291.211  28.768 -77.583 237.769

                      1                      2                      3
                      A                      A                      A
 Frequencies --     18.6818                28.9777                39.5508
 Red. masses --      4.0286                 4.3062                 4.7464
 Frc consts  --      0.0008                 0.0021                 0.0044
 IR Inten    --      0.3676                 0.1025                 1.3282

                      4                      5                      6
                      A                      A                      A
 Frequencies --     58.5433                74.8525                92.9861
 Red. masses --      3.5174                 3.9407                 1.0980
 Frc consts  --      0.0071                 0.0130                 0.0056
 IR Inten    --      1.0541                 0.5199                 0.1659

                      7                      8                      9
                      A                      A                      A
 Frequencies --    116.7841               159.3709               169.2772
 Red. masses --      2.7740                 5.3434                 3.8089
 Frc consts  --      0.0223                 0.0800                 0.0643
 IR Inten    --      0.9678                 0.1235                 3.5925

                     10                     11                     12
                      A                      A                      A
 Frequencies --    185.0676               203.7055               254.4234
 Red. masses --      3.6776                 3.4627                 2.5563
 Frc consts  --      0.0742                 0.0847                 0.0975
 IR Inten    --      0.3034                 1.5886                 0.7653

                     13                     14                     15
                      A                      A                      A
 Frequencies --    265.3714               275.7401               277.8807
 Red. masses --      3.2795                 1.0835                 1.2171
 Frc consts  --      0.1361                 0.0485                 0.0554
 IR Inten    --      1.7242                 3.6528                41.9209

                     16                     17                     18
                      A                      A                      A
 Frequencies --    336.0025               350.4950               365.6962
 Red. masses --      3.3392                 3.9010                 2.6753
 Frc consts  --      0.2221                 0.2824                 0.2108
 IR Inten    --      3.7441                 1.7136                 3.5688

                     19                     20                     21
                      A                      A                      A
 Frequencies --    394.4144               406.0288               421.3540
 Red. masses --      2.6009                 3.2471                 4.0573
 Frc consts  --      0.2384                 0.3154                 0.4244
 IR Inten    --     11.7492                 0.6583                 0.8268

                     22                     23                     24
                      A                      A                      A
 Frequencies --    452.0036               479.1517               496.3800
 Red. masses --      2.4529                 3.5286                 2.6717
 Frc consts  --      0.2953                 0.4773                 0.3879
 IR Inten    --      3.1139                 4.4124                11.2702

                     25                     26                     27
                      A                      A                      A
 Frequencies --    515.3677               525.2665               536.5839
 Red. masses --      1.6262                 2.7761                 5.9522
 Frc consts  --      0.2545                 0.4513                 1.0097
 IR Inten    --     51.6077                 8.0874                 0.1793

                     28                     29                     30
                      A                      A                      A
 Frequencies --    541.5356               603.6528               644.6333
 Red. masses --      3.5174                 4.5084                 2.7573
 Frc consts  --      0.6078                 0.9679                 0.6751
 IR Inten    --      2.4881                11.4195                25.8911

                     31                     32                     33
                      A                      A                      A
 Frequencies --    653.1199               665.4147               688.8319
 Red. masses --      2.4861                 4.0147                 5.7392
 Frc consts  --      0.6248                 1.0473                 1.6045
 IR Inten    --     59.2914                 9.2223                 1.2757

                     34                     35                     36
                      A                      A                      A
 Frequencies --    773.4886               776.5577               811.5590
 Red. masses --      5.6679                 2.6493                 1.4904
 Frc consts  --      1.9979                 0.9413                 0.5783
 IR Inten    --      0.3620                 0.0613                 0.4460

                     37                     38                     39
                      A                      A                      A
 Frequencies --    833.1271               848.9056               858.5136
 Red. masses --      1.3447                 2.7839                 3.9617
 Frc consts  --      0.5499                 1.1820                 1.7204
 IR Inten    --     28.2942                 9.2943                 0.5406

                     40                     41                     42
                      A                      A                      A
 Frequencies --    866.3859               900.1029               911.7577
 Red. masses --      3.8189                 1.3838                 1.5502
 Frc consts  --      1.6889                 0.6606                 0.7592
 IR Inten    --      7.9513                12.6202                13.0716

                     43                     44                     45
                      A                      A                      A
 Frequencies --    919.6985               935.4352               953.4867
 Red. masses --      1.4699                 1.3849                 3.8287
 Frc consts  --      0.7325                 0.7140                 2.0508
 IR Inten    --     86.2041                58.4394                 2.0504

                     46                     47                     48
                      A                      A                      A
 Frequencies --    964.6824               969.9471               979.8677
 Red. masses --      1.3079                 1.3085                 1.7015
 Frc consts  --      0.7171                 0.7253                 0.9625
 IR Inten    --      3.7321                 0.1256                 5.8326

                     49                     50                     51
                      A                      A                      A
 Frequencies --    989.6671              1002.7291              1037.7887
 Red. masses --      3.2742                 1.8130                 1.5386
 Frc consts  --      1.8894                 1.0740                 0.9763
 IR Inten    --      1.5600                20.9589                 7.1851

                     52                     53                     54
                      A                      A                      A
 Frequencies --   1053.7748              1077.3793              1113.5594
 Red. masses --      1.5136                 1.5176                 2.4217
 Frc consts  --      0.9903                 1.0379                 1.7693
 IR Inten    --      0.0166                 4.0761                28.7590

                     55                     56                     57
                      A                      A                      A
 Frequencies --   1129.3506              1160.9260              1180.6294
 Red. masses --      2.6230                 1.6996                 1.5916
 Frc consts  --      1.9711                 1.3496                 1.3071
 IR Inten    --      6.8749                 5.5472                 5.6269

                     58                     59                     60
                      A                      A                      A
 Frequencies --   1185.2502              1198.3120              1206.6156
 Red. masses --      1.5508                 1.3726                 1.6653
 Frc consts  --      1.2836                 1.1612                 1.4285
 IR Inten    --     12.7320                13.4270                22.3683

                     61                     62                     63
                      A                      A                      A
 Frequencies --   1208.7930              1247.6990              1273.3175
 Red. masses --      1.4236                 3.4380                 1.4316
 Frc consts  --      1.2256                 3.1534                 1.3676
 IR Inten    --      5.3788                 8.3404                11.3779

                     64                     65                     66
                      A                      A                      A
 Frequencies --   1288.5677              1294.1457              1306.6335
 Red. masses --      1.6552                 1.5278                 1.8360
 Frc consts  --      1.6193                 1.5076                 1.8469
 IR Inten    --     30.0055                14.4886                 6.7891

                     67                     68                     69
                      A                      A                      A
 Frequencies --   1325.8151              1367.0095              1385.7115
 Red. masses --      1.4944                 1.7334                 1.4640
 Frc consts  --      1.5477                 1.9085                 1.6563
 IR Inten    --     50.6047                19.4944                35.2357

                     70                     71                     72
                      A                      A                      A
 Frequencies --   1403.9423              1416.2339              1426.6800
 Red. masses --      1.5248                 1.4920                 4.1198
 Frc consts  --      1.7708                 1.7632                 4.9406
 IR Inten    --     19.4254                 4.0849                 3.9275

                     73                     74                     75
                      A                      A                      A
 Frequencies --   1429.8203              1434.2536              1442.6460
 Red. masses --      1.3744                 3.0359                 1.6097
 Frc consts  --      1.6555                 3.6796                 1.9739
 IR Inten    --      8.3301                13.9516                33.8226

                     76                     77                     78
                      A                      A                      A
 Frequencies --   1443.8751              1462.5309              1488.7617
 Red. masses --      1.4509                 2.4903                 1.5695
 Frc consts  --      1.7821                 3.1385                 2.0496
 IR Inten    --     14.6722                10.3646                57.2515

                     79                     80                     81
                      A                      A                      A
 Frequencies --   1494.4846              1513.1206              1516.4932
 Red. masses --      1.1875                 1.0443                 1.1311
 Frc consts  --      1.5627                 1.4087                 1.5326
 IR Inten    --     14.8595                 5.6883                13.8327

                     82                     83                     84
                      A                      A                      A
 Frequencies --   1521.3887              1522.9611              1537.1675
 Red. masses --      1.1774                 1.0952                 1.4989
 Frc consts  --      1.6056                 1.4967                 2.0867
 IR Inten    --      4.6147                 4.3237                 9.7828

                     85                     86                     87
                      A                      A                      A
 Frequencies --   1538.4200              1560.4338              1630.6899
 Red. masses --      1.4136                 2.9336                 6.5204
 Frc consts  --      1.9711                 4.2087                10.2157
 IR Inten    --     10.2823                 8.5932                 0.1284

                     88                     89                     90
                      A                      A                      A
 Frequencies --   1675.3824              1697.5062              1698.4416
 Red. masses --      5.4481                 5.9591                 1.0963
 Frc consts  --      9.0100                10.1170                 1.8633
 IR Inten    --     26.1681                 0.6318                18.8670

                     91                     92                     93
                      A                      A                      A
 Frequencies --   1781.4852              3037.0004              3042.1319
 Red. masses --      8.0236                 1.0375                 1.0377
 Frc consts  --     15.0031                 5.6379                 5.6579
 IR Inten    --    318.1754                18.1138                40.7525

                     94                     95                     96
                      A                      A                      A
 Frequencies --   3049.1357              3056.0436              3081.4911
 Red. masses --      1.0607                 1.0611                 1.0998
 Frc consts  --      5.8105                 5.8386                 6.1528
 IR Inten    --     22.3320                16.0246                14.0462

                     97                     98                     99
                      A                      A                      A
 Frequencies --   3083.4607              3092.8531              3099.5479
 Red. masses --      1.0914                 1.1007                 1.1011
 Frc consts  --      6.1138                 6.2037                 6.2326
 IR Inten    --      4.0232                20.1153                12.8146

                    100                    101                    102
                      A                      A                      A
 Frequencies --   3109.5509              3126.0563              3128.4208
 Red. masses --      1.0977                 1.1000                 1.1007
 Frc consts  --      6.2536                 6.3333                 6.3469
 IR Inten    --     62.1541                23.8848                15.8778

                    103                    104                    105
                      A                      A                      A
 Frequencies --   3170.2017              3174.1494              3176.5634
 Red. masses --      1.0865                 1.0900                 1.0864
 Frc consts  --      6.4335                 6.4703                 6.4591
 IR Inten    --      7.3140                18.3843                 8.3358

                    106                    107                    108
                      A                      A                      A
 Frequencies --   3191.3373              3195.1053              3205.6384
 Red. masses --      1.0946                 1.0951                 1.0893
 Frc consts  --      6.5681                 6.5870                 6.5952
 IR Inten    --     34.4102                15.4490                 5.7526

                    109                    110                    111
                      A                      A                      A
 Frequencies --   3438.7589              3525.5923              3598.0446
 Red. masses --      1.0504                 1.0905                 1.0763
 Frc consts  --      7.3182                 7.9863                 8.2093
 IR Inten    --      3.2150                 1.7535                22.4492

 - Thermochemistry -
 -------------------
 Temperature   298.150 Kelvin.  Pressure   1.00000 Atm.
 Atom     1 has atomic number  6 and mass  12.00000

 Molecular mass:   256.15756 amu.
 Principal axes and moments of inertia in atomic units:
                           1         2         3
     Eigenvalues --  3021.035528459.935979714.68459
           X            0.99998   0.00386  -0.00508
           Y           -0.00391   0.99994  -0.01048
           Z            0.00504   0.01050   0.99993
 This molecule is an asymmetric top.
 Rotational symmetry number  1.
 Warning -- assumption of classical behavior for rotation
           may cause significant error
 Rotational temperatures (Kelvin)      0.02867     0.01024     0.00892
 Rotational constants (GHZ):           0.59739     0.21333     0.18577
 Zero-point vibrational energy     878370.8 (Joules/Mol)
                                  209.93567 (Kcal/Mol)
 Warning -- explicit consideration of  29 degrees of freedom as
           vibrations may cause significant error
 Vibrational temperatures:     26.88    41.69    56.90    84.23   107.70
          (Kelvin)            133.79   168.03   229.30   243.55   266.27
                              293.09   366.06   381.81   396.73   399.81
                              483.43   504.28   526.16   567.47   584.18
                              606.23   650.33   689.39   714.18   741.50
                              755.74   772.02   779.15   868.52   927.48
                              939.69   957.38   991.08  1112.88  1117.29
                             1167.65  1198.68  1221.39  1235.21  1246.54
                             1295.05  1311.82  1323.24  1345.88  1371.85
                             1387.96  1395.54  1409.81  1423.91  1442.70
                             1493.15  1516.15  1550.11  1602.16  1624.88
                             1670.31  1698.66  1705.31  1724.10  1736.05
                             1739.18  1795.16  1832.02  1853.96  1861.99
                             1879.95  1907.55  1966.82  1993.73  2019.96
                             2037.64  2052.67  2057.19  2063.57  2075.65
                             2077.41  2104.26  2142.00  2150.23  2177.04
                             2181.90  2188.94  2191.20  2211.64  2213.44
                             2245.12  2346.20  2410.50  2442.33  2443.68
                             2563.16  4369.57  4376.95  4387.03  4396.97
                             4433.58  4436.41  4449.93  4459.56  4473.95
                             4497.70  4501.10  4561.21  4566.89  4570.37
                             4591.62  4597.04  4612.20  4947.61  5072.54
                             5176.78

 Zero-point correction=                           0.334554 (Hartree/Particle)
 Thermal correction to Energy=                    0.352885
 Thermal correction to Enthalpy=                  0.353829
 Thermal correction to Gibbs Free Energy=         0.286529
 Sum of electronic and zero-point Energies=           -806.249965
 Sum of electronic and thermal Energies=              -806.231633
 Sum of electronic and thermal Enthalpies=            -806.230689
 Sum of electronic and thermal Free Energies=         -806.297990

                     E (Thermal)             CV                S
                      KCal/Mol        Cal/Mol-Kelvin    Cal/Mol-Kelvin
 Total                  221.439             70.609            141.646
 Electronic               0.000              0.000              0.000
 Translational            0.889              2.981             42.522
 Rotational               0.889              2.981             33.873
 Vibrational            219.661             64.647             65.252
 Vibration     1          0.593              1.986              6.770
 Vibration     2          0.593              1.984              5.898
 Vibration     3          0.594              1.981              5.281
 Vibration     4          0.596              1.974              4.506
 Vibration     5          0.599              1.966              4.022
 Vibration     6          0.602              1.954              3.596
 Vibration     7          0.608              1.935              3.153
 Vibration     8          0.621              1.892              2.557
 Vibration     9          0.625              1.880              2.443
 Vibration    10          0.631              1.860              2.277
 Vibration    11          0.639              1.835              2.099
 Vibration    12          0.665              1.755              1.700
 Vibration    13          0.671              1.737              1.626
 Vibration    14          0.677              1.718              1.560
 Vibration    15          0.679              1.714              1.547
 Vibration    16          0.717              1.604              1.231
 Vibration    17          0.727              1.574              1.164
 Vibration    18          0.739              1.543              1.098
 Vibration    19          0.761              1.482              0.983
 Vibration    20          0.771              1.457              0.941
 Vibration    21          0.784              1.424              0.887
 Vibration    22          0.811              1.356              0.790
 Vibration    23          0.836              1.296              0.712
 Vibration    24          0.852              1.258              0.667
 Vibration    25          0.870              1.216              0.621
 Vibration    26          0.880              1.194              0.598
 Vibration    27          0.892              1.169              0.573
 Vibration    28          0.897              1.158              0.562
 Vibration    29          0.962              1.024              0.443

 Optimization completed.
    -- Stationary point found.
 Normal termination of Gaussian 16 at Sun Dec 13 17:05:01 2020.

 ----------------------------------------------------------------------
 # B3LYP/6-311++G(d,p) empiricaldispersion=gd3bj scf=xqc pop=npa geom=c
 heck
 ----------------------------------------------------------------------

 ---------------------------------------
 CID_115154241_JID_9537_Energie_neutraal
 ---------------------------------------
 Structure from the checkpoint file:  "JID_9537.chk"
 Charge =  0 Multiplicity = 1

 SCF Done:  E(RB3LYP) =  -806.809852016     A.U. after   15 cycles
 Normal termination of Gaussian 16 at Sun Dec 13 17:14:40 2020.

 ----------------------------------------------------------------------
 # B3LYP/6-311++G(d,p) empiricaldispersion=gd3bj scf=xqc pop=npa geom=c
 heck
 ----------------------------------------------------------------------

 -------------------------------------
 CID_115154241_JID_9537_Energie_kation
 -------------------------------------
 Structure from the checkpoint file:  "JID_9537.chk"
 Charge =  1 Multiplicity = 2

 SCF Done:  E(UB3LYP) =  -806.524093122     A.U. after   31 cycles
 Normal termination of Gaussian 16 at Sun Dec 13 17:42:22 2020.
 Gaussian 16:  ES64L-G16RevA.03 25-Dec-2016

 ----------------------------------------------------------------------
 # B3LYP/6-311++G(d,p) empiricaldispersion=gd3bj scf=xqc pop=npa geom=c
 heck
 ----------------------------------------------------------------------

 ------------------------------------
 CID_115154241_JID_9537_Energie_anion
 ------------------------------------
 Structure from the checkpoint file:  "JID_9537.chk"
 Charge = -1 Multiplicity = 2

                         Standard orientation:
 ---------------------------------------------------------------------
 Center     Atomic      Atomic             Coordinates (Angstroms)
 Number     Number       Type             X           Y           Z
 ---------------------------------------------------------------------
      1          6           0       -5.473815   -1.319112   -0.063428
      2          6           0       -4.082011   -0.767648    0.116150
      3          6           0       -3.632895    0.315386   -0.610154
      4          6           0       -2.323263    0.834409   -0.442039
      5          6           0       -1.448585    0.221152    0.507233
      6          6           0       -1.924953   -0.894043    1.245299
      7          6           0       -3.199355   -1.371404    1.054134
      8          6           0       -0.136706    0.734694    0.675652
      9          6           0        0.314577    1.801873   -0.067446
     10          6           0       -0.559068    2.407597   -1.009880
     11          6           0       -1.839448    1.941596   -1.188691
     12          6           0        1.729000    2.347725    0.064809
     13          7           0        2.602617    1.616369    0.963057
     14          6           0        3.146063    0.371229    0.759164
     15          8           0        3.728035   -0.209586    1.668810
     16          6           0        3.025294   -0.216253   -0.640278
     17          6           0        3.081578   -1.747973   -0.641131
     18          6           0        1.884229   -2.359839    0.100426
     19          7           0        3.212740   -2.189351   -2.039122
     20          1           0       -6.040921   -1.279557    0.875016
     21          1           0       -6.032474   -0.757036   -0.817727
     22          1           0       -5.447460   -2.370228   -0.376949
     23          1           0       -4.290555    0.790948   -1.334727
     24          1           0       -1.261090   -1.367468    1.964207
     25          1           0       -3.547431   -2.227604    1.627073
     26          1           0        0.517929    0.259726    1.399530
     27          1           0       -0.201754    3.249522   -1.599123
     28          1           0       -2.498452    2.412646   -1.913814
     29          1           0        2.190877    2.396894   -0.928763
     30          1           0        1.692098    3.383386    0.422697
     31          1           0        2.666575    1.924936    1.925154
     32          1           0        2.101344    0.115020   -1.126684
     33          1           0        3.858519    0.162692   -1.246029
     34          1           0        3.999131   -2.041647   -0.121318
     35          1           0        0.937242   -2.041869   -0.355574
     36          1           0        1.928135   -3.454881    0.062767
     37          1           0        1.878654   -2.060570    1.153429
     38          1           0        3.317631   -3.203632   -2.057234
     39          1           0        2.336376   -2.000041   -2.528892
 ---------------------------------------------------------------------

 SCF Done:  E(UB3LYP) =  -806.807450998     A.U. after   33 cycles
 SCF Done:  E(UB3LYP) =  -806.807451017     a.u. after    2 cycles

 The electronic state is 2-A.
 Alpha  occ. eigenvalues --  -18.98548 -14.23144 -14.20245 -10.17058 -10.10590
 Alpha  occ. eigenvalues --  -10.10265 -10.07362 -10.06073 -10.05487 -10.04815
 Alpha  occ. eigenvalues --  -10.04751 -10.04585 -10.04518 -10.03471 -10.03271
 Alpha  occ. eigenvalues --  -10.02856 -10.02852 -10.02798 -10.02626  -0.93673
 Alpha  occ. eigenvalues --   -0.82049  -0.79715  -0.73971  -0.69892  -0.66679
 Alpha  occ. eigenvalues --   -0.64769  -0.64059  -0.60640  -0.59653  -0.59080
 Alpha  occ. eigenvalues --   -0.55025  -0.51124  -0.49142  -0.46670  -0.46294
 Alpha  occ. eigenvalues --   -0.45249  -0.40937  -0.39236  -0.38652  -0.37898
 Alpha  occ. eigenvalues --   -0.37555  -0.35591  -0.34417  -0.33380  -0.32447
 Alpha  occ. eigenvalues --   -0.31735  -0.31214  -0.31081  -0.30726  -0.30056
 Alpha  occ. eigenvalues --   -0.29505  -0.28387  -0.28161  -0.27341  -0.26745
 Alpha  occ. eigenvalues --   -0.26108  -0.25259  -0.24619  -0.23646  -0.23478
 Alpha  occ. eigenvalues --   -0.21091  -0.19737  -0.19021  -0.15916  -0.15633
 Alpha  occ. eigenvalues --   -0.15459  -0.15231  -0.11101  -0.09099   0.04924
 Alpha virt. eigenvalues --    0.06644   0.07187   0.07625   0.08534   0.09385
 Alpha virt. eigenvalues --    0.09419   0.09880   0.10062   0.10431   0.10834
 Alpha virt. eigenvalues --    0.11137   0.11794   0.12181   0.12528   0.12559

  Beta  occ. eigenvalues --  -18.98540 -14.23133 -14.20235 -10.17045 -10.10581
  Beta  occ. eigenvalues --  -10.10261 -10.07359 -10.06073 -10.05484 -10.04790
  Beta  occ. eigenvalues --  -10.04720 -10.04646 -10.04572 -10.03372 -10.03158
  Beta  occ. eigenvalues --  -10.02634 -10.02629 -10.02532 -10.02380  -0.93656
  Beta  occ. eigenvalues --   -0.82024  -0.79696  -0.73720  -0.69594  -0.66660
  Beta  occ. eigenvalues --   -0.64645  -0.63650  -0.60599  -0.59511  -0.58728
  Beta  occ. eigenvalues --   -0.54817  -0.51079  -0.48687  -0.46510  -0.46083
  Beta  occ. eigenvalues --   -0.45161  -0.40905  -0.39161  -0.38556  -0.37832
  Beta  occ. eigenvalues --   -0.37298  -0.35537  -0.34300  -0.33349  -0.32399
  Beta  occ. eigenvalues --   -0.31633  -0.31094  -0.30988  -0.30650  -0.30011
  Beta  occ. eigenvalues --   -0.29424  -0.28305  -0.28032  -0.27260  -0.26648
  Beta  occ. eigenvalues --   -0.26061  -0.24744  -0.24549  -0.23594  -0.23329
  Beta  occ. eigenvalues --   -0.20957  -0.19641  -0.18018  -0.15876  -0.15528
  Beta  occ. eigenvalues --   -0.15199  -0.14398  -0.10426  -0.07641
  Beta virt. eigenvalues --    0.06700   0.07481   0.07557   0.08643   0.09199
  Beta virt. eigenvalues --    0.09414   0.09649   0.09910   0.10159   0.10416
  Beta virt. eigenvalues --    0.10842   0.11214   0.11782   0.12139   0.12481

 Mulliken charges and spin densities:
               1          2
     1  C   -0.337909  -0.093887
     2  C    0.442373  -0.026673
     3  C   -0.386935   0.141193
     4  C   -0.009795  -0.065472
     5  C    0.099841  -0.017454
     6  C   -0.242326   0.147410
     7  C   -0.511968   0.157608
     8  C   -0.257759   0.197173
     9  C    0.105965   0.287239
    10  C   -0.255876   0.085706
    11  C   -0.096158   0.105181
    12  C    0.200199  -0.799314
    13  N   -0.197756   0.067212
    14  C   -0.526504   0.187110
    15  O   -0.314572   0.006576
    16  C    0.588518  -0.273941
    17  C   -0.681234   0.004103
    18  C   -0.420446  -0.090983
    19  N   -0.254175  -0.028733
    20  H    0.126642   0.004794
    21  H    0.124992   0.011173
    22  H    0.123575   0.009447
    23  H    0.033463  -0.000817
    24  H    0.054709   0.018845
    25  H    0.102705   0.014111
    26  H    0.089492   0.001573
    27  H   -0.021688   0.138386
    28  H    0.061859   0.020660
    29  H    0.118568   0.086529
    30  H   -0.163338   0.328670
    31  H    0.156209   0.149432
    32  H    0.225545  -0.062190
    33  H    0.190806   0.030571
    34  H    0.176907   0.020821
    35  H    0.162217  -0.010601
    36  H    0.028027   0.087410
    37  H    0.189126   0.004271
    38  H    0.135862   0.085099
    39  H    0.140838   0.071761
 Sum of Mulliken charges =  -1.00000   1.00000

 Dipole moment (field-independent basis, Debye):
    X=             -0.0884    Y=             -1.1363    Z=             -1.2109  Tot=              1.6629
 Quadrupole moment (field-independent basis, Debye-Ang):
   XX=           -177.1674   YY=           -138.5217   ZZ=           -139.0930
   XY=              3.1010   XZ=             -1.9695   YZ=             -1.3049

 Summary of Natural Population Analysis:

                                       Natural Population
                Natural  -----------------------------------------------
    Atom  No    Charge         Core      Valence    Rydberg      Total
 -----------------------------------------------------------------------
      C    1   -0.28759      0.99964     2.28358    0.00436     3.28759
      C    2   -0.02335      0.99952     2.01579    0.00804     3.02335
      C    3   -0.05830      0.99948     2.05060    0.00821     3.05830
      C    4   -0.03644      0.99949     2.02892    0.00802     3.03644
      C    5   -0.03496      0.99949     2.02739    0.00808     3.03496
      C    6   -0.05280      0.99954     2.04481    0.00845     3.05280
      C    7   -0.08950      0.99953     2.08115    0.00882     3.08950
      C    8   -0.05969      0.99947     2.05169    0.00853     3.05969
      C    9   -0.03256      0.99950     2.02323    0.00983     3.03256
      C   10   -0.09347      0.99952     2.08543    0.00851     3.09347
      C   11   -0.04433      0.99954     2.03636    0.00842     3.04433
      C   12   -0.09386      0.99958     2.08302    0.01127     3.09386
      N   13   -0.31683      0.99967     2.80676    0.01040     3.81683
      C   14    0.35045      0.99967     1.62741    0.02247     2.64955
      O   15   -0.33233      0.99988     3.32683    0.00563     4.33233
      C   16   -0.24308      0.99956     2.23547    0.00806     3.24308
      C   17   -0.01488      0.99962     2.00418    0.01108     3.01488
      C   18   -0.29761      0.99965     2.29242    0.00554     3.29761
      N   19   -0.42126      0.99977     2.91204    0.00945     3.92126
      H   20    0.09611      0.00000     0.40275    0.00114     0.40389
      H   21    0.09610      0.00000     0.40309    0.00081     0.40390
      H   22    0.09617      0.00000     0.40254    0.00129     0.40383
      H   23    0.08601      0.00000     0.41238    0.00161     0.41399
      H   24    0.08974      0.00000     0.40866    0.00160     0.41026
      H   25    0.08729      0.00000     0.41130    0.00140     0.41271
      H   26    0.09418      0.00000     0.40395    0.00188     0.40582
      H   27    0.08895      0.00000     0.40969    0.00136     0.41105
      H   28    0.08720      0.00000     0.41137    0.00143     0.41280
      H   29    0.09695      0.00000     0.40189    0.00116     0.40305
      H   30    0.10310      0.00000     0.39544    0.00145     0.39690
      H   31    0.19320      0.00000     0.30435    0.00245     0.30680
      H   32    0.11271      0.00000     0.38580    0.00149     0.38729
      H   33    0.11442      0.00000     0.38429    0.00128     0.38558
      H   34    0.09470      0.00000     0.40325    0.00205     0.40530
      H   35    0.10346      0.00000     0.39503    0.00151     0.39654
      H   36    0.09246      0.00000     0.40636    0.00119     0.40754
      H   37    0.10800      0.00000     0.39098    0.00101     0.39200
      H   38    0.17105      0.00000     0.32734    0.00160     0.32895
      H   39    0.17058      0.00000     0.32766    0.00176     0.32942
 =======================================================================
   * Total *   -0.00000     18.99213    49.80520    0.20267    69.00000

 Normal termination of Gaussian 16 at Sun Dec 13 18:38:23 2020.
