 Gaussian 16, Revision A.03,

 -----------------------------------------------------------
 # opt freq B3LYP/6-31G(d) empiricaldispersion=gd3bj scf=xqc
 -----------------------------------------------------------

 -------------------------------
 CID_150002998_JID_7547_neutraal
 -------------------------------
 Symbolic Z-matrix:
 Charge =  0 Multiplicity = 1

 SCF Done:  E(RB3LYP) =  -787.036962105     A.U. after   15 cycles
 SCF Done:  E(RB3LYP) =  -787.042562234     A.U. after   12 cycles
 SCF Done:  E(RB3LYP) =  -787.042251947     A.U. after   14 cycles
 SCF Done:  E(RB3LYP) =  -787.043264996     A.U. after   12 cycles
 SCF Done:  E(RB3LYP) =  -787.046479732     A.U. after   14 cycles
 SCF Done:  E(RB3LYP) =  -787.048665143     A.U. after   12 cycles
 SCF Done:  E(RB3LYP) =  -787.049159547     A.U. after   12 cycles
 SCF Done:  E(RB3LYP) =  -787.051161436     A.U. after   12 cycles
 SCF Done:  E(RB3LYP) =  -787.051551722     A.U. after   12 cycles
 SCF Done:  E(RB3LYP) =  -787.052309619     A.U. after   12 cycles
 SCF Done:  E(RB3LYP) =  -787.057821113     A.U. after   10 cycles
 SCF Done:  E(RB3LYP) =  -787.057837548     A.U. after   10 cycles
 SCF Done:  E(RB3LYP) =  -787.057843440     A.U. after    9 cycles
 SCF Done:  E(RB3LYP) =  -787.057844471     A.U. after    8 cycles
 SCF Done:  E(RB3LYP) =  -787.057844772     A.U. after    7 cycles
 SCF Done:  E(RB3LYP) =  -787.057844879     A.U. after    7 cycles
 Optimization completed.
    -- Stationary point found.
 Normal termination of Gaussian 16 at Fri Dec 11 12:47:55 2020.

 --------------------------------------------------------------------
 #N Geom=AllCheck Guess=TCheck SCRF=Check GenChk RB3LYP/6-31G(d) Freq
 --------------------------------------------------------------------

 Structure from the checkpoint file:  "JID_7547.chk"
 -------------------------------
 CID_150002998_JID_7547_neutraal
 -------------------------------
 Charge =  0 Multiplicity = 1

 SCF Done:  E(RB3LYP) =  -787.057844879     A.U. after    1 cycles

  Exact polarizability: 178.730   2.750 149.799  -0.876  -2.502 127.145
 Approx polarizability: 228.294  -3.253 210.746   1.312  -7.767 189.613

                      1                      2                      3
                      A                      A                      A
 Frequencies --     28.6981                32.9778                37.5634
 Red. masses --      3.7898                 3.5543                 3.1773
 Frc consts  --      0.0018                 0.0023                 0.0026
 IR Inten    --      0.2390                 0.3841                 0.2181

                      4                      5                      6
                      A                      A                      A
 Frequencies --     66.2674                71.1864                99.2566
 Red. masses --      3.5940                 3.6218                 5.9905
 Frc consts  --      0.0093                 0.0108                 0.0348
 IR Inten    --      0.2199                 0.4500                 0.6927

                      7                      8                      9
                      A                      A                      A
 Frequencies --    114.1959               137.0460               193.5274
 Red. masses --      3.5814                 3.5195                 2.5923
 Frc consts  --      0.0275                 0.0389                 0.0572
 IR Inten    --      0.7200                 0.2586                 0.5414

                     10                     11                     12
                      A                      A                      A
 Frequencies --    205.2459               216.3861               240.4476
 Red. masses --      1.1607                 2.3573                 2.4228
 Frc consts  --      0.0288                 0.0650                 0.0825
 IR Inten    --      0.1322                 4.8408                 0.6361

                     13                     14                     15
                      A                      A                      A
 Frequencies --    252.7489               269.1626               281.0794
 Red. masses --      1.2213                 1.1358                 2.0458
 Frc consts  --      0.0460                 0.0485                 0.0952
 IR Inten    --      0.8546                 0.1469                 1.6928

                     16                     17                     18
                      A                      A                      A
 Frequencies --    286.8655               313.0777               348.7160
 Red. masses --      4.1537                 4.2536                 2.1088
 Frc consts  --      0.2014                 0.2456                 0.1511
 IR Inten    --      5.8135                13.8999                 4.5353

                     19                     20                     21
                      A                      A                      A
 Frequencies --    358.4918               375.9228               383.5445
 Red. masses --      2.3301                 2.1076                 2.2293
 Frc consts  --      0.1764                 0.1755                 0.1932
 IR Inten    --      0.2759                 2.5874                 2.5073

                     22                     23                     24
                      A                      A                      A
 Frequencies --    413.8031               430.3507               449.3760
 Red. masses --      2.4216                 2.9025                 2.8918
 Frc consts  --      0.2443                 0.3167                 0.3441
 IR Inten    --      8.3238                 5.1509                 0.5250

                     25                     26                     27
                      A                      A                      A
 Frequencies --    479.7773               490.2026               496.9825
 Red. masses --      2.4469                 1.6889                 1.5430
 Frc consts  --      0.3319                 0.2391                 0.2245
 IR Inten    --     18.6454                28.0790                52.9851

                     28                     29                     30
                      A                      A                      A
 Frequencies --    535.2371               605.0982               711.1154
 Red. masses --      2.3982                 4.6790                 3.3179
 Frc consts  --      0.4048                 1.0094                 0.9885
 IR Inten    --     42.3777                 0.8776                16.7414

                     31                     32                     33
                      A                      A                      A
 Frequencies --    723.6925               742.7522               748.2840
 Red. masses --      2.9550                 9.3271                 3.3641
 Frc consts  --      0.9118                 3.0317                 1.1098
 IR Inten    --      7.5243                 9.5571                 9.1776

                     34                     35                     36
                      A                      A                      A
 Frequencies --    763.4685               793.6561               813.4999
 Red. masses --      3.7623                 1.4972                 1.8867
 Frc consts  --      1.2921                 0.5556                 0.7356
 IR Inten    --      3.9880                 0.3657                24.4414

                     37                     38                     39
                      A                      A                      A
 Frequencies --    849.8110               867.4972               876.6840
 Red. masses --      2.7386                 2.4374                 3.0828
 Frc consts  --      1.1653                 1.0807                 1.3960
 IR Inten    --      0.4486                 1.4209                39.7043

                     40                     41                     42
                      A                      A                      A
 Frequencies --    880.8192               915.2274               934.9237
 Red. masses --      1.4464                 2.9232                 1.6786
 Frc consts  --      0.6611                 1.4427                 0.8645
 IR Inten    --     11.5272                 4.4902                 0.2918

                     43                     44                     45
                      A                      A                      A
 Frequencies --    943.3954               947.0549               976.3212
 Red. masses --      1.4539                 1.7147                 1.2061
 Frc consts  --      0.7624                 0.9062                 0.6774
 IR Inten    --      1.9301                 9.0290                 0.1167

                     46                     47                     48
                      A                      A                      A
 Frequencies --    977.1000               988.4043              1003.1362
 Red. masses --      2.1042                 2.2257                 2.2147
 Frc consts  --      1.1836                 1.2811                 1.3131
 IR Inten    --      1.2211                42.3991                58.7118

                     49                     50                     51
                      A                      A                      A
 Frequencies --   1036.3050              1044.9280              1056.5593
 Red. masses --      1.8381                 2.1139                 1.9298
 Frc consts  --      1.1631                 1.3599                 1.2693
 IR Inten    --     34.3152                 1.5169                 2.9475

                     52                     53                     54
                      A                      A                      A
 Frequencies --   1067.0277              1075.8500              1089.3153
 Red. masses --      1.4485                 1.8008                 2.0021
 Frc consts  --      0.9717                 1.2281                 1.3997
 IR Inten    --      2.5492                 0.2530                 7.4664

                     55                     56                     57
                      A                      A                      A
 Frequencies --   1121.8877              1129.8373              1150.5510
 Red. masses --      1.5976                 1.4513                 1.0577
 Frc consts  --      1.1847                 1.0916                 0.8250
 IR Inten    --      1.3615                35.8980                 0.1972

                     58                     59                     60
                      A                      A                      A
 Frequencies --   1167.4801              1187.5734              1210.4635
 Red. masses --      1.9517                 2.6447                 2.1241
 Frc consts  --      1.5673                 2.1976                 1.8337
 IR Inten    --      8.3674                 7.2031                 8.8626

                     61                     62                     63
                      A                      A                      A
 Frequencies --   1259.7079              1279.6639              1282.5311
 Red. masses --      2.4521                 2.7935                 1.2972
 Frc consts  --      2.2926                 2.6952                 1.2572
 IR Inten    --     26.2112                10.9840                 2.0787

                     64                     65                     66
                      A                      A                      A
 Frequencies --   1299.3248              1312.5609              1319.6352
 Red. masses --      1.2411                 1.2427                 1.2216
 Frc consts  --      1.2345                 1.2614                 1.2533
 IR Inten    --      3.0548                 4.1449                 0.0818

                     67                     68                     69
                      A                      A                      A
 Frequencies --   1323.6838              1366.3344              1369.8171
 Red. masses --      2.3598                 1.3900                 3.1683
 Frc consts  --      2.4361                 1.5289                 3.5027
 IR Inten    --     29.7713                 4.1574               218.4847

                     70                     71                     72
                      A                      A                      A
 Frequencies --   1377.1698              1378.6615              1397.5417
 Red. masses --      1.4506                 2.1722                 1.4395
 Frc consts  --      1.6210                 2.4326                 1.6565
 IR Inten    --      3.1486               111.6821                 0.5954

                     73                     74                     75
                      A                      A                      A
 Frequencies --   1401.6933              1409.7972              1418.6148
 Red. masses --      1.3876                 1.4288                 1.4120
 Frc consts  --      1.6062                 1.6731                 1.6742
 IR Inten    --      4.0121                 2.4634                 5.2628

                     76                     77                     78
                      A                      A                      A
 Frequencies --   1425.5203              1425.6585              1427.7710
 Red. masses --      1.2743                 1.2559                 1.3409
 Frc consts  --      1.5257                 1.5040                 1.6105
 IR Inten    --     12.1491                 8.1602                10.3585

                     79                     80                     81
                      A                      A                      A
 Frequencies --   1444.0231              1452.7389              1504.0432
 Red. masses --      1.2950                 1.2265                 1.0504
 Frc consts  --      1.5910                 1.5250                 1.4000
 IR Inten    --      0.9304                 9.9081                 1.0249

                     82                     83                     84
                      A                      A                      A
 Frequencies --   1509.8584              1512.3740              1514.4337
 Red. masses --      1.0838                 1.0953                 1.0622
 Frc consts  --      1.4557                 1.4761                 1.4354
 IR Inten    --      1.1714                 4.4891                24.6579

                     85                     86                     87
                      A                      A                      A
 Frequencies --   1517.8848              1518.6410              1519.7577
 Red. masses --      1.0661                 1.0861                 1.0637
 Frc consts  --      1.4472                 1.4758                 1.4475
 IR Inten    --      8.0127                 1.4080                 6.8118

                     88                     89                     90
                      A                      A                      A
 Frequencies --   1524.4662              1529.4360              1537.5785
 Red. masses --      1.0887                 1.0605                 1.1035
 Frc consts  --      1.4907                 1.4616                 1.5371
 IR Inten    --      8.7048                 8.0851                 7.7626

                     91                     92                     93
                      A                      A                      A
 Frequencies --   1543.8779              1548.9933              1551.2032
 Red. masses --      1.0913                 1.1193                 1.0626
 Frc consts  --      1.5325                 1.5824                 1.5065
 IR Inten    --      2.5891                20.3997                 6.6507

                     94                     95                     96
                      A                      A                      A
 Frequencies --   1569.0083              1816.9592              3013.1033
 Red. masses --      1.0963                 8.9079                 1.0757
 Frc consts  --      1.5901                17.3267                 5.7538
 IR Inten    --     13.3712               380.3330                 0.9828

                     97                     98                     99
                      A                      A                      A
 Frequencies --   3019.5301              3023.5000              3026.3673
 Red. masses --      1.0694                 1.0651                 1.0649
 Frc consts  --      5.7447                 5.7369                 5.7465
 IR Inten    --     13.2790                46.5787                 7.6360

                    100                    101                    102
                      A                      A                      A
 Frequencies --   3027.6538              3039.3631              3048.0689
 Red. masses --      1.0626                 1.0730                 1.0659
 Frc consts  --      5.7387                 5.8402                 5.8349
 IR Inten    --     44.0931                93.1278                36.6029

                    103                    104                    105
                      A                      A                      A
 Frequencies --   3051.2368              3055.2970              3062.8825
 Red. masses --      1.0362                 1.0350                 1.0364
 Frc consts  --      5.6839                 5.6922                 5.7283
 IR Inten    --     22.4779                16.4533                 6.8625

                    106                    107                    108
                      A                      A                      A
 Frequencies --   3066.9511              3070.1423              3071.5686
 Red. masses --      1.0921                 1.0977                 1.0969
 Frc consts  --      6.0523                 6.0963                 6.0972
 IR Inten    --     62.7312                 5.9787                67.9867

                    109                    110                    111
                      A                      A                      A
 Frequencies --   3075.6907              3080.1110              3098.9244
 Red. masses --      1.1015                 1.1004                 1.1005
 Frc consts  --      6.1394                 6.1506                 6.2270
 IR Inten    --     56.5904                64.4793                60.3570

                    112                    113                    114
                      A                      A                      A
 Frequencies --   3118.5020              3122.4792              3130.3620
 Red. masses --      1.1004                 1.1016                 1.1025
 Frc consts  --      6.3052                 6.3280                 6.3656
 IR Inten    --     11.2171                21.6334                24.8552

                    115                    116                    117
                      A                      A                      A
 Frequencies --   3132.8582              3138.8978              3140.5255
 Red. masses --      1.1029                 1.1024                 1.1026
 Frc consts  --      6.3778                 6.3994                 6.4073
 IR Inten    --     22.0024                30.3574                33.4827

                    118                    119                    120
                      A                      A                      A
 Frequencies --   3391.6800              3525.2448              3625.7024
 Red. masses --      1.0734                 1.0734                 1.0780
 Frc consts  --      7.2753                 7.8597                 8.3494
 IR Inten    --     23.6815                 3.0817                44.2806

 - Thermochemistry -
 -------------------
 Temperature   298.150 Kelvin.  Pressure   1.00000 Atm.
 Atom     1 has atomic number  6 and mass  12.00000

 Molecular mass:   243.19468 amu.
 Principal axes and moments of inertia in atomic units:
                           1         2         3
     Eigenvalues --  2465.555116732.042147974.10089
           X            0.99986   0.01636   0.00225
           Y           -0.01638   0.99983   0.00871
           Z           -0.00211  -0.00874   0.99996
 This molecule is an asymmetric top.
 Rotational symmetry number  1.
 Warning -- assumption of classical behavior for rotation
           may cause significant error
 Rotational temperatures (Kelvin)      0.03513     0.01287     0.01086
 Rotational constants (GHZ):           0.73198     0.26808     0.22633
 Zero-point vibrational energy     997419.2 (Joules/Mol)
                                  238.38890 (Kcal/Mol)
 Warning -- explicit consideration of  29 degrees of freedom as
           vibrations may cause significant error
 Vibrational temperatures:     41.29    47.45    54.05    95.34   102.42
          (Kelvin)            142.81   164.30   197.18   278.44   295.30
                              311.33   345.95   363.65   387.26   404.41
                              412.74   450.45   501.72   515.79   540.87
                              551.83   595.37   619.18   646.55   690.29
                              705.29   715.05   770.09   870.60  1023.14
                             1041.23  1068.65  1076.61  1098.46  1141.89
                             1170.44  1222.69  1248.14  1261.35  1267.30
                             1316.81  1345.15  1357.34  1362.60  1404.71
                             1405.83  1422.09  1443.29  1491.01  1503.42
                             1520.15  1535.21  1547.91  1567.28  1614.15
                             1625.58  1655.39  1679.74  1708.65  1741.59
                             1812.44  1841.15  1845.28  1869.44  1888.48
                             1898.66  1904.49  1965.85  1970.86  1981.44
                             1983.59  2010.75  2016.72  2028.38  2041.07
                             2051.01  2051.20  2054.24  2077.63  2090.17
                             2163.98  2172.35  2175.97  2178.93  2183.90
                             2184.99  2186.59  2193.37  2200.52  2212.23
                             2221.30  2228.66  2231.84  2257.45  2614.20
                             4335.18  4344.43  4350.14  4354.27  4356.12
                             4372.97  4385.49  4390.05  4395.89  4406.80
                             4412.66  4417.25  4419.30  4425.23  4431.59
                             4458.66  4486.83  4492.55  4503.89  4507.48
                             4516.17  4518.52  4879.87  5072.04  5216.58

 Zero-point correction=                           0.379897 (Hartree/Particle)
 Thermal correction to Energy=                    0.398465
 Thermal correction to Enthalpy=                  0.399410
 Thermal correction to Gibbs Free Energy=         0.332524
 Sum of electronic and zero-point Energies=           -786.677948
 Sum of electronic and thermal Energies=              -786.659379
 Sum of electronic and thermal Enthalpies=            -786.658435
 Sum of electronic and thermal Free Energies=         -786.725321

                     E (Thermal)             CV                S
                      KCal/Mol        Cal/Mol-Kelvin    Cal/Mol-Kelvin
 Total                  250.041             71.164            140.774
 Electronic               0.000              0.000              0.000
 Translational            0.889              2.981             42.367
 Rotational               0.889              2.981             33.248
 Vibrational            248.263             65.203             65.159
 Vibration     1          0.593              1.984              5.917
 Vibration     2          0.594              1.983              5.642
 Vibration     3          0.594              1.982              5.384
 Vibration     4          0.598              1.970              4.261
 Vibration     5          0.598              1.968              4.120
 Vibration     6          0.604              1.950              3.469
 Vibration     7          0.607              1.938              3.196
 Vibration     8          0.614              1.916              2.845
 Vibration     9          0.635              1.849              2.194
 Vibration    10          0.640              1.832              2.086
 Vibration    11          0.645              1.816              1.989
 Vibration    12          0.658              1.778              1.800
 Vibration    13          0.664              1.758              1.711
 Vibration    14          0.674              1.730              1.602
 Vibration    15          0.681              1.709              1.527
 Vibration    16          0.684              1.698              1.492
 Vibration    17          0.701              1.649              1.346
 Vibration    18          0.726              1.578              1.172
 Vibration    19          0.733              1.558              1.129
 Vibration    20          0.747              1.521              1.056
 Vibration    21          0.753              1.505              1.025
 Vibration    22          0.777              1.440              0.913
 Vibration    23          0.792              1.404              0.858
 Vibration    24          0.808              1.362              0.798
 Vibration    25          0.836              1.295              0.711
 Vibration    26          0.846              1.272              0.683
 Vibration    27          0.853              1.257              0.666
 Vibration    28          0.890              1.172              0.576
 Vibration    29          0.964              1.021              0.441

                           ! Non-Optimized Parameters !
 Normal termination of Gaussian 16 at Fri Dec 11 13:07:07 2020.

 ----------------------------------------------------------------------
 # B3LYP/6-311++G(d,p) empiricaldispersion=gd3bj scf=xqc pop=npa geom=c
 heck
 ----------------------------------------------------------------------

 ---------------------------------------
 CID_150002998_JID_7547_Energie_neutraal
 ---------------------------------------
 Structure from the checkpoint file:  "JID_7547.chk"
 Charge =  0 Multiplicity = 1

 SCF Done:  E(RB3LYP) =  -787.289230208     A.U. after   14 cycles
 Normal termination of Gaussian 16 at Fri Dec 11 13:14:47 2020.

 ----------------------------------------------------------------------
 # B3LYP/6-311++G(d,p) empiricaldispersion=gd3bj scf=xqc pop=npa geom=c
 heck
 ----------------------------------------------------------------------

 -------------------------------------
 CID_150002998_JID_7547_Energie_kation
 -------------------------------------
 Structure from the checkpoint file:  "JID_7547.chk"
 Charge =  1 Multiplicity = 2

 SCF Done:  E(UB3LYP) =  -786.973663585     A.U. after   23 cycles
 Normal termination of Gaussian 16 at Fri Dec 11 13:31:41 2020.
 Gaussian 16:  ES64L-G16RevA.03 25-Dec-2016

 ----------------------------------------------------------------------
 # B3LYP/6-311++G(d,p) empiricaldispersion=gd3bj scf=xqc pop=npa geom=c
 heck
 ----------------------------------------------------------------------

 ------------------------------------
 CID_150002998_JID_7547_Energie_anion
 ------------------------------------
 Structure from the checkpoint file:  "JID_7547.chk"
 Charge = -1 Multiplicity = 2

                         Standard orientation:
 ---------------------------------------------------------------------
 Center     Atomic      Atomic             Coordinates (Angstroms)
 Number     Number       Type             X           Y           Z
 ---------------------------------------------------------------------
      1          6           0       -2.072201   -2.141048    0.355666
      2          6           0       -2.999554   -0.975091   -0.005442
      3          6           0       -2.907193   -0.651806   -1.505663
      4          6           0       -4.448683   -1.304393    0.380742
      5          7           0       -2.652193    0.176504    0.865932
      6          8           0       -1.326563    0.645447    0.497718
      7          6           0       -1.333021    1.838643   -0.165599
      8          8           0       -2.338055    2.479381   -0.423017
      9          7           0       -0.058743    2.220035   -0.477226
     10          7           0        1.059514    1.365326   -0.396571
     11          6           0        1.613729    1.330740    0.969580
     12          6           0        2.695469    0.258734    1.175667
     13          6           0        2.163395   -1.195266    1.146621
     14          6           0        2.053670   -1.825976   -0.252045
     15          6           0        3.350715   -1.657560   -1.052919
     16          6           0        3.767017   -0.183426   -1.133303
     17          6           0        3.934114    0.420722    0.268282
     18          1           0       -2.346658   -3.037180   -0.211211
     19          1           0       -2.141302   -2.365489    1.424557
     20          1           0       -1.031153   -1.896670    0.124182
     21          1           0       -3.525239    0.215038   -1.760716
     22          1           0       -1.875604   -0.433041   -1.799447
     23          1           0       -3.246585   -1.506812   -2.100387
     24          1           0       -4.529325   -1.487461    1.456521
     25          1           0       -5.126050   -0.483354    0.116485
     26          1           0       -4.783333   -2.199535   -0.152863
     27          1           0       -3.246679    0.969865    0.597363
     28          1           0        0.016281    2.986812   -1.131011
     29          1           0        0.747630    0.433374   -0.655943
     30          1           0        2.049276    2.319195    1.157053
     31          1           0        0.818276    1.172930    1.711758
     32          1           0        3.028840    0.440269    2.207123
     33          1           0        2.858158   -1.814481    1.730775
     34          1           0        1.196058   -1.244615    1.662659
     35          1           0        1.221292   -1.385443   -0.819065
     36          1           0        1.804057   -2.889408   -0.148135
     37          1           0        3.233319   -2.080043   -2.058484
     38          1           0        4.149644   -2.232533   -0.561481
     39          1           0        3.011900    0.385689   -1.687364
     40          1           0        4.709525   -0.089277   -1.687277
     41          1           0        4.197520    1.483190    0.194024
     42          1           0        4.782311   -0.078341    0.758815
 ---------------------------------------------------------------------

 SCF Done:  E(UB3LYP) =  -787.276852852     A.U. after   29 cycles

 The electronic state is 2-A.
 Alpha  occ. eigenvalues --  -19.10238 -19.02379 -14.28235 -14.27434 -14.25440
 Alpha  occ. eigenvalues --  -10.24166 -10.12872 -10.10143 -10.08194 -10.07953
 Alpha  occ. eigenvalues --  -10.07111 -10.07083 -10.06989 -10.06744 -10.06657
 Alpha  occ. eigenvalues --  -10.06638 -10.06289  -1.04669  -0.95107  -0.91309
 Alpha  occ. eigenvalues --   -0.79756  -0.75689  -0.72359  -0.68089  -0.65939
 Alpha  occ. eigenvalues --   -0.64622  -0.60934  -0.60313  -0.57789  -0.54267
 Alpha  occ. eigenvalues --   -0.51567  -0.50037  -0.48716  -0.47300  -0.45197
 Alpha  occ. eigenvalues --   -0.42842  -0.40704  -0.39419  -0.39273  -0.37687
 Alpha  occ. eigenvalues --   -0.36766  -0.36079  -0.35302  -0.34716  -0.33878
 Alpha  occ. eigenvalues --   -0.33387  -0.32164  -0.31963  -0.30452  -0.29933
 Alpha  occ. eigenvalues --   -0.28758  -0.28332  -0.28112  -0.27739  -0.27282
 Alpha  occ. eigenvalues --   -0.26862  -0.25351  -0.24966  -0.24728  -0.24186
 Alpha  occ. eigenvalues --   -0.22070  -0.21790  -0.20822  -0.20502  -0.19222
 Alpha  occ. eigenvalues --   -0.17045  -0.16018   0.04056
 Alpha virt. eigenvalues --    0.05647   0.06683   0.06938   0.07686   0.08275
 Alpha virt. eigenvalues --    0.08618   0.08983   0.09410   0.09895   0.10097
 Alpha virt. eigenvalues --    0.10396   0.10673   0.11021   0.11763   0.12368

  Beta  occ. eigenvalues --  -19.10233 -19.02373 -14.28225 -14.27427 -14.25431
  Beta  occ. eigenvalues --  -10.24165 -10.12870 -10.10131 -10.08189 -10.07928
  Beta  occ. eigenvalues --  -10.07083 -10.07066 -10.06972 -10.06725 -10.06632
  Beta  occ. eigenvalues --  -10.06620 -10.06278  -1.04662  -0.95099  -0.91297
  Beta  occ. eigenvalues --   -0.79743  -0.75666  -0.72332  -0.68065  -0.65906
  Beta  occ. eigenvalues --   -0.64588  -0.60890  -0.60266  -0.57754  -0.54246
  Beta  occ. eigenvalues --   -0.51516  -0.49998  -0.48697  -0.47263  -0.45161
  Beta  occ. eigenvalues --   -0.42811  -0.40679  -0.39395  -0.39238  -0.37656
  Beta  occ. eigenvalues --   -0.36742  -0.36054  -0.35274  -0.34689  -0.33851
  Beta  occ. eigenvalues --   -0.33355  -0.32143  -0.31940  -0.30419  -0.29906
  Beta  occ. eigenvalues --   -0.28728  -0.28304  -0.28082  -0.27708  -0.27254
  Beta  occ. eigenvalues --   -0.26838  -0.25321  -0.24940  -0.24699  -0.24165
  Beta  occ. eigenvalues --   -0.22056  -0.21759  -0.20787  -0.20472  -0.19207
  Beta  occ. eigenvalues --   -0.17030  -0.16002
  Beta virt. eigenvalues --    0.06014   0.06430   0.07116   0.07507   0.08148
  Beta virt. eigenvalues --    0.08790   0.08965   0.09418   0.09666   0.10147
  Beta virt. eigenvalues --    0.10295   0.10679   0.10879   0.11208   0.11914

 Mulliken charges and spin densities:
               1          2
     1  C    0.575017  -1.023263
     2  C   -1.337399   1.132432
     3  C    0.648413  -1.095667
     4  C   -0.063301  -0.436816
     5  N    0.010449  -0.062331
     6  O    0.120635   0.011690
     7  C    0.281364  -0.220616
     8  O   -0.288105   0.002272
     9  N   -0.418840   0.011930
    10  N    0.038940   0.071201
    11  C    0.172346  -0.909353
    12  C   -0.688323   1.089918
    13  C    0.539578  -1.144039
    14  C   -0.386703   0.410696
    15  C    0.491457  -1.162260
    16  C   -0.326987   0.100810
    17  C    0.527589  -0.919567
    18  H   -0.167728   0.309701
    19  H   -0.047485   0.209136
    20  H    0.217917  -0.140969
    21  H    0.174386  -0.006931
    22  H   -0.392742   0.555822
    23  H   -0.262294   0.423288
    24  H    0.032639   0.135862
    25  H   -0.131599   0.266184
    26  H   -0.054872   0.212070
    27  H    0.285997  -0.006823
    28  H    0.155344   0.176217
    29  H    0.440320  -0.265143
    30  H   -0.048712   0.221777
    31  H    0.122752   0.054469
    32  H   -0.204537   0.424631
    33  H   -0.299737   0.480125
    34  H    0.190764  -0.044799
    35  H   -0.029828   0.126643
    36  H   -0.160693   0.355524
    37  H   -0.306221   0.472838
    38  H    0.076712   0.054703
    39  H    0.048991   0.115638
    40  H   -0.202759   0.379058
    41  H   -0.088361   0.235194
    42  H   -0.244383   0.398747
 Sum of Mulliken charges =  -1.00000   1.00000

 Dipole moment (field-independent basis, Debye):
    X=             -2.1068    Y=              3.2091    Z=              0.7746  Tot=              3.9162
 Quadrupole moment (field-independent basis, Debye-Ang):
   XX=           -196.6302   YY=           -158.9736   ZZ=           -148.7382
   XY=              0.5032   XZ=             -4.4412   YZ=             -3.9530

 Summary of Natural Population Analysis:

                                       Natural Population
                Natural  -----------------------------------------------
    Atom  No    Charge         Core      Valence    Rydberg      Total
 -----------------------------------------------------------------------
      C    1   -0.28842      0.99961     2.28123    0.00758     3.28842
      C    2    0.04577      0.99959     1.94180    0.01284     2.95423
      C    3   -0.29748      0.99961     2.29043    0.00744     3.29748
      C    4   -0.28836      0.99960     2.28189    0.00687     3.28836
      N    5   -0.16968      0.99969     2.65850    0.01148     3.66968
      O    6   -0.22264      0.99987     3.21475    0.00802     4.22264
      C    7    0.45016      0.99971     1.52647    0.02366     2.54984
      O    8   -0.33475      0.99987     3.32917    0.00572     4.33475
      N    9   -0.23762      0.99966     2.72551    0.01246     3.73762
      N   10   -0.24645      0.99974     2.73434    0.01237     3.74645
      C   11   -0.08320      0.99959     2.07253    0.01109     3.08320
      C   12   -0.11591      0.99958     2.10497    0.01136     3.11591
      C   13   -0.19301      0.99961     2.18414    0.00926     3.19301
      C   14   -0.18911      0.99962     2.18090    0.00858     3.18911
      C   15   -0.18852      0.99963     2.18115    0.00774     3.18852
      C   16   -0.19485      0.99962     2.18713    0.00809     3.19485
      C   17   -0.18811      0.99961     2.17906    0.00944     3.18811
      H   18    0.10183      0.00000     0.39700    0.00117     0.39817
      H   19    0.10341      0.00000     0.39545    0.00114     0.39659
      H   20    0.10460      0.00000     0.39360    0.00180     0.39540
      H   21    0.10404      0.00000     0.39498    0.00098     0.39596
      H   22    0.10147      0.00000     0.39680    0.00173     0.39853
      H   23    0.10556      0.00000     0.39336    0.00108     0.39444
      H   24    0.10539      0.00000     0.39362    0.00099     0.39461
      H   25    0.09921      0.00000     0.39992    0.00087     0.40079
      H   26    0.10642      0.00000     0.39266    0.00092     0.39358
      H   27    0.18085      0.00000     0.31637    0.00278     0.31915
      H   28    0.19702      0.00000     0.30153    0.00145     0.30298
      H   29    0.17538      0.00000     0.31972    0.00490     0.32462
      H   30    0.09306      0.00000     0.40560    0.00134     0.40694
      H   31    0.09102      0.00000     0.40732    0.00166     0.40898
      H   32    0.10332      0.00000     0.39522    0.00146     0.39668
      H   33    0.09881      0.00000     0.39992    0.00127     0.40119
      H   34    0.10181      0.00000     0.39680    0.00140     0.39819
      H   35    0.08383      0.00000     0.41389    0.00228     0.41617
      H   36    0.10166      0.00000     0.39708    0.00126     0.39834
      H   37    0.09902      0.00000     0.39988    0.00110     0.40098
      H   38    0.09231      0.00000     0.40629    0.00140     0.40769
      H   39    0.10005      0.00000     0.39796    0.00199     0.39995
      H   40    0.09665      0.00000     0.40232    0.00104     0.40335
      H   41    0.09909      0.00000     0.39983    0.00108     0.40091
      H   42    0.09642      0.00000     0.40225    0.00134     0.40358
 =======================================================================
   * Total *    0.00000     16.99422    49.79335    0.21243    67.00000

 Normal termination of Gaussian 16 at Fri Dec 11 13:52:35 2020.
