 Gaussian 16, Revision A.03,

 -----------------------------------------------------------
 # opt freq B3LYP/6-31G(d) empiricaldispersion=gd3bj scf=xqc
 -----------------------------------------------------------

 -------------------------------
 CID_148152229_JID_4839_neutraal
 -------------------------------
 Symbolic Z-matrix:
 Charge =  0 Multiplicity = 1

 SCF Done:  E(RB3LYP) =  -973.670068583     A.U. after   15 cycles
 SCF Done:  E(RB3LYP) =  -973.676419874     A.U. after   12 cycles
 SCF Done:  E(RB3LYP) =  -973.676942785     A.U. after   12 cycles
 SCF Done:  E(RB3LYP) =  -973.677018715     A.U. after   11 cycles
 SCF Done:  E(RB3LYP) =  -973.677081335     A.U. after   11 cycles
 SCF Done:  E(RB3LYP) =  -973.677114599     A.U. after   11 cycles
 SCF Done:  E(RB3LYP) =  -973.677135956     A.U. after   12 cycles
 SCF Done:  E(RB3LYP) =  -973.677142837     A.U. after   11 cycles
 SCF Done:  E(RB3LYP) =  -973.677148926     A.U. after   10 cycles
 SCF Done:  E(RB3LYP) =  -973.677153891     A.U. after   10 cycles
 SCF Done:  E(RB3LYP) =  -973.677155842     A.U. after    9 cycles
 SCF Done:  E(RB3LYP) =  -973.677156778     A.U. after    9 cycles
 SCF Done:  E(RB3LYP) =  -973.677157187     A.U. after    8 cycles
 SCF Done:  E(RB3LYP) =  -973.677157300     A.U. after    7 cycles
 SCF Done:  E(RB3LYP) =  -973.677157319     A.U. after    6 cycles
 Optimization completed.
    -- Stationary point found.
 Normal termination of Gaussian 16 at Thu Dec 10 10:43:14 2020.

 --------------------------------------------------------------------
 #N Geom=AllCheck Guess=TCheck SCRF=Check GenChk RB3LYP/6-31G(d) Freq
 --------------------------------------------------------------------

 Structure from the checkpoint file:  "JID_4839.chk"
 -------------------------------
 CID_148152229_JID_4839_neutraal
 -------------------------------
 Charge =  0 Multiplicity = 1

 SCF Done:  E(RB3LYP) =  -973.677157319     A.U. after    1 cycles

  Exact polarizability: 165.836  14.864 138.118 -12.039  -7.412 102.274
 Approx polarizability: 258.553  29.864 201.831 -28.434 -24.329 158.431

                      1                      2                      3
                      A                      A                      A
 Frequencies --     23.8692                26.7209                56.2174
 Red. masses --      3.1688                 3.0562                 3.5024
 Frc consts  --      0.0011                 0.0013                 0.0065
 IR Inten    --      0.0214                 0.0779                 0.1183

                      4                      5                      6
                      A                      A                      A
 Frequencies --     62.4360                77.9623               102.9392
 Red. masses --      8.3081                 3.5093                 2.5660
 Frc consts  --      0.0191                 0.0126                 0.0160
 IR Inten    --      0.4381                 0.3007                 3.7869

                      7                      8                      9
                      A                      A                      A
 Frequencies --    114.7699               142.0152               187.8364
 Red. masses --      3.3539                 2.8555                 1.1515
 Frc consts  --      0.0260                 0.0339                 0.0239
 IR Inten    --      5.6868                 0.5813                 0.7359

                     10                     11                     12
                      A                      A                      A
 Frequencies --    206.8233               256.3743               269.8435
 Red. masses --      1.7924                 2.3781                 2.2537
 Frc consts  --      0.0452                 0.0921                 0.0967
 IR Inten    --      1.8245                 1.7701                 1.4051

                     13                     14                     15
                      A                      A                      A
 Frequencies --    308.2232               329.6121               369.1606
 Red. masses --      2.3604                 3.6147                 4.7777
 Frc consts  --      0.1321                 0.2314                 0.3836
 IR Inten    --      1.4430                 1.6932                 6.4779

                     16                     17                     18
                      A                      A                      A
 Frequencies --    406.0112               416.0590               457.7061
 Red. masses --      3.4295                 2.1584                 2.8903
 Frc consts  --      0.3331                 0.2201                 0.3568
 IR Inten    --      1.8592                 2.7571                13.8239

                     19                     20                     21
                      A                      A                      A
 Frequencies --    483.2387               500.6920               543.4453
 Red. masses --      2.5260                 9.9272                 3.5640
 Frc consts  --      0.3475                 1.4663                 0.6201
 IR Inten    --      1.2224                 8.3761                18.0810

                     22                     23                     24
                      A                      A                      A
 Frequencies --    584.4866               610.9880               632.8069
 Red. masses --      3.7673                 6.8608                 4.9817
 Frc consts  --      0.7583                 1.5090                 1.1753
 IR Inten    --      1.6084                11.5732                 0.2790

                     25                     26                     27
                      A                      A                      A
 Frequencies --    654.9092               741.7876               785.0154
 Red. masses --      2.1183                 1.6014                 2.7212
 Frc consts  --      0.5353                 0.5192                 0.9880
 IR Inten    --     16.5653                 5.6981                 5.6737

                     28                     29                     30
                      A                      A                      A
 Frequencies --    794.8078               837.4828               870.4371
 Red. masses --      1.6305                 3.0392                 2.8016
 Frc consts  --      0.6069                 1.2559                 1.2506
 IR Inten    --      9.9805                 3.4841                 4.4297

                     31                     32                     33
                      A                      A                      A
 Frequencies --    887.7321               925.8722               931.6003
 Red. masses --      2.5659                 1.3042                 1.6190
 Frc consts  --      1.1914                 0.6587                 0.8279
 IR Inten    --      8.0777                 4.6883                10.7029

                     34                     35                     36
                      A                      A                      A
 Frequencies --    933.1389               984.1425               993.7855
 Red. masses --      1.3820                 2.1941                 1.6027
 Frc consts  --      0.7090                 1.2521                 0.9326
 IR Inten    --     40.5203                 8.5990                 2.9980

                     37                     38                     39
                      A                      A                      A
 Frequencies --   1006.2793              1050.4543              1078.1422
 Red. masses --      2.3130                 2.0608                 1.7290
 Frc consts  --      1.3800                 1.3398                 1.1841
 IR Inten    --     25.8581                 4.4076                 5.3922

                     40                     41                     42
                      A                      A                      A
 Frequencies --   1090.6394              1099.7813              1127.4386
 Red. masses --      2.7277                 2.4751                 1.9571
 Frc consts  --      1.9117                 1.7638                 1.4657
 IR Inten    --     11.0448                14.1088                 8.4163

                     43                     44                     45
                      A                      A                      A
 Frequencies --   1158.6772              1177.6651              1224.6369
 Red. masses --      1.1607                 1.8628                 1.8443
 Frc consts  --      0.9181                 1.5221                 1.6296
 IR Inten    --      0.1664                 0.9037                47.6704

                     46                     47                     48
                      A                      A                      A
 Frequencies --   1265.4874              1287.0019              1313.0049
 Red. masses --      1.3789                 1.1912                 1.2263
 Frc consts  --      1.3011                 1.1625                 1.2456
 IR Inten    --     31.2635                 0.2576                 0.3985

                     49                     50                     51
                      A                      A                      A
 Frequencies --   1317.7683              1353.8588              1389.0736
 Red. masses --      2.7521                 2.4597                 1.3716
 Frc consts  --      2.8158                 2.6563                 1.5593
 IR Inten    --      4.4165               170.7028                59.4452

                     52                     53                     54
                      A                      A                      A
 Frequencies --   1398.6648              1406.4678              1415.8765
 Red. masses --      1.3929                 1.4936                 2.6526
 Frc consts  --      1.6054                 1.7407                 3.1331
 IR Inten    --     37.0481                15.4913               136.2081

                     55                     56                     57
                      A                      A                      A
 Frequencies --   1442.7352              1444.3123              1474.3073
 Red. masses --      1.2684                 1.2509                 1.1866
 Frc consts  --      1.5555                 1.5374                 1.5196
 IR Inten    --      7.4205                 3.2994                11.0172

                     58                     59                     60
                      A                      A                      A
 Frequencies --   1490.8023              1493.2171              1509.3374
 Red. masses --      1.0930                 1.0990                 1.0792
 Frc consts  --      1.4313                 1.4437                 1.4485
 IR Inten    --      3.1465                12.1338                 7.6746

                     61                     62                     63
                      A                      A                      A
 Frequencies --   1511.5130              1522.6446              1523.2568
 Red. masses --      1.0563                 1.0688                 1.0665
 Frc consts  --      1.4219                 1.4600                 1.4580
 IR Inten    --     21.1719                 8.2385                12.5971

                     64                     65                     66
                      A                      A                      A
 Frequencies --   1531.5888              1541.6909              1744.3697
 Red. masses --      1.0760                 1.0522                 5.1082
 Frc consts  --      1.4871                 1.4735                 9.1579
 IR Inten    --      6.3518                 5.9686                 0.7533

                     67                     68                     69
                      A                      A                      A
 Frequencies --   1752.6491              1818.2821              2982.2324
 Red. masses --     10.9109                11.8460                 1.0683
 Frc consts  --     19.7470                23.0752                 5.5977
 IR Inten    --    628.8817               139.4173                37.2684

                     70                     71                     72
                      A                      A                      A
 Frequencies --   3044.0944              3044.4169              3047.8835
 Red. masses --      1.0621                 1.0386                 1.0375
 Frc consts  --      5.7985                 5.6718                 5.6786
 IR Inten    --     18.8145                18.9813                20.4912

                     73                     74                     75
                      A                      A                      A
 Frequencies --   3065.6421              3084.0080              3094.3689
 Red. masses --      1.0904                 1.1023                 1.0790
 Frc consts  --      6.0380                 6.1769                 6.0870
 IR Inten    --     62.5050                21.3005                 3.8301

                     76                     77                     78
                      A                      A                      A
 Frequencies --   3095.8893              3099.4942              3113.3496
 Red. masses --      1.0794                 1.0578                 1.1015
 Frc consts  --      6.0955                 5.9875                 6.2908
 IR Inten    --     24.8138                11.0344                40.6363

                     79                     80                     81
                      A                      A                      A
 Frequencies --   3129.6751              3134.5606              3149.6955
 Red. masses --      1.1022                 1.1021                 1.1077
 Frc consts  --      6.3607                 6.3799                 6.4746
 IR Inten    --     32.5012                21.0781                 0.2988

                     82                     83                     84
                      A                      A                      A
 Frequencies --   3161.7432              3164.6239              3245.1429
 Red. masses --      1.1005                 1.0636                 1.1161
 Frc consts  --      6.4815                 6.2760                 6.9252
 IR Inten    --      2.6248                 7.9724                13.6296

 - Thermochemistry -
 -------------------
 Temperature   298.150 Kelvin.  Pressure   1.00000 Atm.
 Atom     1 has atomic number  6 and mass  12.00000

 Molecular mass:   212.09834 amu.
 Principal axes and moments of inertia in atomic units:
                           1         2         3
     Eigenvalues --  2520.667563228.686404877.77325
           X            1.00000   0.00095   0.00006
           Y           -0.00095   0.99994   0.01130
           Z           -0.00005  -0.01130   0.99994
 This molecule is an asymmetric top.
 Rotational symmetry number  1.
 Warning -- assumption of classical behavior for rotation
           may cause significant error
 Rotational temperatures (Kelvin)      0.03436     0.02683     0.01776
 Rotational constants (GHZ):           0.71598     0.55897     0.36999
 Zero-point vibrational energy     664701.4 (Joules/Mol)
                                  158.86745 (Kcal/Mol)
 Warning -- explicit consideration of  23 degrees of freedom as
           vibrations may cause significant error
 Vibrational temperatures:     34.34    38.45    80.88    89.83   112.17
          (Kelvin)            148.11   165.13   204.33   270.25   297.57
                              368.87   388.24   443.46   474.24   531.14
                              584.16   598.62   658.54   695.27   720.38
                              781.90   840.95   879.08   910.47   942.27
                             1067.27  1129.46  1143.55  1204.95  1252.36
                             1277.25  1332.12  1340.37  1342.58  1415.96
                             1429.84  1447.81  1511.37  1551.21  1569.19
                             1582.34  1622.13  1667.08  1694.40  1761.98
                             1820.75  1851.71  1889.12  1895.97  1947.90
                             1998.57  2012.37  2023.59  2037.13  2075.77
                             2078.04  2121.20  2144.93  2148.41  2171.60
                             2174.73  2190.75  2191.63  2203.61  2218.15
                             2509.76  2521.67  2616.10  4290.77  4379.77
                             4380.24  4385.22  4410.78  4437.20  4452.11
                             4454.29  4459.48  4479.42  4502.90  4509.93
                             4531.71  4549.04  4553.19  4669.04

 Zero-point correction=                           0.253171 (Hartree/Particle)
 Thermal correction to Energy=                    0.268620
 Thermal correction to Enthalpy=                  0.269564
 Thermal correction to Gibbs Free Energy=         0.208375
 Sum of electronic and zero-point Energies=           -973.423986
 Sum of electronic and thermal Energies=              -973.408537
 Sum of electronic and thermal Enthalpies=            -973.407593
 Sum of electronic and thermal Free Energies=         -973.468782

                     E (Thermal)             CV                S
                      KCal/Mol        Cal/Mol-Kelvin    Cal/Mol-Kelvin
 Total                  168.561             55.919            128.783
 Electronic               0.000              0.000              0.000
 Translational            0.889              2.981             41.959
 Rotational               0.889              2.981             32.051
 Vibrational            166.784             49.958             54.773
 Vibration     1          0.593              1.985              6.283
 Vibration     2          0.593              1.984              6.059
 Vibration     3          0.596              1.975              4.586
 Vibration     4          0.597              1.972              4.379
 Vibration     5          0.599              1.964              3.942
 Vibration     6          0.605              1.947              3.398
 Vibration     7          0.608              1.937              3.187
 Vibration     8          0.615              1.911              2.777
 Vibration     9          0.633              1.857              2.249
 Vibration    10          0.641              1.830              2.072
 Vibration    11          0.666              1.752              1.686
 Vibration    12          0.674              1.729              1.597
 Vibration    13          0.698              1.658              1.372
 Vibration    14          0.712              1.616              1.262
 Vibration    15          0.741              1.536              1.083
 Vibration    16          0.771              1.457              0.941
 Vibration    17          0.779              1.435              0.905
 Vibration    18          0.816              1.344              0.773
 Vibration    19          0.839              1.287              0.701
 Vibration    20          0.856              1.248              0.656
 Vibration    21          0.899              1.154              0.558
 Vibration    22          0.941              1.065              0.477
 Vibration    23          0.970              1.009              0.431

 Optimization completed.
    -- Stationary point found.
 Normal termination of Gaussian 16 at Thu Dec 10 10:51:57 2020.

 ----------------------------------------------------------------------
 # B3LYP/6-311++G(d,p) empiricaldispersion=gd3bj scf=xqc pop=npa geom=c
 heck
 ----------------------------------------------------------------------

 ---------------------------------------
 CID_148152229_JID_4839_Energie_neutraal
 ---------------------------------------
 Structure from the checkpoint file:  "JID_4839.chk"
 Charge =  0 Multiplicity = 1

 SCF Done:  E(RB3LYP) =  -973.863912179     A.U. after   15 cycles
 Normal termination of Gaussian 16 at Thu Dec 10 10:55:30 2020.

 ----------------------------------------------------------------------
 # B3LYP/6-311++G(d,p) empiricaldispersion=gd3bj scf=xqc pop=npa geom=c
 heck
 ----------------------------------------------------------------------

 -------------------------------------
 CID_148152229_JID_4839_Energie_kation
 -------------------------------------
 Structure from the checkpoint file:  "JID_4839.chk"
 Charge =  1 Multiplicity = 2

 SCF Done:  E(UB3LYP) =  -973.553003216     A.U. after   28 cycles
 Normal termination of Gaussian 16 at Thu Dec 10 11:04:02 2020.
 Gaussian 16:  ES64L-G16RevA.03 25-Dec-2016

 ----------------------------------------------------------------------
 # B3LYP/6-311++G(d,p) empiricaldispersion=gd3bj scf=xqc pop=npa geom=c
 heck
 ----------------------------------------------------------------------

 ------------------------------------
 CID_148152229_JID_4839_Energie_anion
 ------------------------------------
 Structure from the checkpoint file:  "JID_4839.chk"
 Charge = -1 Multiplicity = 2

                         Standard orientation:
 ---------------------------------------------------------------------
 Center     Atomic      Atomic             Coordinates (Angstroms)
 Number     Number       Type             X           Y           Z
 ---------------------------------------------------------------------
      1          6           0        2.956754    0.462761    1.385871
      2          6           0        3.477245    0.182155   -0.024830
      3          6           0        2.561477   -0.758260   -0.820231
      4          7           0        1.248626   -0.164130   -0.975215
      5          6           0        0.221422   -0.720166   -0.498726
      6          7           0       -1.041032   -0.121256   -0.576900
      7          6           0       -2.123869   -0.800021   -0.067157
      8          8           0       -3.265639   -0.377792   -0.052817
      9          6           0       -1.720713   -2.161119    0.488618
     10         16           0        0.094555   -2.321407    0.342721
     11          6           0       -1.172666    1.247438   -1.091851
     12          6           0       -0.782613    2.284148   -0.060893
     13          6           0        0.233319    3.118898   -0.290732
     14          6           0       -1.601816    2.310299    1.202263
     15          1           0        1.990121    0.974894    1.343649
     16          1           0        3.652790    1.098509    1.943865
     17          1           0        2.823208   -0.468005    1.950928
     18          1           0        3.573224    1.124491   -0.578031
     19          1           0        4.476749   -0.269635    0.018859
     20          1           0        2.981911   -0.918219   -1.821099
     21          1           0        2.527467   -1.742197   -0.322606
     22          1           0       -2.036703   -2.226210    1.532292
     23          1           0       -2.229115   -2.946049   -0.077324
     24          1           0       -0.546217    1.325306   -1.980720
     25          1           0       -2.225439    1.354258   -1.368828
     26          1           0        0.507888    3.890694    0.423773
     27          1           0        0.828245    3.052774   -1.196767
     28          1           0       -2.672037    2.400806    0.981519
     29          1           0       -1.481640    1.377231    1.767641
     30          1           0       -1.302606    3.137102    1.852664
 ---------------------------------------------------------------------

 SCF Done:  E(UB3LYP) =  -973.849433790     A.U. after   33 cycles
 SCF Done:  E(UB3LYP) =  -973.849433790     a.u. after    1 cycles

 The electronic state is 2-A.
 Alpha  occ. eigenvalues --  -88.76573 -19.01345 -14.27538 -14.20174 -10.19713
 Alpha  occ. eigenvalues --  -10.17769 -10.12028 -10.11931 -10.10163 -10.09382
 Alpha  occ. eigenvalues --  -10.07168 -10.06936 -10.06903 -10.05540  -7.85187
 Alpha  occ. eigenvalues --   -5.81550  -5.81220  -5.80576  -0.96801  -0.89471
 Alpha  occ. eigenvalues --   -0.81661  -0.73673  -0.70211  -0.68367  -0.61466
 Alpha  occ. eigenvalues --   -0.61293  -0.59565  -0.58035  -0.53138  -0.48047
 Alpha  occ. eigenvalues --   -0.46907  -0.43240  -0.41083  -0.39813  -0.38062
 Alpha  occ. eigenvalues --   -0.36869  -0.36432  -0.36092  -0.33999  -0.33912
 Alpha  occ. eigenvalues --   -0.32638  -0.31623  -0.30688  -0.30177  -0.28873
 Alpha  occ. eigenvalues --   -0.28354  -0.27587  -0.26985  -0.26030  -0.24681
 Alpha  occ. eigenvalues --   -0.24391  -0.24151  -0.19227  -0.16906  -0.16530
 Alpha  occ. eigenvalues --   -0.15916  -0.14311   0.04476
 Alpha virt. eigenvalues --    0.06363   0.06616   0.07385   0.07704   0.08630
 Alpha virt. eigenvalues --    0.08845   0.09309   0.09390   0.09689   0.10620
 Alpha virt. eigenvalues --    0.10820   0.11359   0.11507   0.12397   0.12660

  Beta  occ. eigenvalues --  -88.76561 -19.01322 -14.27537 -14.20159 -10.19687
  Beta  occ. eigenvalues --  -10.17732 -10.12019 -10.11869 -10.10158 -10.09382
  Beta  occ. eigenvalues --  -10.07141 -10.06916 -10.06886 -10.05517  -7.85173
  Beta  occ. eigenvalues --   -5.81521  -5.81210  -5.80568  -0.96757  -0.89432
  Beta  occ. eigenvalues --   -0.81629  -0.73635  -0.70169  -0.68332  -0.61404
  Beta  occ. eigenvalues --   -0.61245  -0.59527  -0.57963  -0.53076  -0.47993
  Beta  occ. eigenvalues --   -0.46857  -0.43187  -0.41055  -0.39733  -0.38011
  Beta  occ. eigenvalues --   -0.36836  -0.36373  -0.36046  -0.33927  -0.33874
  Beta  occ. eigenvalues --   -0.32611  -0.31589  -0.30635  -0.30143  -0.28833
  Beta  occ. eigenvalues --   -0.28308  -0.27507  -0.26879  -0.25994  -0.24644
  Beta  occ. eigenvalues --   -0.24337  -0.24118  -0.19183  -0.16883  -0.16490
  Beta  occ. eigenvalues --   -0.15887  -0.14251
  Beta virt. eigenvalues --    0.06554   0.06891   0.07600   0.07809   0.08127
  Beta virt. eigenvalues --    0.08919   0.09139   0.09553   0.09727   0.10108
  Beta virt. eigenvalues --    0.10817   0.11129   0.11604   0.11842   0.12693

 Mulliken charges and spin densities:
               1          2
     1  C    0.236551  -0.706804
     2  C   -0.312493   0.032930
     3  C    0.276706  -0.568662
     4  N   -0.136318   0.145685
     5  C   -0.907964   0.495410
     6  N    0.359245   0.055631
     7  C    0.337128  -0.075892
     8  O   -0.379912   0.069804
     9  C    0.781993  -1.426086
    10  S    0.873105  -0.887641
    11  C   -0.468429  -0.012445
    12  C   -0.585507   1.514016
    13  C    0.476441  -1.211228
    14  C    0.360391  -0.980830
    15  H   -0.028804   0.158447
    16  H   -0.288773   0.430361
    17  H   -0.052511   0.187590
    18  H    0.154329  -0.016073
    19  H   -0.340065   0.476782
    20  H   -0.257950   0.424253
    21  H    0.090997   0.003078
    22  H   -0.211035   0.453071
    23  H   -0.777973   1.040443
    24  H   -0.049770   0.265554
    25  H    0.065817   0.158480
    26  H   -0.141209   0.259787
    27  H    0.102062   0.036665
    28  H    0.072107   0.100220
    29  H    0.040178   0.143136
    30  H   -0.288338   0.434319
 Sum of Mulliken charges =  -1.00000   1.00000

 Dipole moment (field-independent basis, Debye):
    X=             -0.0258    Y=              1.8622    Z=             -1.9871  Tot=              2.7234
 Quadrupole moment (field-independent basis, Debye-Ang):
   XX=           -160.0691   YY=           -146.7793   ZZ=           -126.9034
   XY=             -8.4087   XZ=             -0.9073   YZ=             -4.7308

 Summary of Natural Population Analysis:

                                       Natural Population
                Natural  -----------------------------------------------
    Atom  No    Charge         Core      Valence    Rydberg      Total
 -----------------------------------------------------------------------
      C    1   -0.29027      0.99967     2.28499    0.00562     3.29027
      C    2   -0.18965      0.99964     2.18176    0.00825     3.18965
      C    3   -0.09219      0.99959     2.08225    0.01034     3.09219
      N    4   -0.26940      0.99960     2.75595    0.01386     3.76940
      C    5    0.17851      0.99951     1.80236    0.01963     2.82149
      N    6   -0.25852      0.99957     2.74501    0.01393     3.75852
      C    7    0.35367      0.99963     1.62398    0.02273     2.64633
      O    8   -0.30562      0.99987     3.29960    0.00614     4.30562
      C    9   -0.28462      0.99956     2.27510    0.00995     3.28462
      S   10    0.10982      4.99957     2.87341    0.01721     7.89018
      C   11   -0.09841      0.99955     2.08751    0.01135     3.09841
      C   12   -0.01077      0.99952     2.00002    0.01122     3.01077
      C   13   -0.18275      0.99948     2.17549    0.00779     3.18275
      C   14   -0.30206      0.99961     2.29623    0.00622     3.30206
      H   15    0.10326      0.00000     0.39502    0.00172     0.39674
      H   16    0.09805      0.00000     0.40097    0.00098     0.40195
      H   17    0.09630      0.00000     0.40245    0.00125     0.40370
      H   18    0.09580      0.00000     0.40278    0.00142     0.40420
      H   19    0.09485      0.00000     0.40376    0.00140     0.40515
      H   20    0.09724      0.00000     0.40134    0.00143     0.40276
      H   21    0.08436      0.00000     0.41374    0.00190     0.41564
      H   22    0.11892      0.00000     0.37929    0.00178     0.38108
      H   23    0.12188      0.00000     0.37262    0.00550     0.37812
      H   24    0.11174      0.00000     0.38678    0.00148     0.38826
      H   25    0.11335      0.00000     0.38532    0.00133     0.38665
      H   26    0.09375      0.00000     0.40518    0.00107     0.40625
      H   27    0.09647      0.00000     0.40218    0.00136     0.40353
      H   28    0.10649      0.00000     0.39250    0.00102     0.39351
      H   29    0.10664      0.00000     0.39199    0.00137     0.39336
      H   30    0.10318      0.00000     0.39582    0.00099     0.39682
 =======================================================================
   * Total *    0.00000     17.99437    38.81539    0.19024    57.00000

 Normal termination of Gaussian 16 at Thu Dec 10 11:14:47 2020.
