 Gaussian 16, Revision A.03,

 -----------------------------------------------------------
 # opt freq B3LYP/6-31G(d) empiricaldispersion=gd3bj scf=xqc
 -----------------------------------------------------------

 ------------------------------
 CID_65378906_JID_6139_neutraal
 ------------------------------
 Symbolic Z-matrix:
 Charge =  0 Multiplicity = 1

 SCF Done:  E(RB3LYP) =  -725.591278338     A.U. after   16 cycles
 SCF Done:  E(RB3LYP) =  -725.615132847     A.U. after   14 cycles
 SCF Done:  E(RB3LYP) =  -725.616678994     A.U. after   14 cycles
 SCF Done:  E(RB3LYP) =  -725.617585409     A.U. after   14 cycles
 SCF Done:  E(RB3LYP) =  -725.615989794     A.U. after   16 cycles
 SCF Done:  E(RB3LYP) =  -725.619327763     A.U. after   14 cycles
 SCF Done:  E(RB3LYP) =  -725.620534672     A.U. after   15 cycles
 SCF Done:  E(RB3LYP) =  -725.621045729     A.U. after   14 cycles
 SCF Done:  E(RB3LYP) =  -725.621028584     A.U. after   14 cycles
 SCF Done:  E(RB3LYP) =  -725.621034332     A.U. after   14 cycles
 SCF Done:  E(RB3LYP) =  -725.621165116     A.U. after   10 cycles
 SCF Done:  E(RB3LYP) =  -725.621167051     A.U. after    9 cycles
 SCF Done:  E(RB3LYP) =  -725.621168161     A.U. after    8 cycles
 SCF Done:  E(RB3LYP) =  -725.621168278     A.U. after    7 cycles
 SCF Done:  E(RB3LYP) =  -725.621170864     A.U. after   10 cycles
 Optimization completed.
    -- Stationary point found.
 Normal termination of Gaussian 16 at Thu Dec 10 21:23:50 2020.

 --------------------------------------------------------------------
 #N Geom=AllCheck Guess=TCheck SCRF=Check GenChk RB3LYP/6-31G(d) Freq
 --------------------------------------------------------------------

 Structure from the checkpoint file:  "JID_6139.chk"
 ------------------------------
 CID_65378906_JID_6139_neutraal
 ------------------------------
 Charge =  0 Multiplicity = 1

 SCF Done:  E(RB3LYP) =  -725.621170864     A.U. after    1 cycles

  Exact polarizability: 169.208   5.622 146.348 -16.528  15.689  97.639
 Approx polarizability: 243.031  12.174 259.534 -36.357  47.977 158.359

                      1                      2                      3
                      A                      A                      A
 Frequencies --     25.7761                47.9799                56.3480
 Red. masses --      5.9713                 7.9702                 5.2614
 Frc consts  --      0.0023                 0.0108                 0.0098
 IR Inten    --      3.1404                 0.1668                 2.4268

                      4                      5                      6
                      A                      A                      A
 Frequencies --     82.1896               105.2551               145.2545
 Red. masses --      3.4519                 2.8605                 5.9274
 Frc consts  --      0.0137                 0.0187                 0.0737
 IR Inten    --      1.2406                 4.1232                 2.9337

                      7                      8                      9
                      A                      A                      A
 Frequencies --    154.1682               179.5030               213.4342
 Red. masses --      3.4252                 5.2548                 4.1496
 Frc consts  --      0.0480                 0.0998                 0.1114
 IR Inten    --      1.7888                 0.1698                 4.0383

                     10                     11                     12
                      A                      A                      A
 Frequencies --    227.7931               247.2894               258.6393
 Red. masses --      1.1115                 2.7489                 1.7284
 Frc consts  --      0.0340                 0.0990                 0.0681
 IR Inten    --      0.3316                 1.6806                 0.0715

                     13                     14                     15
                      A                      A                      A
 Frequencies --    291.7756               309.8223               354.1605
 Red. masses --      4.2424                 1.8146                 3.2759
 Frc consts  --      0.2128                 0.1026                 0.2421
 IR Inten    --      0.4649                 0.1618                 0.0779

                     16                     17                     18
                      A                      A                      A
 Frequencies --    379.6136               408.2910               428.7860
 Red. masses --      2.3724                 6.3085                 3.2121
 Frc consts  --      0.2014                 0.6196                 0.3480
 IR Inten    --      1.0078                 0.8706                 0.0844

                     19                     20                     21
                      A                      A                      A
 Frequencies --    446.0020               512.6913               542.3631
 Red. masses --      3.4106                 4.6425                 7.0596
 Frc consts  --      0.3997                 0.7190                 1.2235
 IR Inten    --      0.0463                 4.1936                 1.2134

                     22                     23                     24
                      A                      A                      A
 Frequencies --    572.2807               599.3905               646.7095
 Red. masses --      5.7184                 4.4453                 5.0554
 Frc consts  --      1.1034                 0.9410                 1.2457
 IR Inten    --      0.4861                 1.8977                 0.1569

                     25                     26                     27
                      A                      A                      A
 Frequencies --    676.8899               693.6715               716.8344
 Red. masses --      4.3527                 5.2760                 2.2722
 Frc consts  --      1.1750                 1.4958                 0.6879
 IR Inten    --      0.9538                10.4407                29.4708

                     28                     29                     30
                      A                      A                      A
 Frequencies --    755.9958               802.7538               822.9537
 Red. masses --      5.7364                 1.2612                 2.8247
 Frc consts  --      1.9317                 0.4789                 1.1271
 IR Inten    --     15.2721                 3.7308                23.6287

                     31                     32                     33
                      A                      A                      A
 Frequencies --    834.2488               862.2491               915.4932
 Red. masses --      2.3876                 2.0634                 2.3204
 Frc consts  --      0.9791                 0.9038                 1.1459
 IR Inten    --     16.2836                 0.5519                 8.5669

                     34                     35                     36
                      A                      A                      A
 Frequencies --    935.1878               959.2823               960.5009
 Red. masses --      1.7557                 1.6279                 1.7729
 Frc consts  --      0.9047                 0.8826                 0.9637
 IR Inten    --      5.9538                 2.0897                 1.6312

                     37                     38                     39
                      A                      A                      A
 Frequencies --    984.6763               999.3780              1019.7479
 Red. masses --      1.7108                 1.3159                 2.0599
 Frc consts  --      0.9773                 0.7743                 1.2621
 IR Inten    --      0.9366                 0.6703                 1.3283

                     40                     41                     42
                      A                      A                      A
 Frequencies --   1025.4018              1034.8690              1092.8823
 Red. masses --      5.3536                 1.8641                 1.8511
 Frc consts  --      3.3165                 1.1762                 1.3026
 IR Inten    --      0.8277                 1.5726                 2.7535

                     43                     44                     45
                      A                      A                      A
 Frequencies --   1118.4129              1129.9412              1163.6306
 Red. masses --      1.5376                 1.9877                 1.6814
 Frc consts  --      1.1331                 1.4952                 1.3413
 IR Inten    --     19.6928                23.0488                 4.1011

                     46                     47                     48
                      A                      A                      A
 Frequencies --   1189.8957              1202.4880              1204.7314
 Red. masses --      2.2474                 2.0948                 1.1889
 Frc consts  --      1.8748                 1.7847                 1.0167
 IR Inten    --      7.2137                 5.2870                 2.9272

                     49                     50                     51
                      A                      A                      A
 Frequencies --   1250.2213              1286.7867              1334.7115
 Red. masses --      2.6431                 1.6573                 1.2877
 Frc consts  --      2.4341                 1.6169                 1.3515
 IR Inten    --      2.3738                 0.7808                 3.3463

                     52                     53                     54
                      A                      A                      A
 Frequencies --   1346.8355              1373.9929              1385.1022
 Red. masses --      1.4233                 1.6311                 2.8057
 Frc consts  --      1.5212                 1.8142                 3.1714
 IR Inten    --      1.0142                 3.5118                 9.3570

                     55                     56                     57
                      A                      A                      A
 Frequencies --   1389.1174              1401.0623              1439.4571
 Red. masses --      1.5723                12.6638                 1.2245
 Frc consts  --      1.7876                14.6463                 1.4949
 IR Inten    --     13.3180               296.8663                 4.2301

                     58                     59                     60
                      A                      A                      A
 Frequencies --   1448.1919              1490.3528              1509.7623
 Red. masses --      1.2243                 2.6633                 1.0708
 Frc consts  --      1.5128                 3.4854                 1.4380
 IR Inten    --      2.7819                 4.1013                 0.5298

                     61                     62                     63
                      A                      A                      A
 Frequencies --   1515.6691              1523.8437              1529.3441
 Red. masses --      1.0981                 1.0622                 1.0606
 Frc consts  --      1.4863                 1.4532                 1.4615
 IR Inten    --      3.7120                 6.0659                 8.3074

                     64                     65                     66
                      A                      A                      A
 Frequencies --   1533.7552              1536.5411              1543.0648
 Red. masses --      2.3837                 1.0605                 1.0491
 Frc consts  --      3.3038                 1.4753                 1.4717
 IR Inten    --      6.6272                 6.6694                 1.8111

                     67                     68                     69
                      A                      A                      A
 Frequencies --   1628.2206              1645.7063              1683.7662
 Red. masses --      8.2985                 6.6941                 7.6570
 Frc consts  --     12.9621                10.6818                12.7900
 IR Inten    --    154.8856                35.3128                23.4845

                     70                     71                     72
                      A                      A                      A
 Frequencies --   2356.5209              3048.1513              3059.2188
 Red. masses --     12.6879                 1.0655                 1.0477
 Frc consts  --     41.5127                 5.8325                 5.7769
 IR Inten    --      5.9838                16.2041                 2.6536

                     73                     74                     75
                      A                      A                      A
 Frequencies --   3060.0753              3065.3424              3102.1702
 Red. masses --      1.0421                 1.0416                 1.0986
 Frc consts  --      5.7494                 5.7666                 6.2289
 IR Inten    --     25.1451                29.6994                 4.0749

                     76                     77                     78
                      A                      A                      A
 Frequencies --   3105.0410              3129.0325              3132.3948
 Red. masses --      1.1043                 1.1022                 1.1029
 Frc consts  --      6.2729                 6.3580                 6.3759
 IR Inten    --      8.6010                19.0460                35.4643

                     79                     80                     81
                      A                      A                      A
 Frequencies --   3133.8192              3154.4334              3208.6480
 Red. masses --      1.1028                 1.1015                 1.0882
 Frc consts  --      6.3811                 6.4575                 6.6008
 IR Inten    --     20.8254                16.8723                 5.4202

                     82                     83                     84
                      A                      A                      A
 Frequencies --   3223.3858              3242.2591              3256.8626
 Red. masses --      1.0942                 1.0909                 1.0929
 Frc consts  --      6.6982                 6.7564                 6.8301
 IR Inten    --      5.3522                 1.6679                 1.5984

 - Thermochemistry -
 -------------------
 Temperature   298.150 Kelvin.  Pressure   1.00000 Atm.
 Atom     1 has atomic number  6 and mass  12.00000

 Molecular mass:   218.10553 amu.
 Principal axes and moments of inertia in atomic units:
                           1         2         3
     Eigenvalues --  1918.113985963.557176817.07946
           X            0.99941  -0.03413  -0.00435
           Y            0.03404   0.99922  -0.02013
           Z            0.00504   0.01997   0.99979
 This molecule is an asymmetric top.
 Rotational symmetry number  1.
 Warning -- assumption of classical behavior for rotation
           may cause significant error
 Rotational temperatures (Kelvin)      0.04516     0.01452     0.01271
 Rotational constants (GHZ):           0.94089     0.30263     0.26474
 Zero-point vibrational energy     642457.4 (Joules/Mol)
                                  153.55101 (Kcal/Mol)
 Warning -- explicit consideration of  23 degrees of freedom as
           vibrations may cause significant error
 Vibrational temperatures:     37.09    69.03    81.07   118.25   151.44
          (Kelvin)            208.99   221.81   258.26   307.08   327.74
                              355.79   372.12   419.80   445.77   509.56
                              546.18   587.44   616.93   641.70   737.65
                              780.34   823.38   862.39   930.47   973.89
                              998.04  1031.36  1087.71  1154.98  1184.05
                             1200.30  1240.58  1317.19  1345.53  1380.19
                             1381.95  1416.73  1437.88  1467.19  1475.32
                             1488.95  1572.41  1609.15  1625.73  1674.20
                             1711.99  1730.11  1733.34  1798.79  1851.40
                             1920.35  1937.80  1976.87  1992.85  1998.63
                             2015.82  2071.06  2083.63  2144.29  2172.21
                             2180.71  2192.47  2200.39  2206.73  2210.74
                             2220.13  2342.65  2367.80  2422.56  3390.51
                             4385.61  4401.53  4402.77  4410.34  4463.33
                             4467.46  4501.98  4506.82  4508.87  4538.53
                             4616.53  4637.73  4664.89  4685.90

 Zero-point correction=                           0.244699 (Hartree/Particle)
 Thermal correction to Energy=                    0.260084
 Thermal correction to Enthalpy=                  0.261029
 Thermal correction to Gibbs Free Energy=         0.201056
 Sum of electronic and zero-point Energies=           -725.376472
 Sum of electronic and thermal Energies=              -725.361086
 Sum of electronic and thermal Enthalpies=            -725.360142
 Sum of electronic and thermal Free Energies=         -725.420115

                     E (Thermal)             CV                S
                      KCal/Mol        Cal/Mol-Kelvin    Cal/Mol-Kelvin
 Total                  163.205             57.506            126.224
 Electronic               0.000              0.000              0.000
 Translational            0.889              2.981             42.042
 Rotational               0.889              2.981             32.722
 Vibrational            161.428             51.544             51.459
 Vibration     1          0.593              1.985              6.131
 Vibration     2          0.595              1.978              4.899
 Vibration     3          0.596              1.975              4.581
 Vibration     4          0.600              1.961              3.838
 Vibration     5          0.605              1.945              3.355
 Vibration     6          0.617              1.908              2.733
 Vibration     7          0.620              1.898              2.620
 Vibration     8          0.629              1.867              2.334
 Vibration     9          0.644              1.820              2.014
 Vibration    10          0.651              1.799              1.896
 Vibration    11          0.661              1.767              1.750
 Vibration    12          0.667              1.748              1.671
 Vibration    13          0.687              1.689              1.464
 Vibration    14          0.699              1.655              1.363
 Vibration    15          0.730              1.567              1.148
 Vibration    16          0.750              1.514              1.041
 Vibration    17          0.773              1.452              0.933
 Vibration    18          0.790              1.408              0.863
 Vibration    19          0.805              1.370              0.808
 Vibration    20          0.868              1.222              0.627
 Vibration    21          0.897              1.156              0.560
 Vibration    22          0.928              1.091              0.500
 Vibration    23          0.957              1.033              0.451

                           ! Non-Optimized Parameters !
 Normal termination of Gaussian 16 at Thu Dec 10 21:33:35 2020.

 ----------------------------------------------------------------------
 # B3LYP/6-311++G(d,p) empiricaldispersion=gd3bj scf=xqc pop=npa geom=c
 heck
 ----------------------------------------------------------------------

 --------------------------------------
 CID_65378906_JID_6139_Energie_neutraal
 --------------------------------------
 Structure from the checkpoint file:  "JID_6139.chk"
 Charge =  0 Multiplicity = 1

 SCF Done:  E(RB3LYP) =  -725.821805564     A.U. after   16 cycles
 Normal termination of Gaussian 16 at Thu Dec 10 21:37:40 2020.

 ----------------------------------------------------------------------
 # B3LYP/6-311++G(d,p) empiricaldispersion=gd3bj scf=xqc pop=npa geom=c
 heck
 ----------------------------------------------------------------------

 ------------------------------------
 CID_65378906_JID_6139_Energie_kation
 ------------------------------------
 Structure from the checkpoint file:  "JID_6139.chk"
 Charge =  1 Multiplicity = 2

 SCF Done:  E(UB3LYP) =  -725.471021807     A.U. after   33 cycles
 SCF Done:  E(UB3LYP) =  -725.471021807     a.u. after    1 cycles
 Normal termination of Gaussian 16 at Thu Dec 10 21:48:41 2020.
 Gaussian 16:  ES64L-G16RevA.03 25-Dec-2016

 ----------------------------------------------------------------------
 # B3LYP/6-311++G(d,p) empiricaldispersion=gd3bj scf=xqc pop=npa geom=c
 heck
 ----------------------------------------------------------------------

 -----------------------------------
 CID_65378906_JID_6139_Energie_anion
 -----------------------------------
 Structure from the checkpoint file:  "JID_6139.chk"
 Charge = -1 Multiplicity = 2

                         Standard orientation:
 ---------------------------------------------------------------------
 Center     Atomic      Atomic             Coordinates (Angstroms)
 Number     Number       Type             X           Y           Z
 ---------------------------------------------------------------------
      1          6           0        2.914284   -1.839316    1.589903
      2          6           0        1.896601   -1.381333    0.543771
      3          6           0        2.375972   -0.228969   -0.377120
      4          6           0        3.633491   -0.630738   -1.176945
      5          6           0        1.254615    0.169364   -1.390418
      6          6           0       -0.053480    0.595810   -0.769208
      7          6           0       -1.108990   -0.311156   -0.653498
      8          6           0       -2.298659    0.094229   -0.055542
      9          6           0       -2.483181    1.383086    0.436368
     10          6           0       -1.430578    2.286932    0.316178
     11          6           0       -0.230965    1.899423   -0.281766
     12          7           0       -3.397967   -0.875939    0.057248
     13          8           0       -3.206177   -2.011164   -0.379119
     14          8           0       -4.443793   -0.496275    0.582287
     15          6           0        2.703121    0.946079    0.450044
     16          7           0        2.956714    1.878058    1.094387
     17          1           0        3.809168   -2.272706    1.132172
     18          1           0        2.470566   -2.604300    2.234935
     19          1           0        3.227822   -1.004879    2.226498
     20          1           0        1.622668   -2.220544   -0.109142
     21          1           0        0.978432   -1.062203    1.046751
     22          1           0        3.419414   -1.532125   -1.761383
     23          1           0        3.928322    0.167481   -1.864782
     24          1           0        4.478552   -0.838047   -0.516708
     25          1           0        1.643631    0.971770   -2.026990
     26          1           0        1.090294   -0.700759   -2.035682
     27          1           0       -1.022878   -1.326555   -1.020539
     28          1           0       -3.426900    1.653475    0.892208
     29          1           0       -1.545585    3.299724    0.688736
     30          1           0        0.581647    2.613880   -0.363470
 ---------------------------------------------------------------------

 SCF Done:  E(UB3LYP) =  -725.861819884     A.U. after   23 cycles

 The electronic state is 2-A.
 Alpha  occ. eigenvalues --  -18.93911 -18.93899 -14.31546 -14.21908 -10.13878
 Alpha  occ. eigenvalues --  -10.11666 -10.10007 -10.09197 -10.08746 -10.08525
 Alpha  occ. eigenvalues --  -10.05739 -10.05659 -10.04381 -10.03615 -10.03381
 Alpha  occ. eigenvalues --  -10.03326  -1.01987  -0.84874  -0.81949  -0.76001
 Alpha  occ. eigenvalues --   -0.72948  -0.67152  -0.65092  -0.63010  -0.59476
 Alpha  occ. eigenvalues --   -0.56043  -0.53464  -0.52585  -0.47105  -0.43340
 Alpha  occ. eigenvalues --   -0.40830  -0.38718  -0.37273  -0.37055  -0.34951
 Alpha  occ. eigenvalues --   -0.34473  -0.34321  -0.33969  -0.32360  -0.31905
 Alpha  occ. eigenvalues --   -0.31196  -0.30440  -0.28757  -0.28667  -0.28104
 Alpha  occ. eigenvalues --   -0.27275  -0.26286  -0.26066  -0.24424  -0.23828
 Alpha  occ. eigenvalues --   -0.22679  -0.22277  -0.21470  -0.13619  -0.12725
 Alpha  occ. eigenvalues --   -0.12338  -0.11783  -0.09752   0.02803
 Alpha virt. eigenvalues --    0.05961   0.07679   0.08746   0.08980   0.10065
 Alpha virt. eigenvalues --    0.10641   0.10784   0.11278   0.11551   0.11861
 Alpha virt. eigenvalues --    0.12361   0.12852   0.13233   0.13470   0.14349

  Beta  occ. eigenvalues --  -18.93426 -18.93403 -14.30919 -14.21895 -10.13882
  Beta  occ. eigenvalues --  -10.11669 -10.10008 -10.09192 -10.08741 -10.08525
  Beta  occ. eigenvalues --  -10.05729 -10.05630 -10.04445 -10.03475 -10.03173
  Beta  occ. eigenvalues --  -10.03095  -1.00924  -0.83947  -0.81935  -0.75979
  Beta  occ. eigenvalues --   -0.72695  -0.67099  -0.64918  -0.62552  -0.59358
  Beta  occ. eigenvalues --   -0.55925  -0.53161  -0.51861  -0.47016  -0.42992
  Beta  occ. eigenvalues --   -0.40770  -0.38300  -0.37201  -0.37037  -0.34853
  Beta  occ. eigenvalues --   -0.34300  -0.33482  -0.32356  -0.31861  -0.31292
  Beta  occ. eigenvalues --   -0.30875  -0.30130  -0.28688  -0.28586  -0.28044
  Beta  occ. eigenvalues --   -0.27230  -0.26252  -0.26047  -0.24292  -0.23617
  Beta  occ. eigenvalues --   -0.22280  -0.21958  -0.21390  -0.12273  -0.11297
  Beta  occ. eigenvalues --   -0.11209  -0.09681  -0.09262
  Beta virt. eigenvalues --    0.05940   0.07642   0.08704   0.08911   0.09599
  Beta virt. eigenvalues --    0.10071   0.10782   0.10880   0.11328   0.11755
  Beta virt. eigenvalues --    0.11945   0.12386   0.12860   0.13312   0.13463

 Mulliken charges and spin densities:
               1          2
     1  C   -0.653029   0.006139
     2  C   -0.573046   0.012923
     3  C    1.502939  -0.023912
     4  C   -0.574578  -0.001123
     5  C   -0.566750   0.010717
     6  C    1.179869  -0.063535
     7  C   -0.617477   0.118950
     8  C   -0.385566  -0.006913
     9  C    0.149052   0.176896
    10  C   -0.404660  -0.020664
    11  C   -0.639155   0.217056
    12  N   -0.261875   0.206120
    13  O   -0.186223   0.189977
    14  O   -0.185608   0.190773
    15  C   -0.863561  -0.007596
    16  N   -0.256229   0.003793
    17  H    0.121842   0.000148
    18  H    0.140118   0.001140
    19  H    0.183609  -0.000038
    20  H    0.151768   0.005067
    21  H    0.234728   0.007063
    22  H    0.153805   0.000730
    23  H    0.148394   0.001068
    24  H    0.149042  -0.000012
    25  H    0.177591   0.012844
    26  H    0.179617  -0.002299
    27  H    0.219467  -0.009889
    28  H    0.217078  -0.009916
    29  H    0.134713   0.003788
    30  H    0.124123  -0.019290
 Sum of Mulliken charges =  -1.00000   1.00000

 Dipole moment (field-independent basis, Debye):
    X=             12.0033    Y=             -0.0754    Z=             -2.0703  Tot=             12.1808
 Quadrupole moment (field-independent basis, Debye-Ang):
   XX=           -166.2937   YY=           -117.4821   ZZ=           -104.3460
   XY=            -25.5980   XZ=             -4.9600   YZ=             -3.7492

 Summary of Natural Population Analysis:

                                       Natural Population
                Natural  -----------------------------------------------
    Atom  No    Charge         Core      Valence    Rydberg      Total
 -----------------------------------------------------------------------
      C    1   -0.28861      0.99967     2.28494    0.00401     3.28861
      C    2   -0.18579      0.99961     2.17835    0.00783     3.18579
      C    3   -0.08549      0.99949     2.07665    0.00934     3.08549
      C    4   -0.27678      0.99964     2.27156    0.00558     3.27678
      C    5   -0.17995      0.99958     2.17078    0.00958     3.17995
      C    6   -0.05613      0.99951     2.04457    0.01205     3.05613
      C    7   -0.07209      0.99947     2.06355    0.00907     3.07209
      C    8    0.05670      0.99940     1.92826    0.01564     2.94330
      C    9   -0.06728      0.99953     2.05842    0.00934     3.06728
      C   10   -0.12077      0.99958     2.11216    0.00903     3.12077
      C   11   -0.04870      0.99952     2.04082    0.00835     3.04870
      N   12    0.30663      0.99972     2.16728    0.02637     3.19337
      O   13   -0.19781      0.99990     3.19012    0.00779     4.19781
      O   14   -0.19226      0.99990     3.18472    0.00765     4.19226
      C   15    0.16276      0.99962     1.81301    0.02461     2.83724
      N   16   -0.18475      0.99979     2.67297    0.01200     3.68475
      H   17    0.09171      0.00000     0.40738    0.00091     0.40829
      H   18    0.10141      0.00000     0.39776    0.00082     0.39859
      H   19    0.10253      0.00000     0.39665    0.00081     0.39747
      H   20    0.09919      0.00000     0.39980    0.00101     0.40081
      H   21    0.11721      0.00000     0.38180    0.00099     0.38279
      H   22    0.10047      0.00000     0.39871    0.00082     0.39953
      H   23    0.10254      0.00000     0.39663    0.00084     0.39746
      H   24    0.10193      0.00000     0.39726    0.00081     0.39807
      H   25    0.10137      0.00000     0.39760    0.00103     0.39863
      H   26    0.10258      0.00000     0.39637    0.00105     0.39742
      H   27    0.11106      0.00000     0.38768    0.00125     0.38894
      H   28    0.11246      0.00000     0.38644    0.00111     0.38754
      H   29    0.09294      0.00000     0.40602    0.00103     0.40706
      H   30    0.09289      0.00000     0.40546    0.00164     0.40711
 =======================================================================
   * Total *   -0.00000     15.99391    41.81373    0.19236    58.00000

 Normal termination of Gaussian 16 at Thu Dec 10 21:56:14 2020.
