 Gaussian 16, Revision A.03,

 -----------------------------------------------------------
 # opt freq B3LYP/6-31G(d) empiricaldispersion=gd3bj scf=xqc
 -----------------------------------------------------------

 ------------------------------
 CID_62062002_JID_9991_neutraal
 ------------------------------
 Symbolic Z-matrix:
 Charge =  0 Multiplicity = 1

 SCF Done:  E(RB3LYP) =  -1198.69296246     A.U. after   16 cycles
 SCF Done:  E(RB3LYP) =  -1198.70473589     A.U. after   13 cycles
 SCF Done:  E(RB3LYP) =  -1198.70552045     A.U. after   13 cycles
 SCF Done:  E(RB3LYP) =  -1198.70602114     A.U. after   13 cycles
 SCF Done:  E(RB3LYP) =  -1198.70636680     A.U. after   11 cycles
 SCF Done:  E(RB3LYP) =  -1198.70641612     A.U. after   11 cycles
 SCF Done:  E(RB3LYP) =  -1198.70642789     A.U. after   10 cycles
 SCF Done:  E(RB3LYP) =  -1198.70642877     A.U. after    8 cycles
 SCF Done:  E(RB3LYP) =  -1198.70642963     A.U. after    8 cycles
 SCF Done:  E(RB3LYP) =  -1198.70643033     A.U. after    8 cycles
 SCF Done:  E(RB3LYP) =  -1198.70652887     A.U. after   11 cycles
 SCF Done:  E(RB3LYP) =  -1198.70652950     A.U. after    8 cycles
 SCF Done:  E(RB3LYP) =  -1198.70652965     A.U. after    7 cycles
 SCF Done:  E(RB3LYP) =  -1198.70652974     A.U. after    7 cycles
 SCF Done:  E(RB3LYP) =  -1198.70652962     A.U. after    8 cycles
 SCF Done:  E(RB3LYP) =  -1198.70652976     A.U. after    8 cycles
 Optimization completed.
    -- Stationary point found.
 Normal termination of Gaussian 16 at Sun Dec 13 13:21:57 2020.

 --------------------------------------------------------------------
 #N Geom=AllCheck Guess=TCheck SCRF=Check GenChk RB3LYP/6-31G(d) Freq
 --------------------------------------------------------------------

 Structure from the checkpoint file:  "JID_9991.chk"
 ------------------------------
 CID_62062002_JID_9991_neutraal
 ------------------------------
 Charge =  0 Multiplicity = 1

 SCF Done:  E(RB3LYP) =  -1198.70652976     A.U. after    1 cycles

  Exact polarizability: 209.408 -15.779 173.162 -19.372 -23.847 147.041
 Approx polarizability: 300.326 -22.550 299.121 -43.666 -67.871 248.817

                      1                      2                      3
                      A                      A                      A
 Frequencies --     16.5511                33.1899                56.9520
 Red. masses --      6.0578                 4.8275                 4.4641
 Frc consts  --      0.0010                 0.0031                 0.0085
 IR Inten    --      0.1511                 0.1771                 2.8065

                      4                      5                      6
                      A                      A                      A
 Frequencies --     64.2483                81.0096               126.7240
 Red. masses --      3.7544                 5.7164                 2.2798
 Frc consts  --      0.0091                 0.0221                 0.0216
 IR Inten    --      0.3859                 1.2274                 5.7647

                      7                      8                      9
                      A                      A                      A
 Frequencies --    162.2625               178.9711               199.8827
 Red. masses --      3.0220                 4.6084                 3.2098
 Frc consts  --      0.0469                 0.0870                 0.0756
 IR Inten    --      2.5325                 0.7894                 1.5112

                     10                     11                     12
                      A                      A                      A
 Frequencies --    216.6660               224.6063               231.8356
 Red. masses --      2.1071                 2.8772                 2.3407
 Frc consts  --      0.0583                 0.0855                 0.0741
 IR Inten    --      0.9566                 1.1651                 4.9424

                     13                     14                     15
                      A                      A                      A
 Frequencies --    244.8296               277.1831               298.1391
 Red. masses --      1.7196                 1.3738                 3.5790
 Frc consts  --      0.0607                 0.0622                 0.1874
 IR Inten    --      2.7832                41.5240                 6.8491

                     16                     17                     18
                      A                      A                      A
 Frequencies --    308.5426               347.4870               373.8192
 Red. masses --      4.0261                 4.0629                 2.8994
 Frc consts  --      0.2258                 0.2890                 0.2387
 IR Inten    --      6.8727                 1.6311                 5.6046

                     19                     20                     21
                      A                      A                      A
 Frequencies --    402.8120               410.4831               427.9758
 Red. masses --      3.8709                 2.2871                 6.5641
 Frc consts  --      0.3701                 0.2271                 0.7084
 IR Inten    --      2.9766                 4.2076                 5.9594

                     22                     23                     24
                      A                      A                      A
 Frequencies --    448.9388               468.1465               547.4147
 Red. masses --      2.1729                 5.6515                 6.6885
 Frc consts  --      0.2580                 0.7298                 1.1809
 IR Inten    --      1.9056                 1.8318                 0.9704

                     25                     26                     27
                      A                      A                      A
 Frequencies --    557.3341               587.4361               596.3995
 Red. masses --      6.2282                 4.5273                 3.0835
 Frc consts  --      1.1398                 0.9205                 0.6462
 IR Inten    --      4.0918                 1.7195                10.4781

                     28                     29                     30
                      A                      A                      A
 Frequencies --    631.5036               636.9211               657.6100
 Red. masses --      5.5440                 5.9348                 3.8539
 Frc consts  --      1.3026                 1.4185                 0.9820
 IR Inten    --      7.5664                 8.7133                20.9453

                     31                     32                     33
                      A                      A                      A
 Frequencies --    697.3721               735.1084               747.6811
 Red. masses --      5.3329                 3.9196                 1.4758
 Frc consts  --      1.5281                 1.2480                 0.4861
 IR Inten    --     13.7591                22.4250                22.4500

                     34                     35                     36
                      A                      A                      A
 Frequencies --    769.2604               797.3937               833.0128
 Red. masses --      3.9078                 2.0885                 2.7044
 Frc consts  --      1.3625                 0.7824                 1.1057
 IR Inten    --     13.6610                 2.0982                 4.6478

                     37                     38                     39
                      A                      A                      A
 Frequencies --    849.6110               863.3585               872.0267
 Red. masses --      4.3134                 1.5714                 1.2920
 Frc consts  --      1.8345                 0.6901                 0.5788
 IR Inten    --     12.9537                46.2577                92.9492

                     40                     41                     42
                      A                      A                      A
 Frequencies --    895.9749               921.6196               934.0768
 Red. masses --      2.2271                 6.1657                 1.7798
 Frc consts  --      1.0534                 3.0856                 0.9149
 IR Inten    --     19.9253                 1.8429                42.1191

                     43                     44                     45
                      A                      A                      A
 Frequencies --    954.6055               985.1771               992.9730
 Red. masses --      2.1802                 1.7975                 1.7543
 Frc consts  --      1.1705                 1.0279                 1.0191
 IR Inten    --      5.9333                 6.9130                 1.1225

                     46                     47                     48
                      A                      A                      A
 Frequencies --   1006.0085              1027.1194              1052.6067
 Red. masses --      3.0816                 2.5522                 2.1417
 Frc consts  --      1.8375                 1.5864                 1.3981
 IR Inten    --     12.2769                 1.3151                 3.1576

                     49                     50                     51
                      A                      A                      A
 Frequencies --   1062.7229              1079.8822              1082.5274
 Red. masses --      2.2598                 3.9021                 1.4656
 Frc consts  --      1.5037                 2.6810                 1.0119
 IR Inten    --      9.3845                 4.5660                 2.4854

                     52                     53                     54
                      A                      A                      A
 Frequencies --   1091.4867              1130.3731              1134.6565
 Red. masses --      2.7094                 1.7776                 2.5607
 Frc consts  --      1.9018                 1.3382                 1.9424
 IR Inten    --     18.6537                20.4662                21.6765

                     55                     56                     57
                      A                      A                      A
 Frequencies --   1164.5837              1187.1212              1192.0076
 Red. masses --      1.8592                 3.5752                 2.0137
 Frc consts  --      1.4856                 2.9685                 1.6858
 IR Inten    --      3.9014                 9.0237                20.9679

                     58                     59                     60
                      A                      A                      A
 Frequencies --   1213.1152              1228.5673              1235.5161
 Red. masses --      1.3257                 1.6348                 1.3369
 Frc consts  --      1.1495                 1.4538                 1.2024
 IR Inten    --     14.0228                 4.0058                 5.5975

                     61                     62                     63
                      A                      A                      A
 Frequencies --   1255.2160              1286.8109              1306.2680
 Red. masses --      1.3488                 7.2899                 1.2730
 Frc consts  --      1.2521                 7.1122                 1.2798
 IR Inten    --      3.1910                27.2527                 1.4812

                     64                     65                     66
                      A                      A                      A
 Frequencies --   1327.6952              1335.2513              1344.1504
 Red. masses --      1.4226                 1.3887                 1.3715
 Frc consts  --      1.4775                 1.4588                 1.4599
 IR Inten    --      2.4527                 6.2862                 3.3886

                     67                     68                     69
                      A                      A                      A
 Frequencies --   1350.4194              1357.9798              1373.8450
 Red. masses --      3.5890                 1.3455                 1.3286
 Frc consts  --      3.8563                 1.4620                 1.4774
 IR Inten    --     18.4355                 0.6017                15.5371

                     70                     71                     72
                      A                      A                      A
 Frequencies --   1383.7796              1393.0089              1412.1796
 Red. masses --      1.2768                 1.2447                 1.5267
 Frc consts  --      1.4405                 1.4231                 1.7939
 IR Inten    --      1.7873                13.5912                10.6961

                     73                     74                     75
                      A                      A                      A
 Frequencies --   1444.0757              1450.0605              1453.3014
 Red. masses --      2.7857                 1.4662                 1.2798
 Frc consts  --      3.4226                 1.8165                 1.5926
 IR Inten    --     32.3418                13.2278                 4.2629

                     76                     77                     78
                      A                      A                      A
 Frequencies --   1498.9010              1499.6225              1500.0213
 Red. masses --      1.0471                 1.0908                 1.1077
 Frc consts  --      1.3860                 1.4453                 1.4685
 IR Inten    --      8.1991                 6.3827                 5.5293

                     79                     80                     81
                      A                      A                      A
 Frequencies --   1518.9155              1527.3614              1537.1969
 Red. masses --      1.0895                 1.0924                 1.0919
 Frc consts  --      1.4810                 1.5015                 1.5201
 IR Inten    --      3.1892                 3.6151                11.2140

                     82                     83                     84
                      A                      A                      A
 Frequencies --   1542.4790              1564.0914              1622.3439
 Red. masses --      1.0968                 6.7486                 8.5669
 Frc consts  --      1.5375                 9.7272                13.2849
 IR Inten    --      2.5000               448.0493               168.0561

                     85                     86                     87
                      A                      A                      A
 Frequencies --   1663.2472              1696.6452              1791.6162
 Red. masses --      6.6622                 1.0887                11.3792
 Frc consts  --     10.8587                 1.8465                21.5205
 IR Inten    --     14.2259                28.4518               539.2482

                     88                     89                     90
                      A                      A                      A
 Frequencies --   2973.1010              3010.6882              3029.8165
 Red. masses --      1.0698                 1.0728                 1.0699
 Frc consts  --      5.5717                 5.7295                 5.7867
 IR Inten    --     73.0884                82.0236                59.4057

                     91                     92                     93
                      A                      A                      A
 Frequencies --   3056.5484              3058.6947              3072.1953
 Red. masses --      1.0644                 1.0838                 1.0760
 Frc consts  --      5.8589                 5.9740                 5.9834
 IR Inten    --     45.7428                13.9353                57.0658

                     94                     95                     96
                      A                      A                      A
 Frequencies --   3074.5982              3076.4833              3090.3422
 Red. masses --      1.0709                 1.0364                 1.0968
 Frc consts  --      5.9645                 5.7794                 6.1716
 IR Inten    --     31.7744                18.5941                24.0755

                     97                     98                     99
                      A                      A                      A
 Frequencies --   3107.8045              3117.4389              3128.1966
 Red. masses --      1.1038                 1.1029                 1.0953
 Frc consts  --      6.2814                 6.3153                 6.3148
 IR Inten    --      9.2544                49.6096                30.1781

                    100                    101                    102
                      A                      A                      A
 Frequencies --   3151.4534              3155.5456              3234.3188
 Red. masses --      1.1025                 1.1015                 1.0914
 Frc consts  --      6.4512                 6.4624                 6.7268
 IR Inten    --     11.7272                 3.6410                 1.0574

                    103                    104                    105
                      A                      A                      A
 Frequencies --   3285.1157              3460.6743              3544.4444
 Red. masses --      1.0951                 1.0497                 1.0919
 Frc consts  --      6.9634                 7.4068                 8.0824
 IR Inten    --      3.5176                 2.6305                 1.2477

 - Thermochemistry -
 -------------------
 Temperature   298.150 Kelvin.  Pressure   1.00000 Atm.
 Atom     1 has atomic number  6 and mass  12.00000

 Molecular mass:   278.12013 amu.
 Principal axes and moments of inertia in atomic units:
                           1         2         3
     Eigenvalues --  3372.241106820.547117255.11750
           X            0.99992   0.00235  -0.01210
           Y           -0.00133   0.99645   0.08413
           Z            0.01225  -0.08411   0.99638
 This molecule is an asymmetric top.
 Rotational symmetry number  1.
 Warning -- assumption of classical behavior for rotation
           may cause significant error
 Rotational temperatures (Kelvin)      0.02568     0.01270     0.01194
 Rotational constants (GHZ):           0.53518     0.26460     0.24875
 Zero-point vibrational energy     811172.0 (Joules/Mol)
                                  193.87476 (Kcal/Mol)
 Warning -- explicit consideration of  27 degrees of freedom as
           vibrations may cause significant error
 Vibrational temperatures:     23.81    47.75    81.94    92.44   116.55
          (Kelvin)            182.33   233.46   257.50   287.59   311.73
                              323.16   333.56   352.26   398.80   428.96
                              443.92   499.96   537.84   579.56   590.59
                              615.76   645.92   673.56   787.61   801.88
                              845.19   858.09   908.59   916.39   946.15
                             1003.36  1057.66  1075.75  1106.79  1147.27
                             1198.52  1222.40  1242.18  1254.65  1289.11
                             1326.01  1343.93  1373.46  1417.45  1428.67
                             1447.42  1477.80  1514.47  1529.02  1553.71
                             1557.52  1570.41  1626.35  1632.52  1675.58
                             1708.00  1715.03  1745.40  1767.63  1777.63
                             1805.98  1851.43  1879.43  1910.26  1921.13
                             1933.93  1942.95  1953.83  1976.66  1990.95
                             2004.23  2031.81  2077.70  2086.31  2090.98
                             2156.58  2157.62  2158.20  2185.38  2197.53
                             2211.68  2219.28  2250.38  2334.19  2393.04
                             2441.09  2577.74  4277.63  4331.71  4359.23
                             4397.69  4400.78  4420.20  4423.66  4426.37
                             4446.31  4471.44  4485.30  4500.78  4534.24
                             4540.13  4653.46  4726.55  4979.14  5099.66

 Zero-point correction=                           0.308959 (Hartree/Particle)
 Thermal correction to Energy=                    0.326530
 Thermal correction to Enthalpy=                  0.327474
 Thermal correction to Gibbs Free Energy=         0.262312
 Sum of electronic and zero-point Energies=          -1198.397571
 Sum of electronic and thermal Energies=             -1198.380000
 Sum of electronic and thermal Enthalpies=           -1198.379056
 Sum of electronic and thermal Free Energies=        -1198.444217

                     E (Thermal)             CV                S
                      KCal/Mol        Cal/Mol-Kelvin    Cal/Mol-Kelvin
 Total                  204.901             67.994            137.145
 Electronic               0.000              0.000              0.000
 Translational            0.889              2.981             42.767
 Rotational               0.889              2.981             33.478
 Vibrational            203.123             62.032             60.900
 Vibration     1          0.593              1.986              7.010
 Vibration     2          0.594              1.983              5.629
 Vibration     3          0.596              1.975              4.560
 Vibration     4          0.597              1.971              4.322
 Vibration     5          0.600              1.962              3.866
 Vibration     6          0.611              1.926              2.995
 Vibration     7          0.622              1.889              2.523
 Vibration     8          0.629              1.868              2.339
 Vibration     9          0.638              1.840              2.134
 Vibration    10          0.646              1.816              1.987
 Vibration    11          0.649              1.804              1.922
 Vibration    12          0.653              1.792              1.865
 Vibration    13          0.660              1.771              1.768
 Vibration    14          0.678              1.716              1.551
 Vibration    15          0.691              1.677              1.427
 Vibration    16          0.698              1.657              1.370
 Vibration    17          0.725              1.580              1.178
 Vibration    18          0.745              1.526              1.064
 Vibration    19          0.768              1.464              0.952
 Vibration    20          0.775              1.447              0.925
 Vibration    21          0.789              1.409              0.865
 Vibration    22          0.808              1.363              0.799
 Vibration    23          0.825              1.321              0.743
 Vibration    24          0.903              1.145              0.550
 Vibration    25          0.913              1.124              0.529
 Vibration    26          0.945              1.059              0.472
 Vibration    27          0.954              1.039              0.456

 Optimization completed.
    -- Stationary point found.
 Normal termination of Gaussian 16 at Sun Dec 13 13:45:38 2020.

 ----------------------------------------------------------------------
 # B3LYP/6-311++G(d,p) empiricaldispersion=gd3bj scf=xqc pop=npa geom=c
 heck
 ----------------------------------------------------------------------

 --------------------------------------
 CID_62062002_JID_9991_Energie_neutraal
 --------------------------------------
 Structure from the checkpoint file:  "JID_9991.chk"
 Charge =  0 Multiplicity = 1

 SCF Done:  E(RB3LYP) =  -1198.95404745     A.U. after   18 cycles
 Normal termination of Gaussian 16 at Sun Dec 13 13:58:08 2020.

 ----------------------------------------------------------------------
 # B3LYP/6-311++G(d,p) empiricaldispersion=gd3bj scf=xqc pop=npa geom=c
 heck
 ----------------------------------------------------------------------

 ------------------------------------
 CID_62062002_JID_9991_Energie_kation
 ------------------------------------
 Structure from the checkpoint file:  "JID_9991.chk"
 Charge =  1 Multiplicity = 2

 SCF Done:  E(UB3LYP) =  -1198.67966301     A.U. after   30 cycles
 Normal termination of Gaussian 16 at Sun Dec 13 14:27:25 2020.
 Gaussian 16:  ES64L-G16RevA.03 25-Dec-2016

 ----------------------------------------------------------------------
 # B3LYP/6-311++G(d,p) empiricaldispersion=gd3bj scf=xqc pop=npa geom=c
 heck
 ----------------------------------------------------------------------

 -----------------------------------
 CID_62062002_JID_9991_Energie_anion
 -----------------------------------
 Structure from the checkpoint file:  "JID_9991.chk"
 Charge = -1 Multiplicity = 2

                         Standard orientation:
 ---------------------------------------------------------------------
 Center     Atomic      Atomic             Coordinates (Angstroms)
 Number     Number       Type             X           Y           Z
 ---------------------------------------------------------------------
      1          6           0        4.098855    0.279459   -1.141139
      2          6           0        3.075879   -0.225363   -0.172394
      3          6           0        3.177645   -1.359647    0.551839
      4         16           0        1.797235   -1.657003    1.589855
      5          6           0        1.049604   -0.177178    1.015235
      6          7           0       -0.119386    0.225445    1.416290
      7          6           0       -0.592998    1.374527    0.838644
      8          6           0        0.135129    2.096863   -0.072968
      9          6           0        1.441275    1.695788   -0.518599
     10          8           0        2.163276    2.273313   -1.318016
     11          7           0        1.862311    0.450172    0.088306
     12          6           0       -2.013400    1.756579    1.205611
     13          7           0       -3.060605    0.908785    0.642819
     14          6           0       -3.251257   -0.425844    1.220359
     15          6           0       -2.598977   -1.426002    0.249370
     16          6           0       -2.706878   -0.743697   -1.137999
     17          6           0       -3.064714    0.741279   -0.816998
     18          6           0       -1.431509   -0.878529   -1.971543
     19          7           0       -1.158039   -2.286802   -2.277792
     20          1           0        4.467950    1.266963   -0.855953
     21          1           0        3.683885    0.378072   -2.146782
     22          1           0        4.934029   -0.426707   -1.162935
     23          1           0        4.008225   -2.049876    0.533591
     24          1           0       -0.252985    3.010178   -0.507777
     25          1           0       -2.115006    1.732528    2.295283
     26          1           0       -2.193692    2.787967    0.881323
     27          1           0       -4.330694   -0.625728    1.293663
     28          1           0       -2.831684   -0.472103    2.228026
     29          1           0       -1.548933   -1.560591    0.527614
     30          1           0       -3.083911   -2.406902    0.269738
     31          1           0       -3.519983   -1.202551   -1.711044
     32          1           0       -2.362102    1.440237   -1.283310
     33          1           0       -4.062536    0.977301   -1.209779
     34          1           0       -1.563868   -0.350875   -2.924533
     35          1           0       -0.607832   -0.367496   -1.441756
     36          1           0       -0.318286   -2.355546   -2.850678
     37          1           0       -0.946434   -2.781940   -1.412122
 ---------------------------------------------------------------------

 SCF Done:  E(UB3LYP) =  -1198.96265350     A.U. after   31 cycles

 The electronic state is 2-A.
 Alpha  occ. eigenvalues --  -88.73987 -18.93754 -14.23333 -14.19000 -14.17657
 Alpha  occ. eigenvalues --  -14.16018 -10.12266 -10.11545 -10.09787 -10.07819
 Alpha  occ. eigenvalues --  -10.07454 -10.07436 -10.06613 -10.06376 -10.06035
 Alpha  occ. eigenvalues --  -10.05907 -10.04662 -10.04325 -10.00690  -7.82679
 Alpha  occ. eigenvalues --   -5.79002  -5.78659  -5.78198  -0.90252  -0.85469
 Alpha  occ. eigenvalues --   -0.81059  -0.77886  -0.77525  -0.69513  -0.67182
 Alpha  occ. eigenvalues --   -0.65201  -0.62508  -0.61239  -0.57626  -0.55615
 Alpha  occ. eigenvalues --   -0.53278  -0.49449  -0.48760  -0.45951  -0.44928
 Alpha  occ. eigenvalues --   -0.44617  -0.39020  -0.38621  -0.37794  -0.36196
 Alpha  occ. eigenvalues --   -0.35327  -0.34014  -0.33411  -0.32798  -0.31833
 Alpha  occ. eigenvalues --   -0.31174  -0.29690  -0.29481  -0.29061  -0.28352
 Alpha  occ. eigenvalues --   -0.27983  -0.27712  -0.27353  -0.24969  -0.24650
 Alpha  occ. eigenvalues --   -0.24261  -0.23313  -0.23054  -0.22258  -0.21413
 Alpha  occ. eigenvalues --   -0.20978  -0.20240  -0.16553  -0.14101  -0.13997
 Alpha  occ. eigenvalues --   -0.12671  -0.11959  -0.08619  -0.07517   0.04776
 Alpha virt. eigenvalues --    0.07696   0.08066   0.09042   0.09484   0.10002
 Alpha virt. eigenvalues --    0.10088   0.11200   0.11472   0.11939   0.12094
 Alpha virt. eigenvalues --    0.12260   0.12530   0.13105   0.13312   0.14231

  Beta  occ. eigenvalues --  -88.73936 -18.93609 -14.23148 -14.19000 -14.17587
  Beta  occ. eigenvalues --  -14.16226 -10.12159 -10.11075 -10.09833 -10.07818
  Beta  occ. eigenvalues --  -10.07455 -10.07435 -10.06651 -10.06140 -10.06032
  Beta  occ. eigenvalues --  -10.05907 -10.04662 -10.03811 -10.00589  -7.82634
  Beta  occ. eigenvalues --   -5.78988  -5.78644  -5.78017  -0.89918  -0.85096
  Beta  occ. eigenvalues --   -0.80935  -0.77818  -0.77385  -0.69181  -0.67056
  Beta  occ. eigenvalues --   -0.65054  -0.62268  -0.61060  -0.57386  -0.55416
  Beta  occ. eigenvalues --   -0.53200  -0.49169  -0.48281  -0.45754  -0.44875
  Beta  occ. eigenvalues --   -0.44407  -0.38913  -0.38461  -0.37747  -0.36042
  Beta  occ. eigenvalues --   -0.35155  -0.33508  -0.33093  -0.32689  -0.31726
  Beta  occ. eigenvalues --   -0.31068  -0.29560  -0.29261  -0.28875  -0.28268
  Beta  occ. eigenvalues --   -0.27867  -0.27567  -0.27188  -0.24854  -0.24334
  Beta  occ. eigenvalues --   -0.23415  -0.23153  -0.22806  -0.22226  -0.21383
  Beta  occ. eigenvalues --   -0.20837  -0.19633  -0.15449  -0.14149  -0.13973
  Beta  occ. eigenvalues --   -0.11885  -0.10849  -0.08392  -0.06730
  Beta virt. eigenvalues --    0.07652   0.07989   0.08964   0.09403   0.09943
  Beta virt. eigenvalues --    0.10035   0.10812   0.11230   0.11492   0.11929
  Beta virt. eigenvalues --    0.12092   0.12259   0.12935   0.13439   0.13787

 Mulliken charges and spin densities:
               1          2
     1  C   -0.733382   0.024634
     2  C   -0.003113  -0.076606
     3  C   -0.135900   0.175178
     4  S   -0.300577   0.105154
     5  C   -0.287702   0.254408
     6  N    0.036631  -0.115151
     7  C    0.871483   0.363634
     8  C   -0.185719   0.064235
     9  C   -0.425089   0.086071
    10  O   -0.371028   0.050606
    11  N    0.365606   0.045499
    12  C   -0.959747  -0.038608
    13  N    0.263760   0.017828
    14  C   -0.176993  -0.096933
    15  C   -0.488611   0.048986
    16  C    0.648004  -0.014254
    17  C   -0.722654   0.021113
    18  C   -0.757877   0.024054
    19  N   -0.354842  -0.002423
    20  H    0.180656  -0.003015
    21  H    0.173356  -0.003395
    22  H    0.106356  -0.001254
    23  H    0.210579  -0.014133
    24  H    0.137581  -0.008295
    25  H    0.118385   0.036487
    26  H    0.122021   0.029359
    27  H    0.111124   0.014541
    28  H    0.139337   0.015859
    29  H    0.012642  -0.003857
    30  H    0.149385   0.012141
    31  H    0.175250   0.000794
    32  H    0.147654  -0.007026
    33  H    0.126989   0.007607
    34  H    0.145511   0.001689
    35  H    0.209267  -0.018423
    36  H    0.226453   0.001888
    37  H    0.225203   0.001609
 Sum of Mulliken charges =  -1.00000   1.00000

 Dipole moment (field-independent basis, Debye):
    X=             -0.7016    Y=             -3.1530    Z=             -0.4963  Tot=              3.2680
 Quadrupole moment (field-independent basis, Debye-Ang):
   XX=           -154.3034   YY=           -149.0825   ZZ=           -142.7412
   XY=             -8.9286   XZ=              0.2902   YZ=              2.0771

 Summary of Natural Population Analysis:

                                       Natural Population
                Natural  -----------------------------------------------
    Atom  No    Charge         Core      Valence    Rydberg      Total
 -----------------------------------------------------------------------
      C    1   -0.29304      0.99963     2.28874    0.00467     3.29304
      C    2    0.06911      0.99948     1.92160    0.00981     2.93089
      C    3   -0.16572      0.99943     2.15680    0.00949     3.16572
      S    4    0.18068      4.99947     2.79761    0.02224     7.81932
      C    5    0.22985      0.99958     1.75322    0.01734     2.77015
      N    6   -0.32939      0.99963     2.81699    0.01278     3.82939
      C    7    0.18353      0.99950     1.79984    0.01713     2.81647
      C    8   -0.18086      0.99946     2.17339    0.00801     3.18086
      C    9    0.33908      0.99962     1.63976    0.02154     2.66092
      O   10   -0.32848      0.99988     3.32212    0.00648     4.32848
      N   11   -0.21848      0.99955     2.70766    0.01127     3.71848
      C   12   -0.09303      0.99958     2.08150    0.01194     3.09303
      N   13   -0.27615      0.99974     2.76149    0.01491     3.77615
      C   14   -0.08082      0.99964     2.07137    0.00982     3.08082
      C   15   -0.20745      0.99962     2.19957    0.00825     3.20745
      C   16   -0.11860      0.99960     2.11050    0.00849     3.11860
      C   17   -0.08326      0.99962     2.07441    0.00923     3.08326
      C   18   -0.08907      0.99961     2.07920    0.01027     3.08907
      N   19   -0.42610      0.99977     2.91696    0.00936     3.92610
      H   20    0.11158      0.00000     0.38727    0.00115     0.38842
      H   21    0.11071      0.00000     0.38813    0.00116     0.38929
      H   22    0.09270      0.00000     0.40627    0.00103     0.40730
      H   23    0.10101      0.00000     0.39803    0.00096     0.39899
      H   24    0.09917      0.00000     0.39989    0.00094     0.40083
      H   25    0.09901      0.00000     0.39953    0.00146     0.40099
      H   26    0.09081      0.00000     0.40803    0.00116     0.40919
      H   27    0.07997      0.00000     0.41866    0.00137     0.42003
      H   28    0.10145      0.00000     0.39706    0.00148     0.39855
      H   29    0.10902      0.00000     0.38850    0.00248     0.39098
      H   30    0.09279      0.00000     0.40526    0.00195     0.40721
      H   31    0.09139      0.00000     0.40666    0.00195     0.40861
      H   32    0.10107      0.00000     0.39769    0.00124     0.39893
      H   33    0.08461      0.00000     0.41432    0.00107     0.41539
      H   34    0.08429      0.00000     0.41452    0.00119     0.41571
      H   35    0.09353      0.00000     0.40471    0.00176     0.40647
      H   36    0.17134      0.00000     0.32706    0.00160     0.32866
      H   37    0.17374      0.00000     0.32468    0.00158     0.32626
 =======================================================================
   * Total *    0.00000     22.99242    50.75902    0.24856    74.00000

 Normal termination of Gaussian 16 at Sun Dec 13 14:56:45 2020.
