 Gaussian 16, Revision A.03,

 -----------------------------------------------------------
 # opt freq B3LYP/6-31G(d) empiricaldispersion=gd3bj scf=xqc
 -----------------------------------------------------------

 ------------------------------
 CID_83472480_JID_5964_neutraal
 ------------------------------
 Symbolic Z-matrix:
 Charge =  0 Multiplicity = 1

 SCF Done:  E(RB3LYP) =  -620.588031266     A.U. after   13 cycles
 SCF Done:  E(RB3LYP) =  -620.593784826     A.U. after   11 cycles
 SCF Done:  E(RB3LYP) =  -620.594598187     A.U. after   10 cycles
 SCF Done:  E(RB3LYP) =  -620.595310370     A.U. after   11 cycles
 SCF Done:  E(RB3LYP) =  -620.595704354     A.U. after   10 cycles
 SCF Done:  E(RB3LYP) =  -620.596243804     A.U. after   10 cycles
 SCF Done:  E(RB3LYP) =  -620.596445319     A.U. after   10 cycles
 SCF Done:  E(RB3LYP) =  -620.596661095     A.U. after   10 cycles
 SCF Done:  E(RB3LYP) =  -620.596820452     A.U. after   10 cycles
 SCF Done:  E(RB3LYP) =  -620.596899529     A.U. after   10 cycles
 SCF Done:  E(RB3LYP) =  -620.597495151     A.U. after    9 cycles
 SCF Done:  E(RB3LYP) =  -620.597496764     A.U. after    9 cycles
 SCF Done:  E(RB3LYP) =  -620.597497365     A.U. after    8 cycles
 SCF Done:  E(RB3LYP) =  -620.597497572     A.U. after    8 cycles
 SCF Done:  E(RB3LYP) =  -620.597497615     A.U. after    6 cycles
 SCF Done:  E(RB3LYP) =  -620.597497639     A.U. after    7 cycles
 Optimization completed.
    -- Stationary point found.
 Normal termination of Gaussian 16 at Thu Dec 10 18:13:23 2020.

 --------------------------------------------------------------------
 #N Geom=AllCheck Guess=TCheck SCRF=Check GenChk RB3LYP/6-31G(d) Freq
 --------------------------------------------------------------------

 Structure from the checkpoint file:  "JID_5964.chk"
 ------------------------------
 CID_83472480_JID_5964_neutraal
 ------------------------------
 Charge =  0 Multiplicity = 1

 SCF Done:  E(RB3LYP) =  -620.597497639     A.U. after    1 cycles

  Exact polarizability: 187.264  -0.175 135.714   0.811  -0.182 123.076
 Approx polarizability: 201.174  -0.245 196.526  -0.127  -0.735 195.723

                      1                      2                      3
                      A                      A                      A
 Frequencies --      7.7981                11.4829                39.1078
 Red. masses --      1.7533                 2.8928                 3.1940
 Frc consts  --      0.0001                 0.0002                 0.0029
 IR Inten    --      0.0112                 0.0239                 0.0333

                      4                      5                      6
                      A                      A                      A
 Frequencies --     46.1927                60.6352                93.6196
 Red. masses --      2.7576                 2.3573                 2.2042
 Frc consts  --      0.0035                 0.0051                 0.0114
 IR Inten    --      0.1849                 0.0719                 0.1105

                      7                      8                      9
                      A                      A                      A
 Frequencies --    103.9400               121.9570               146.9147
 Red. masses --      2.1427                 3.1491                 2.4009
 Frc consts  --      0.0136                 0.0276                 0.0305
 IR Inten    --      0.2970                 0.5897                 0.1320

                     10                     11                     12
                      A                      A                      A
 Frequencies --    196.4255               201.3605               207.0762
 Red. masses --      1.8949                 2.0324                 3.9536
 Frc consts  --      0.0431                 0.0486                 0.0999
 IR Inten    --      0.5487                 1.7859                 0.2942

                     13                     14                     15
                      A                      A                      A
 Frequencies --    251.1291               272.3979               344.2818
 Red. masses --      1.9261                 2.2770                 2.4023
 Frc consts  --      0.0716                 0.0995                 0.1678
 IR Inten    --      0.8934                 0.5580                 2.6929

                     16                     17                     18
                      A                      A                      A
 Frequencies --    364.7094               399.7972               437.5947
 Red. masses --      2.0644                 2.5029                 2.0122
 Frc consts  --      0.1618                 0.2357                 0.2270
 IR Inten    --      2.6601                 2.8151                 3.8813

                     19                     20                     21
                      A                      A                      A
 Frequencies --    464.1803               509.2359               563.2140
 Red. masses --      2.5155                 2.3708                 3.2532
 Frc consts  --      0.3193                 0.3622                 0.6080
 IR Inten    --      2.1674                 0.1375                 0.4349

                     22                     23                     24
                      A                      A                      A
 Frequencies --    597.3559               631.9603               661.3887
 Red. masses --      2.9646                 2.6868                 2.8390
 Frc consts  --      0.6233                 0.6322                 0.7317
 IR Inten    --      3.3381                 0.5305                 4.0231

                     25                     26                     27
                      A                      A                      A
 Frequencies --    768.4981               775.2348               801.1520
 Red. masses --      1.3940                 1.2445                 1.3686
 Frc consts  --      0.4851                 0.4407                 0.5175
 IR Inten    --      2.8534                 6.4883                28.6069

                     28                     29                     30
                      A                      A                      A
 Frequencies --    823.2979               839.7466               864.8594
 Red. masses --      1.5748                 1.4851                 2.8312
 Frc consts  --      0.6289                 0.6170                 1.2477
 IR Inten    --      4.1294                22.1896                 0.3660

                     31                     32                     33
                      A                      A                      A
 Frequencies --    884.0423               889.2495               905.4519
 Red. masses --      2.3534                 3.0519                 2.3606
 Frc consts  --      1.0837                 1.4219                 1.1403
 IR Inten    --      1.5689                 0.4759                 0.6312

                     34                     35                     36
                      A                      A                      A
 Frequencies --    924.6284               936.4625               957.0544
 Red. masses --      2.2214                 1.4701                 1.5014
 Frc consts  --      1.1190                 0.7596                 0.8102
 IR Inten    --      5.4499                 8.3026                 3.5601

                     37                     38                     39
                      A                      A                      A
 Frequencies --    966.7428               989.8593               996.9384
 Red. masses --      2.1119                 1.4326                 1.4355
 Frc consts  --      1.1629                 0.8270                 0.8406
 IR Inten    --      3.5943                 1.3668                 0.4843

                     40                     41                     42
                      A                      A                      A
 Frequencies --    999.8847              1033.8645              1047.4899
 Red. masses --      1.7913                 1.9100                 2.2781
 Frc consts  --      1.0552                 1.2029                 1.4728
 IR Inten    --      1.8753                 0.1552                 4.3214

                     43                     44                     45
                      A                      A                      A
 Frequencies --   1060.4423              1064.5505              1083.4171
 Red. masses --      1.9493                 2.4294                 2.3957
 Frc consts  --      1.2915                 1.6221                 1.6568
 IR Inten    --      7.0559                 2.8828                 8.6862

                     46                     47                     48
                      A                      A                      A
 Frequencies --   1099.6265              1110.5529              1144.9989
 Red. masses --      2.5676                 1.7981                 1.9142
 Frc consts  --      1.8292                 1.3066                 1.4786
 IR Inten    --      1.2895                 7.0057                 4.1779

                     49                     50                     51
                      A                      A                      A
 Frequencies --   1148.2235              1172.3384              1176.5607
 Red. masses --      1.9371                 2.3665                 2.8775
 Frc consts  --      1.5047                 1.9163                 2.3469
 IR Inten    --      7.7929                35.0206                27.4496

                     52                     53                     54
                      A                      A                      A
 Frequencies --   1184.0308              1207.6436              1212.9221
 Red. masses --      2.4069                 1.2884                 2.1048
 Frc consts  --      1.9881                 1.1071                 1.8244
 IR Inten    --      8.7281                 2.1005                19.3387

                     55                     56                     57
                      A                      A                      A
 Frequencies --   1216.8937              1227.9308              1252.7375
 Red. masses --      1.5299                 1.4307                 1.3618
 Frc consts  --      1.3348                 1.2710                 1.2592
 IR Inten    --      2.5680                14.4762                 7.4002

                     58                     59                     60
                      A                      A                      A
 Frequencies --   1255.3811              1271.2733              1277.2084
 Red. masses --      1.3883                 1.2138                 1.3656
 Frc consts  --      1.2891                 1.1558                 1.3125
 IR Inten    --      4.6188                 7.1549                 1.3745

                     61                     62                     63
                      A                      A                      A
 Frequencies --   1289.9466              1298.8448              1315.0264
 Red. masses --      1.2528                 1.2459                 1.2735
 Frc consts  --      1.2282                 1.2384                 1.2975
 IR Inten    --     20.6207                 3.4962                 7.4260

                     64                     65                     66
                      A                      A                      A
 Frequencies --   1317.3839              1328.7681              1337.9646
 Red. masses --      1.2981                 1.2232                 1.2779
 Frc consts  --      1.3273                 1.2724                 1.3478
 IR Inten    --      2.3798                 1.5734                 2.0106

                     67                     68                     69
                      A                      A                      A
 Frequencies --   1344.4420              1349.2725              1355.3841
 Red. masses --      1.2888                 1.3535                 1.3507
 Frc consts  --      1.3725                 1.4518                 1.4620
 IR Inten    --     23.1822                 5.1077                 0.9221

                     70                     71                     72
                      A                      A                      A
 Frequencies --   1367.7562              1376.2845              1384.0409
 Red. masses --      1.3112                 1.3104                 1.3831
 Frc consts  --      1.4452                 1.4624                 1.5610
 IR Inten    --      1.6960                 4.1534                 6.1180

                     73                     74                     75
                      A                      A                      A
 Frequencies --   1391.8458              1410.0799              1413.8886
 Red. masses --      1.3749                 1.4948                 1.5803
 Frc consts  --      1.5693                 1.7511                 1.8613
 IR Inten    --      5.8929                11.5823                57.7465

                     76                     77                     78
                      A                      A                      A
 Frequencies --   1432.6642              1439.4330              1449.3862
 Red. masses --      1.5092                 1.3950                 1.3194
 Frc consts  --      1.8251                 1.7029                 1.6330
 IR Inten    --      9.0914                 2.5193                12.1176

                     79                     80                     81
                      A                      A                      A
 Frequencies --   1514.4960              1516.0598              1518.4017
 Red. masses --      1.0721                 1.0836                 1.2156
 Frc consts  --      1.4488                 1.4674                 1.6513
 IR Inten    --      2.1219                 1.0401                18.1349

                     82                     83                     84
                      A                      A                      A
 Frequencies --   1522.5211              1523.5202              1527.0984
 Red. masses --      1.1002                 1.0876                 1.1157
 Frc consts  --      1.5026                 1.4874                 1.5329
 IR Inten    --      1.0786                 9.8189                 4.0138

                     85                     86                     87
                      A                      A                      A
 Frequencies --   1529.1243              1531.2401              1537.0188
 Red. masses --      1.0858                 1.0508                 1.0612
 Frc consts  --      1.4958                 1.4517                 1.4772
 IR Inten    --      2.5771                 3.7718                 3.2849

                     88                     89                     90
                      A                      A                      A
 Frequencies --   1537.9813              1545.2391              1552.1411
 Red. masses --      1.0793                 1.0873                 1.1064
 Frc consts  --      1.5042                 1.5296                 1.5705
 IR Inten    --      2.1897                 9.0192                 0.3296

                     91                     92                     93
                      A                      A                      A
 Frequencies --   1557.5166              2887.3962              2895.5967
 Red. masses --      1.1030                 1.0736                 1.0746
 Frc consts  --      1.5765                 5.2736                 5.3085
 IR Inten    --      5.1028                31.1969                70.9670

                     94                     95                     96
                      A                      A                      A
 Frequencies --   2897.1454              2909.1947              2916.9440
 Red. masses --      1.0800                 1.0736                 1.0736
 Frc consts  --      5.3411                 5.3533                 5.3819
 IR Inten    --     30.7754                25.0552               192.8100

                     97                     98                     99
                      A                      A                      A
 Frequencies --   3041.4807              3048.9529              3051.0877
 Red. masses --      1.0655                 1.0609                 1.0389
 Frc consts  --      5.8071                 5.8105                 5.6981
 IR Inten    --     16.7088                18.7380                27.6523

                    100                    101                    102
                      A                      A                      A
 Frequencies --   3053.8383              3056.4461              3060.0936
 Red. masses --      1.0632                 1.0669                 1.0723
 Frc consts  --      5.8418                 5.8725                 5.9163
 IR Inten    --     32.2770                34.0085                10.5304

                    103                    104                    105
                      A                      A                      A
 Frequencies --   3061.3864              3064.0615              3070.5169
 Red. masses --      1.0729                 1.0836                 1.0662
 Frc consts  --      5.9243                 5.9939                 5.9227
 IR Inten    --     49.3508                39.6144                50.4649

                    106                    107                    108
                      A                      A                      A
 Frequencies --   3072.5393              3080.8839              3086.2216
 Red. masses --      1.0862                 1.1001                 1.0904
 Frc consts  --      6.0415                 6.1525                 6.1191
 IR Inten    --      8.7207                22.8476                26.2064

                    109                    110                    111
                      A                      A                      A
 Frequencies --   3086.6358              3097.6118              3099.4436
 Red. masses --      1.0992                 1.1008                 1.0903
 Frc consts  --      6.1699                 6.2234                 6.1712
 IR Inten    --     55.4162                 8.5137                31.2012

                    112                    113                    114
                      A                      A                      A
 Frequencies --   3105.1121              3110.8491              3115.4700
 Red. masses --      1.1031                 1.1018                 1.0986
 Frc consts  --      6.2662                 6.2821                 6.2823
 IR Inten    --     19.5808                37.0316                55.8725

                    115                    116                    117
                      A                      A                      A
 Frequencies --   3118.1263              3134.9634              3471.9996
 Red. masses --      1.1054                 1.0988                 1.0732
 Frc consts  --      6.3320                 6.3628                 7.6222
 IR Inten    --     90.7629                44.4919                 1.4212

 - Thermochemistry -
 -------------------
 Temperature   298.150 Kelvin.  Pressure   1.00000 Atm.
 Atom     1 has atomic number  6 and mass  12.00000

 Molecular mass:   210.20960 amu.
 Principal axes and moments of inertia in atomic units:
                           1         2         3
     Eigenvalues --   804.29649********************
           X            1.00000   0.00188   0.00233
           Y           -0.00188   1.00000  -0.00020
           Z           -0.00233   0.00019   1.00000
 This molecule is an asymmetric top.
 Rotational symmetry number  1.
 Warning -- assumption of classical behavior for rotation
           may cause significant error
 Rotational temperatures (Kelvin)      0.10769     0.00821     0.00792
 Rotational constants (GHZ):           2.24388     0.17115     0.16501
 Zero-point vibrational energy    1007337.7 (Joules/Mol)
                                  240.75949 (Kcal/Mol)
 Warning -- explicit consideration of  22 degrees of freedom as
           vibrations may cause significant error
 Vibrational temperatures:     11.22    16.52    56.27    66.46    87.24
          (Kelvin)            134.70   149.55   175.47   211.38   282.61
                              289.71   297.94   361.32   391.92   495.34
                              524.74   575.22   629.60   667.85   732.68
                              810.34   859.46   909.25   951.59  1105.70
                             1115.39  1152.68  1184.54  1208.21  1244.34
                             1271.94  1279.43  1302.74  1330.33  1347.36
                             1376.99  1390.93  1424.19  1434.37  1438.61
                             1487.50  1507.10  1525.74  1531.65  1558.80
                             1582.12  1597.84  1647.40  1652.04  1686.73
                             1692.81  1703.56  1737.53  1745.12  1750.84
                             1766.72  1802.41  1806.21  1829.08  1837.62
                             1855.95  1868.75  1892.03  1895.42  1911.80
                             1925.03  1934.35  1941.30  1950.10  1967.90
                             1980.17  1991.33  2002.56  2028.79  2034.27
                             2061.28  2071.02  2085.34  2179.02  2181.27
                             2184.64  2190.57  2192.01  2197.15  2200.07
                             2203.11  2211.43  2212.81  2223.25  2233.18
                             2240.92  4154.32  4166.12  4168.35  4185.68
                             4196.83  4376.01  4386.76  4389.83  4393.79
                             4397.54  4402.79  4404.65  4408.50  4417.79
                             4420.70  4432.70  4440.38  4440.98  4456.77
                             4459.41  4467.56  4475.82  4482.47  4486.29
                             4510.51  4995.43

 Zero-point correction=                           0.383675 (Hartree/Particle)
 Thermal correction to Energy=                    0.400212
 Thermal correction to Enthalpy=                  0.401156
 Thermal correction to Gibbs Free Energy=         0.334972
 Sum of electronic and zero-point Energies=           -620.213823
 Sum of electronic and thermal Energies=              -620.197286
 Sum of electronic and thermal Enthalpies=            -620.196341
 Sum of electronic and thermal Free Energies=         -620.262526

                     E (Thermal)             CV                S
                      KCal/Mol        Cal/Mol-Kelvin    Cal/Mol-Kelvin
 Total                  251.137             61.169            139.297
 Electronic               0.000              0.000              0.000
 Translational            0.889              2.981             41.933
 Rotational               0.889              2.981             32.895
 Vibrational            249.359             55.207             64.470
 Vibration     1          0.593              1.987              8.505
 Vibration     2          0.593              1.987              7.736
 Vibration     3          0.594              1.981              5.304
 Vibration     4          0.595              1.979              4.974
 Vibration     5          0.597              1.973              4.436
 Vibration     6          0.603              1.954              3.583
 Vibration     7          0.605              1.946              3.379
 Vibration     8          0.609              1.931              3.069
 Vibration     9          0.617              1.906              2.712
 Vibration    10          0.636              1.845              2.166
 Vibration    11          0.638              1.838              2.121
 Vibration    12          0.641              1.830              2.069
 Vibration    13          0.663              1.761              1.723
 Vibration    14          0.675              1.724              1.581
 Vibration    15          0.723              1.587              1.192
 Vibration    16          0.738              1.545              1.102
 Vibration    17          0.766              1.471              0.963
 Vibration    18          0.798              1.388              0.834
 Vibration    19          0.822              1.330              0.754
 Vibration    20          0.864              1.230              0.635
 Vibration    21          0.919              1.111              0.517
 Vibration    22          0.955              1.037              0.454

                           ! Non-Optimized Parameters !
 Normal termination of Gaussian 16 at Thu Dec 10 18:24:38 2020.

 ----------------------------------------------------------------------
 # B3LYP/6-311++G(d,p) empiricaldispersion=gd3bj scf=xqc pop=npa geom=c
 heck
 ----------------------------------------------------------------------

 --------------------------------------
 CID_83472480_JID_5964_Energie_neutraal
 --------------------------------------
 Structure from the checkpoint file:  "JID_5964.chk"
 Charge =  0 Multiplicity = 1

 SCF Done:  E(RB3LYP) =  -620.770037555     A.U. after   13 cycles
 Normal termination of Gaussian 16 at Thu Dec 10 18:30:43 2020.

 ----------------------------------------------------------------------
 # B3LYP/6-311++G(d,p) empiricaldispersion=gd3bj scf=xqc pop=npa geom=c
 heck
 ----------------------------------------------------------------------

 ------------------------------------
 CID_83472480_JID_5964_Energie_kation
 ------------------------------------
 Structure from the checkpoint file:  "JID_5964.chk"
 Charge =  1 Multiplicity = 2

 SCF Done:  E(UB3LYP) =  -620.488201284     A.U. after   22 cycles
 Normal termination of Gaussian 16 at Thu Dec 10 18:45:05 2020.
 Gaussian 16:  ES64L-G16RevA.03 25-Dec-2016

 ----------------------------------------------------------------------
 # B3LYP/6-311++G(d,p) empiricaldispersion=gd3bj scf=xqc pop=npa geom=c
 heck
 ----------------------------------------------------------------------

 -----------------------------------
 CID_83472480_JID_5964_Energie_anion
 -----------------------------------
 Structure from the checkpoint file:  "JID_5964.chk"
 Charge = -1 Multiplicity = 2

                         Standard orientation:
 ---------------------------------------------------------------------
 Center     Atomic      Atomic             Coordinates (Angstroms)
 Number     Number       Type             X           Y           Z
 ---------------------------------------------------------------------
      1          6           0        5.797553    0.742652    0.895650
      2          6           0        5.372274   -0.267276   -0.176561
      3          6           0        4.049464   -1.001762    0.102810
      4          7           0        2.873087   -0.343877   -0.448722
      5          6           0        2.540611    0.962045    0.117806
      6          6           0        1.115457    1.236470   -0.396972
      7          6           0        0.521199   -0.172770   -0.692924
      8          6           0        1.653899   -1.131248   -0.289624
      9          6           0       -0.785618   -0.464417    0.039076
     10          7           0       -1.882078    0.338026   -0.495083
     11          6           0       -3.126936    0.213449    0.254673
     12          6           0       -4.197224    1.195100   -0.242818
     13          6           0       -5.538428    0.615745    0.261916
     14          6           0       -5.267571   -0.894745    0.535549
     15          6           0       -3.818251   -1.146678    0.073580
     16          1           0        5.070358    1.550344    1.020433
     17          1           0        6.760403    1.199815    0.640588
     18          1           0        5.911079    0.250198    1.868894
     19          1           0        5.291562    0.219138   -1.156581
     20          1           0        6.167089   -1.018092   -0.270755
     21          1           0        4.090759   -1.996967   -0.356247
     22          1           0        3.941821   -1.166290    1.196579
     23          1           0        3.257871    1.722726   -0.202143
     24          1           0        2.551739    0.936821    1.226604
     25          1           0        0.528821    1.784195    0.349996
     26          1           0        1.140447    1.846189   -1.304496
     27          1           0        0.331013   -0.266568   -1.766862
     28          1           0        1.515517   -1.457836    0.763461
     29          1           0        1.693903   -2.033618   -0.909969
     30          1           0       -1.045254   -1.522994   -0.087315
     31          1           0       -0.633153   -0.308098    1.127087
     32          1           0       -1.598647    1.317487   -0.486502
     33          1           0       -2.969459    0.376508    1.341346
     34          1           0       -4.021696    2.223506    0.093691
     35          1           0       -4.161285    1.196026   -1.339236
     36          1           0       -6.336200    0.763817   -0.472594
     37          1           0       -5.860488    1.119473    1.179607
     38          1           0       -5.979228   -1.547447    0.020442
     39          1           0       -5.364833   -1.107013    1.606309
     40          1           0       -3.782364   -1.399718   -0.993659
     41          1           0       -3.335412   -1.960038    0.624990
 ---------------------------------------------------------------------

 SCF Done:  E(UB3LYP) =  -620.755025171     A.U. after   29 cycles

 The electronic state is 2-A.
 Alpha  occ. eigenvalues --  -14.21056 -14.20418 -10.10039 -10.09949 -10.09823
 Alpha  occ. eigenvalues --  -10.09733 -10.09731 -10.08088 -10.07549 -10.07506
 Alpha  occ. eigenvalues --  -10.07432 -10.07380 -10.07007 -10.06963 -10.06705
 Alpha  occ. eigenvalues --   -0.84490  -0.81922  -0.73513  -0.70748  -0.66979
 Alpha  occ. eigenvalues --   -0.64358  -0.61949  -0.60771  -0.58348  -0.55137
 Alpha  occ. eigenvalues --   -0.50929  -0.48562  -0.47843  -0.47022  -0.46303
 Alpha  occ. eigenvalues --   -0.41383  -0.40899  -0.39551  -0.38777  -0.36481
 Alpha  occ. eigenvalues --   -0.36265  -0.34625  -0.34483  -0.32990  -0.32388
 Alpha  occ. eigenvalues --   -0.31768  -0.31164  -0.30043  -0.29232  -0.28320
 Alpha  occ. eigenvalues --   -0.27181  -0.25576  -0.25164  -0.25051  -0.24858
 Alpha  occ. eigenvalues --   -0.24315  -0.23829  -0.23766  -0.23211  -0.22824
 Alpha  occ. eigenvalues --   -0.22727  -0.22188  -0.13948  -0.12835   0.04159
 Alpha virt. eigenvalues --    0.05455   0.06617   0.07009   0.07168   0.07528
 Alpha virt. eigenvalues --    0.07987   0.08794   0.08899   0.09458   0.09814
 Alpha virt. eigenvalues --    0.10109   0.10707   0.10778   0.11118   0.11432

  Beta  occ. eigenvalues --  -14.21049 -14.20408 -10.10028 -10.09937 -10.09814
  Beta  occ. eigenvalues --  -10.09723 -10.09715 -10.08086 -10.07533 -10.07492
  Beta  occ. eigenvalues --  -10.07416 -10.07362 -10.06992 -10.06955 -10.06676
  Beta  occ. eigenvalues --   -0.84474  -0.81904  -0.73489  -0.70725  -0.66950
  Beta  occ. eigenvalues --   -0.64333  -0.61916  -0.60737  -0.58306  -0.55102
  Beta  occ. eigenvalues --   -0.50874  -0.48524  -0.47794  -0.46980  -0.46262
  Beta  occ. eigenvalues --   -0.41359  -0.40870  -0.39514  -0.38737  -0.36450
  Beta  occ. eigenvalues --   -0.36233  -0.34599  -0.34456  -0.32961  -0.32367
  Beta  occ. eigenvalues --   -0.31738  -0.31138  -0.30017  -0.29202  -0.28289
  Beta  occ. eigenvalues --   -0.27147  -0.25549  -0.25132  -0.25016  -0.24822
  Beta  occ. eigenvalues --   -0.24290  -0.23797  -0.23738  -0.23189  -0.22796
  Beta  occ. eigenvalues --   -0.22705  -0.22167  -0.13914  -0.12792
  Beta virt. eigenvalues --    0.06024   0.06312   0.07215   0.07385   0.07420
  Beta virt. eigenvalues --    0.07971   0.08221   0.09094   0.09218   0.09670
  Beta virt. eigenvalues --    0.10033   0.10317   0.10917   0.11109   0.11288

 Mulliken charges and spin densities:
               1          2
     1  C    0.703592  -1.206719
     2  C   -0.779274   0.540252
     3  C    0.313790  -0.426697
     4  N    0.162558   0.074864
     5  C   -0.252753  -0.190083
     6  C    0.872199  -1.262438
     7  C   -0.785337   1.132198
     8  C   -0.234822  -0.560844
     9  C   -0.436252  -0.278503
    10  N    0.145946   0.018826
    11  C   -0.606270   0.712419
    12  C    0.748849  -1.099422
    13  C    0.145999  -0.609973
    14  C    0.433338  -1.007146
    15  C   -0.102894  -0.018023
    16  H   -0.220964   0.343980
    17  H   -0.385499   0.523307
    18  H   -0.062473   0.195429
    19  H    0.120881   0.030076
    20  H   -0.324016   0.465479
    21  H   -0.111050   0.251529
    22  H    0.037463   0.044072
    23  H    0.044426   0.131326
    24  H    0.094253   0.043047
    25  H   -0.298071   0.440318
    26  H    0.076301   0.083152
    27  H    0.085012   0.108479
    28  H   -0.000873   0.133642
    29  H    0.001944   0.165439
    30  H    0.113220   0.046308
    31  H   -0.183832   0.319598
    32  H    0.123688   0.122499
    33  H   -0.054539   0.200914
    34  H   -0.283052   0.437349
    35  H    0.155656  -0.013571
    36  H    0.029736   0.101433
    37  H   -0.217721   0.374191
    38  H    0.002969   0.133652
    39  H   -0.156857   0.308117
    40  H    0.066233   0.078907
    41  H    0.018495   0.112616
 Sum of Mulliken charges =  -1.00000   1.00000

 Dipole moment (field-independent basis, Debye):
    X=             -2.0514    Y=             -1.8951    Z=             -2.8325  Tot=              3.9777
 Quadrupole moment (field-independent basis, Debye-Ang):
   XX=           -239.8503   YY=           -136.6391   ZZ=           -131.0718
   XY=              1.8885   XZ=              4.8685   YZ=             -3.2108

 Summary of Natural Population Analysis:

                                       Natural Population
                Natural  -----------------------------------------------
    Atom  No    Charge         Core      Valence    Rydberg      Total
 -----------------------------------------------------------------------
      C    1   -0.28609      0.99967     2.28136    0.00507     3.28609
      C    2   -0.19853      0.99964     2.19031    0.00858     3.19853
      C    3   -0.08128      0.99961     2.06934    0.01233     3.08128
      N    4   -0.27806      0.99971     2.76723    0.01112     3.77806
      C    5   -0.08668      0.99963     2.07551    0.01154     3.08668
      C    6   -0.19440      0.99962     2.18572    0.00906     3.19440
      C    7   -0.11721      0.99959     2.10755    0.01006     3.11721
      C    8   -0.07766      0.99961     2.06924    0.00880     3.07766
      C    9   -0.08242      0.99960     2.07172    0.01111     3.08242
      N   10   -0.33603      0.99972     2.82641    0.00990     3.83603
      C   11   -0.00955      0.99958     1.99687    0.01310     3.00955
      C   12   -0.19307      0.99962     2.18378    0.00967     3.19307
      C   13   -0.19326      0.99965     2.18590    0.00772     3.19326
      C   14   -0.19328      0.99965     2.18555    0.00808     3.19328
      C   15   -0.19386      0.99961     2.18721    0.00703     3.19386
      H   16    0.09702      0.00000     0.40171    0.00126     0.40298
      H   17    0.09894      0.00000     0.39992    0.00115     0.40106
      H   18    0.09576      0.00000     0.40307    0.00118     0.40424
      H   19    0.09894      0.00000     0.39962    0.00144     0.40106
      H   20    0.09671      0.00000     0.40215    0.00114     0.40329
      H   21    0.09500      0.00000     0.40366    0.00134     0.40500
      H   22    0.07777      0.00000     0.42075    0.00149     0.42223
      H   23    0.09730      0.00000     0.40109    0.00161     0.40270
      H   24    0.07988      0.00000     0.41851    0.00160     0.42012
      H   25    0.09917      0.00000     0.39961    0.00122     0.40083
      H   26    0.10015      0.00000     0.39874    0.00111     0.39985
      H   27    0.10135      0.00000     0.39695    0.00169     0.39865
      H   28    0.07860      0.00000     0.41987    0.00153     0.42140
      H   29    0.09681      0.00000     0.40196    0.00124     0.40319
      H   30    0.09220      0.00000     0.40628    0.00152     0.40780
      H   31    0.07915      0.00000     0.41908    0.00177     0.42085
      H   32    0.17147      0.00000     0.32472    0.00380     0.32853
      H   33    0.08021      0.00000     0.41779    0.00200     0.41979
      H   34    0.10129      0.00000     0.39747    0.00123     0.39871
      H   35    0.09710      0.00000     0.40141    0.00148     0.40290
      H   36    0.09602      0.00000     0.40310    0.00088     0.40398
      H   37    0.09885      0.00000     0.39974    0.00141     0.40115
      H   38    0.09686      0.00000     0.40230    0.00085     0.40314
      H   39    0.09740      0.00000     0.40131    0.00129     0.40260
      H   40    0.09708      0.00000     0.40152    0.00139     0.40292
      H   41    0.10036      0.00000     0.39857    0.00107     0.39964
 =======================================================================
   * Total *    0.00000     14.99450    43.82462    0.18088    59.00000

 Normal termination of Gaussian 16 at Thu Dec 10 19:03:38 2020.
