 Gaussian 16, Revision A.03,

 -----------------------------------------------------------
 # opt freq B3LYP/6-31G(d) empiricaldispersion=gd3bj scf=xqc
 -----------------------------------------------------------

 -------------------------------
 CID_119827655_JID_6057_neutraal
 -------------------------------
 Symbolic Z-matrix:
 Charge =  0 Multiplicity = 1

 SCF Done:  E(RB3LYP) =  -742.953364733     A.U. after   15 cycles
 SCF Done:  E(RB3LYP) =  -742.959851339     A.U. after   12 cycles
 SCF Done:  E(RB3LYP) =  -742.960690021     A.U. after   12 cycles
 SCF Done:  E(RB3LYP) =  -742.961313593     A.U. after   12 cycles
 SCF Done:  E(RB3LYP) =  -742.961577991     A.U. after   12 cycles
 SCF Done:  E(RB3LYP) =  -742.961955278     A.U. after   12 cycles
 SCF Done:  E(RB3LYP) =  -742.962370426     A.U. after   12 cycles
 SCF Done:  E(RB3LYP) =  -742.962578676     A.U. after   12 cycles
 SCF Done:  E(RB3LYP) =  -742.962863739     A.U. after   12 cycles
 SCF Done:  E(RB3LYP) =  -742.962176493     A.U. after   13 cycles
 SCF Done:  E(RB3LYP) =  -742.963818658     A.U. after    9 cycles
 SCF Done:  E(RB3LYP) =  -742.963818862     A.U. after    8 cycles
 SCF Done:  E(RB3LYP) =  -742.963818972     A.U. after    8 cycles
 SCF Done:  E(RB3LYP) =  -742.963819089     A.U. after    7 cycles
 SCF Done:  E(RB3LYP) =  -742.963819129     A.U. after    6 cycles
 Optimization completed.
    -- Stationary point found.
 Normal termination of Gaussian 16 at Thu Dec 10 21:18:27 2020.

 --------------------------------------------------------------------
 #N Geom=AllCheck Guess=TCheck SCRF=Check GenChk RB3LYP/6-31G(d) Freq
 --------------------------------------------------------------------

 Structure from the checkpoint file:  "JID_6057.chk"
 -------------------------------
 CID_119827655_JID_6057_neutraal
 -------------------------------
 Charge =  0 Multiplicity = 1

 SCF Done:  E(RB3LYP) =  -742.963819129     A.U. after    1 cycles

  Exact polarizability: 205.507  -7.860 137.164   1.514  -0.628  83.482
 Approx polarizability: 272.555 -20.861 228.605  -1.163  -1.502 125.239

                      1                      2                      3
                      A                      A                      A
 Frequencies --     18.6145                30.2282                58.6434
 Red. masses --      4.7735                 4.3199                 3.2597
 Frc consts  --      0.0010                 0.0023                 0.0066
 IR Inten    --      1.2428                 2.4323                 0.1224

                      4                      5                      6
                      A                      A                      A
 Frequencies --     69.8947                76.5179               129.0353
 Red. masses --      1.4357                 2.4923                 4.2748
 Frc consts  --      0.0041                 0.0086                 0.0419
 IR Inten    --      0.2124                 0.1579                 2.3480

                      7                      8                      9
                      A                      A                      A
 Frequencies --    159.4545               189.1105               225.2424
 Red. masses --      4.1282                 5.3478                 3.9348
 Frc consts  --      0.0618                 0.1127                 0.1176
 IR Inten    --      3.7459                 3.2904                 4.8051

                     10                     11                     12
                      A                      A                      A
 Frequencies --    251.1227               309.4071               329.9655
 Red. masses --      4.5005                 4.3952                 3.7329
 Frc consts  --      0.1672                 0.2479                 0.2395
 IR Inten    --      0.3516                 7.7423                 1.3590

                     13                     14                     15
                      A                      A                      A
 Frequencies --    356.0445               378.8520               405.4014
 Red. masses --      3.0318                 7.9388                 1.9891
 Frc consts  --      0.2264                 0.6713                 0.1926
 IR Inten    --      0.2858                 7.1112                 0.3547

                     16                     17                     18
                      A                      A                      A
 Frequencies --    419.6038               425.7162               524.6996
 Red. masses --      2.8211                 3.9770                 2.1413
 Frc consts  --      0.2927                 0.4247                 0.3473
 IR Inten    --      1.4171                 1.3120                62.9266

                     19                     20                     21
                      A                      A                      A
 Frequencies --    529.8949               590.3799               607.8631
 Red. masses --      2.5042                 5.3673                 2.4561
 Frc consts  --      0.4143                 1.1022                 0.5347
 IR Inten    --      2.7539                18.8037                91.1123

                     22                     23                     24
                      A                      A                      A
 Frequencies --    630.3282               647.9560               671.6927
 Red. masses --      1.2874                 1.4976                 5.2683
 Frc consts  --      0.3014                 0.3705                 1.4004
 IR Inten    --    157.6050                36.9701                 2.5026

                     25                     26                     27
                      A                      A                      A
 Frequencies --    747.7392               749.8356               765.6032
 Red. masses --      4.0449                 3.6325                 3.7839
 Frc consts  --      1.3325                 1.2033                 1.3068
 IR Inten    --     45.3504                 1.7493                 8.5546

                     28                     29                     30
                      A                      A                      A
 Frequencies --    811.5067               823.4314               835.1908
 Red. masses --      4.6042                 4.5424                 1.6309
 Frc consts  --      1.7864                 1.8147                 0.6703
 IR Inten    --      7.1017                 3.6508                27.0610

                     31                     32                     33
                      A                      A                      A
 Frequencies --    842.2573               871.9481               895.9730
 Red. masses --      2.3419                 3.2287                 2.7026
 Frc consts  --      0.9788                 1.4463                 1.2783
 IR Inten    --     13.3568                 7.9104                21.2484

                     34                     35                     36
                      A                      A                      A
 Frequencies --    942.5190               946.2190               976.3139
 Red. masses --      1.3165                 3.5946                 2.8162
 Frc consts  --      0.6891                 1.8962                 1.5816
 IR Inten    --      0.7585                12.0599                 0.8311

                     37                     38                     39
                      A                      A                      A
 Frequencies --    979.1941               990.7848              1020.0991
 Red. masses --      1.3875                 2.3639                 1.5233
 Frc consts  --      0.7838                 1.3672                 0.9340
 IR Inten    --      0.1460                 8.4679                 5.4169

                     40                     41                     42
                      A                      A                      A
 Frequencies --   1027.1395              1053.0668              1061.0950
 Red. masses --      1.9500                 2.7164                 1.7930
 Frc consts  --      1.2121                 1.7748                 1.1894
 IR Inten    --      5.0568                 5.0566                 9.7980

                     43                     44                     45
                      A                      A                      A
 Frequencies --   1079.3246              1113.6627              1151.3447
 Red. masses --      1.5005                 1.9928                 3.0759
 Frc consts  --      1.0299                 1.4562                 2.4023
 IR Inten    --      3.7558                44.6243                80.2359

                     46                     47                     48
                      A                      A                      A
 Frequencies --   1177.5013              1191.8526              1232.8641
 Red. masses --      1.2471                 1.1905                 1.3018
 Frc consts  --      1.0188                 0.9964                 1.1658
 IR Inten    --     13.4786                14.2843                57.9203

                     49                     50                     51
                      A                      A                      A
 Frequencies --   1235.6739              1253.2322              1260.4058
 Red. masses --      2.5124                 1.3124                 2.6575
 Frc consts  --      2.2602                 1.2144                 2.4874
 IR Inten    --     80.6697                25.3501                 8.3328

                     52                     53                     54
                      A                      A                      A
 Frequencies --   1281.5451              1297.6474              1326.1059
 Red. masses --      1.8186                 1.9871                 1.4065
 Frc consts  --      1.7598                 1.9715                 1.4573
 IR Inten    --    226.2732               143.2663                 4.3186

                     55                     56                     57
                      A                      A                      A
 Frequencies --   1339.9819              1359.6650              1362.0505
 Red. masses --      2.8067                 1.5019                 2.1936
 Frc consts  --      2.9693                 1.6359                 2.3976
 IR Inten    --     48.0871                 6.6866                 9.5425

                     58                     59                     60
                      A                      A                      A
 Frequencies --   1375.4209              1419.9934              1432.6988
 Red. masses --      1.4002                 2.2494                 1.5896
 Frc consts  --      1.5607                 2.6724                 1.9225
 IR Inten    --      4.7376                22.3677                75.3971

                     61                     62                     63
                      A                      A                      A
 Frequencies --   1447.6317              1466.9206              1496.4896
 Red. masses --      1.2477                 1.3940                 1.1885
 Frc consts  --      1.5406                 1.7673                 1.5682
 IR Inten    --      0.1733                55.4246                79.5902

                     64                     65                     66
                      A                      A                      A
 Frequencies --   1506.4638              1511.2122              1514.7226
 Red. masses --      1.6139                 1.1047                 1.0437
 Frc consts  --      2.1579                 1.4864                 1.4109
 IR Inten    --     56.5178                 3.3465                 6.0017

                     67                     68                     69
                      A                      A                      A
 Frequencies --   1532.7906              1546.4490              1547.1670
 Red. masses --      1.2891                 1.4391                 1.8171
 Frc consts  --      1.7845                 2.0278                 2.5628
 IR Inten    --     55.2898                48.9569               173.1010

                     70                     71                     72
                      A                      A                      A
 Frequencies --   1634.7685              1670.2838              1770.6779
 Red. masses --      5.1414                 5.8162                 7.2580
 Frc consts  --      8.0955                 9.5603                13.4075
 IR Inten    --     57.0656               103.7461               434.8143

                     73                     74                     75
                      A                      A                      A
 Frequencies --   2962.9886              3045.8967              3077.9061
 Red. masses --      1.0733                 1.0373                 1.0658
 Frc consts  --      5.5517                 5.6698                 5.9491
 IR Inten    --     94.9322                37.1713                10.4721

                     76                     77                     78
                      A                      A                      A
 Frequencies --   3094.7801              3098.5380              3103.0908
 Red. masses --      1.0903                 1.1014                 1.0866
 Frc consts  --      6.1527                 6.2301                 6.1648
 IR Inten    --     40.5828                17.8908                68.6956

                     79                     80                     81
                      A                      A                      A
 Frequencies --   3127.7646              3134.2171              3139.8769
 Red. masses --      1.1009                 1.0887                 1.0995
 Frc consts  --      6.3453                 6.3011                 6.3865
 IR Inten    --     12.9446                 6.3320                17.0432

                     82                     83                     84
                      A                      A                      A
 Frequencies --   3166.6957              3184.9064              3203.1963
 Red. masses --      1.0906                 1.0881                 1.0955
 Frc consts  --      6.4434                 6.5028                 6.6223
 IR Inten    --     30.3645                13.1552                11.0605

                     85                     86                     87
                      A                      A                      A
 Frequencies --   3566.5588              3579.5096              3585.3210
 Red. masses --      1.0761                 1.0755                 1.0669
 Frc consts  --      8.0647                 8.1188                 8.0806
 IR Inten    --      1.2964                42.4936               219.9618

 - Thermochemistry -
 -------------------
 Temperature   298.150 Kelvin.  Pressure   1.00000 Atm.
 Atom     1 has atomic number  6 and mass  12.00000

 Molecular mass:   221.11643 amu.
 Principal axes and moments of inertia in atomic units:
                           1         2         3
     Eigenvalues --  1365.144327012.635707723.93419
           X            0.99999   0.00278   0.00341
           Y           -0.00279   0.99999   0.00226
           Z           -0.00340  -0.00227   0.99999
 This molecule is an asymmetric top.
 Rotational symmetry number  1.
 Warning -- assumption of classical behavior for rotation
           may cause significant error
 Rotational temperatures (Kelvin)      0.06345     0.01235     0.01121
 Rotational constants (GHZ):           1.32201     0.25736     0.23366
 Zero-point vibrational energy     681772.0 (Joules/Mol)
                                  162.94742 (Kcal/Mol)
 Warning -- explicit consideration of  21 degrees of freedom as
           vibrations may cause significant error
 Vibrational temperatures:     26.78    43.49    84.37   100.56   110.09
          (Kelvin)            185.65   229.42   272.09   324.07   361.31
                              445.17   474.75   512.27   545.08   583.28
                              603.72   612.51   754.93   762.40   849.43
                              874.58   906.90   932.26   966.42  1075.83
                             1078.85  1101.53  1167.58  1184.73  1201.65
                             1211.82  1254.54  1289.11  1356.07  1361.40
                             1404.70  1408.84  1425.52  1467.70  1477.82
                             1515.13  1526.68  1552.91  1602.31  1656.53
                             1694.16  1714.81  1773.82  1777.86  1803.12
                             1813.44  1843.86  1867.03  1907.97  1927.94
                             1956.25  1959.69  1978.92  2043.05  2061.33
                             2082.82  2110.57  2153.11  2167.47  2174.30
                             2179.35  2205.34  2225.00  2226.03  2352.07
                             2403.17  2547.61  4263.08  4382.37  4428.42
                             4452.70  4458.11  4464.66  4500.16  4509.44
                             4517.58  4556.17  4582.37  4608.68  5131.48
                             5150.12  5158.48

 Zero-point correction=                           0.259673 (Hartree/Particle)
 Thermal correction to Energy=                    0.274368
 Thermal correction to Enthalpy=                  0.275312
 Thermal correction to Gibbs Free Energy=         0.215703
 Sum of electronic and zero-point Energies=           -742.704146
 Sum of electronic and thermal Energies=              -742.689451
 Sum of electronic and thermal Enthalpies=            -742.688507
 Sum of electronic and thermal Free Energies=         -742.748116

                     E (Thermal)             CV                S
                      KCal/Mol        Cal/Mol-Kelvin    Cal/Mol-Kelvin
 Total                  172.168             55.870            125.457
 Electronic               0.000              0.000              0.000
 Translational            0.889              2.981             42.083
 Rotational               0.889              2.981             32.669
 Vibrational            170.391             49.908             50.704
 Vibration     1          0.593              1.986              6.777
 Vibration     2          0.594              1.984              5.814
 Vibration     3          0.596              1.974              4.502
 Vibration     4          0.598              1.968              4.156
 Vibration     5          0.599              1.965              3.978
 Vibration     6          0.612              1.924              2.960
 Vibration     7          0.621              1.892              2.556
 Vibration     8          0.633              1.855              2.237
 Vibration     9          0.650              1.803              1.917
 Vibration    10          0.663              1.761              1.723
 Vibration    11          0.699              1.656              1.365
 Vibration    12          0.713              1.616              1.260
 Vibration    13          0.732              1.563              1.139
 Vibration    14          0.749              1.515              1.044
 Vibration    15          0.770              1.458              0.943
 Vibration    16          0.782              1.428              0.893
 Vibration    17          0.788              1.414              0.873
 Vibration    18          0.880              1.195              0.599
 Vibration    19          0.885              1.184              0.587
 Vibration    20          0.948              1.052              0.466
 Vibration    21          0.967              1.015              0.436

 Optimization completed.
    -- Stationary point found.
 Normal termination of Gaussian 16 at Thu Dec 10 21:27:29 2020.

 ----------------------------------------------------------------------
 # B3LYP/6-311++G(d,p) empiricaldispersion=gd3bj scf=xqc pop=npa geom=c
 heck
 ----------------------------------------------------------------------

 ---------------------------------------
 CID_119827655_JID_6057_Energie_neutraal
 ---------------------------------------
 Structure from the checkpoint file:  "JID_6057.chk"
 Charge =  0 Multiplicity = 1

 SCF Done:  E(RB3LYP) =  -743.181590884     A.U. after   16 cycles
 Normal termination of Gaussian 16 at Thu Dec 10 21:31:24 2020.

 ----------------------------------------------------------------------
 # B3LYP/6-311++G(d,p) empiricaldispersion=gd3bj scf=xqc pop=npa geom=c
 heck
 ----------------------------------------------------------------------

 -------------------------------------
 CID_119827655_JID_6057_Energie_kation
 -------------------------------------
 Structure from the checkpoint file:  "JID_6057.chk"
 Charge =  1 Multiplicity = 2

 SCF Done:  E(UB3LYP) =  -742.891682849     A.U. after   26 cycles
 Normal termination of Gaussian 16 at Thu Dec 10 21:39:55 2020.
 Gaussian 16:  ES64L-G16RevA.03 25-Dec-2016

 ----------------------------------------------------------------------
 # B3LYP/6-311++G(d,p) empiricaldispersion=gd3bj scf=xqc pop=npa geom=c
 heck
 ----------------------------------------------------------------------

 ------------------------------------
 CID_119827655_JID_6057_Energie_anion
 ------------------------------------
 Structure from the checkpoint file:  "JID_6057.chk"
 Charge = -1 Multiplicity = 2

                         Standard orientation:
 ---------------------------------------------------------------------
 Center     Atomic      Atomic             Coordinates (Angstroms)
 Number     Number       Type             X           Y           Z
 ---------------------------------------------------------------------
      1          6           0        5.121377   -1.368344    0.105114
      2          6           0        3.846991   -0.567168    0.057500
      3          6           0        2.594103   -1.176915    0.095175
      4          7           0        1.424163   -0.525307    0.073231
      5          6           0        1.450988    0.804363   -0.015112
      6          6           0        2.654663    1.532128   -0.066618
      7          6           0        3.849631    0.833828   -0.023765
      8          7           0        0.246274    1.517555   -0.029265
      9          6           0       -1.081293    1.134162   -0.155868
     10          8           0       -1.939523    1.984604    0.050563
     11          6           0       -1.431011   -0.308074   -0.538720
     12          6           0       -1.871411   -1.081712    0.734444
     13          6           0       -3.409833   -0.992844    0.683852
     14          6           0       -3.669147   -1.141080   -0.820546
     15          7           0       -2.613780   -0.308366   -1.411682
     16          8           0       -3.908904    0.222703    1.203725
     17          1           0        5.725566   -1.109382    0.983058
     18          1           0        4.911074   -2.441280    0.150892
     19          1           0        5.742374   -1.187084   -0.780477
     20          1           0        2.521699   -2.261747    0.159499
     21          1           0        2.641634    2.615299   -0.144970
     22          1           0        4.792181    1.374703   -0.060123
     23          1           0        0.319275    2.507648    0.176822
     24          1           0       -0.562898   -0.783549   -0.994082
     25          1           0       -1.541974   -2.122782    0.653857
     26          1           0       -1.468700   -0.667605    1.661600
     27          1           0       -3.884767   -1.792111    1.260303
     28          1           0       -4.662669   -0.767532   -1.088946
     29          1           0       -3.605381   -2.204480   -1.112258
     30          1           0       -2.384854   -0.566000   -2.364152
     31          1           0       -3.482091    0.950207    0.705954
 ---------------------------------------------------------------------

 SCF Done:  E(UB3LYP) =  -743.178725252     A.U. after   33 cycles
 SCF Done:  E(UB3LYP) =  -743.178725252     a.u. after    1 cycles

 The electronic state is 2-A.
 Alpha  occ. eigenvalues --  -19.00086 -18.97959 -14.23548 -14.19512 -14.16472
 Alpha  occ. eigenvalues --  -10.15570 -10.11935 -10.11719 -10.09592 -10.09196
 Alpha  occ. eigenvalues --  -10.07391 -10.06438 -10.05899 -10.05548 -10.05474
 Alpha  occ. eigenvalues --  -10.04705  -0.93580  -0.90968  -0.84605  -0.81193
 Alpha  occ. eigenvalues --   -0.78605  -0.68815  -0.65610  -0.64813  -0.63215
 Alpha  occ. eigenvalues --   -0.58311  -0.53915  -0.50546  -0.49857  -0.49099
 Alpha  occ. eigenvalues --   -0.45116  -0.43013  -0.41757  -0.39441  -0.37373
 Alpha  occ. eigenvalues --   -0.35474  -0.35007  -0.33813  -0.33174  -0.32027
 Alpha  occ. eigenvalues --   -0.31790  -0.31018  -0.30662  -0.29435  -0.28156
 Alpha  occ. eigenvalues --   -0.27445  -0.27266  -0.27018  -0.25866  -0.24840
 Alpha  occ. eigenvalues --   -0.24600  -0.21814  -0.19217  -0.16546  -0.16143
 Alpha  occ. eigenvalues --   -0.15924  -0.13829  -0.12094  -0.10715   0.04676
 Alpha virt. eigenvalues --    0.06526   0.07146   0.07971   0.08727   0.09071
 Alpha virt. eigenvalues --    0.09468   0.09892   0.10434   0.10816   0.10981
 Alpha virt. eigenvalues --    0.11980   0.12532   0.12840   0.13202   0.13785

  Beta  occ. eigenvalues --  -19.00087 -18.97848 -14.23601 -14.19509 -14.16104
  Beta  occ. eigenvalues --  -10.15431 -10.11851 -10.11715 -10.09604 -10.09187
  Beta  occ. eigenvalues --  -10.07340 -10.06407 -10.05883 -10.05565 -10.05458
  Beta  occ. eigenvalues --  -10.04403  -0.93387  -0.90954  -0.84339  -0.81178
  Beta  occ. eigenvalues --   -0.78324  -0.68429  -0.65520  -0.64650  -0.63160
  Beta  occ. eigenvalues --   -0.58123  -0.53682  -0.50306  -0.49754  -0.49038
  Beta  occ. eigenvalues --   -0.44925  -0.42892  -0.41702  -0.39368  -0.37298
  Beta  occ. eigenvalues --   -0.35343  -0.34886  -0.33722  -0.32959  -0.31881
  Beta  occ. eigenvalues --   -0.31543  -0.30848  -0.30573  -0.29370  -0.28053
  Beta  occ. eigenvalues --   -0.27180  -0.27003  -0.26716  -0.25824  -0.24596
  Beta  occ. eigenvalues --   -0.24459  -0.21752  -0.18725  -0.16165  -0.15814
  Beta  occ. eigenvalues --   -0.15044  -0.13518  -0.11969  -0.10138
  Beta virt. eigenvalues --    0.06641   0.07330   0.08141   0.08702   0.09250
  Beta virt. eigenvalues --    0.09408   0.09908   0.10075   0.10569   0.10910
  Beta virt. eigenvalues --    0.11166   0.11966   0.12663   0.12916   0.13253

 Mulliken charges and spin densities:
               1          2
     1  C    1.168584  -1.738351
     2  C    0.388045   0.404276
     3  C   -0.661282  -0.019917
     4  N   -0.041236   0.201967
     5  C    0.058214  -0.626341
     6  C   -0.366203   0.923630
     7  C   -0.740175   0.201884
     8  N   -0.087512  -0.009901
     9  C   -0.022689  -0.066753
    10  O   -0.320149   0.040090
    11  C   -0.210632   0.023086
    12  C   -0.074039  -0.298190
    13  C   -0.383441   0.015562
    14  C   -0.000918  -0.274328
    15  N   -0.104906   0.075213
    16  O   -0.192527  -0.000618
    17  H   -0.246114   0.402041
    18  H   -0.072198   0.199765
    19  H    0.128600   0.003654
    20  H   -0.162039   0.280067
    21  H   -0.122577   0.255121
    22  H   -0.224491   0.348776
    23  H    0.270147   0.020362
    24  H    0.213043   0.131324
    25  H    0.035253   0.117319
    26  H    0.160532   0.057745
    27  H    0.110989   0.061206
    28  H    0.162804   0.018229
    29  H   -0.101203   0.206190
    30  H    0.171831   0.054536
    31  H    0.266286  -0.007640
 Sum of Mulliken charges =  -1.00000   1.00000

 Dipole moment (field-independent basis, Debye):
    X=             -2.8573    Y=             -0.7217    Z=             -2.1475  Tot=              3.6465
 Quadrupole moment (field-independent basis, Debye-Ang):
   XX=           -181.4986   YY=           -120.2162   ZZ=           -112.8609
   XY=              9.6736   XZ=             -2.1486   YZ=             -0.4172

 Summary of Natural Population Analysis:

                                       Natural Population
                Natural  -----------------------------------------------
    Atom  No    Charge         Core      Valence    Rydberg      Total
 -----------------------------------------------------------------------
      C    1   -0.28802      0.99964     2.28359    0.00480     3.28802
      C    2   -0.04850      0.99951     2.04055    0.00844     3.04850
      C    3    0.04147      0.99953     1.94583    0.01317     2.95853
      N    4   -0.21893      0.99966     2.70704    0.01223     3.71893
      C    5    0.20158      0.99952     1.78536    0.01354     2.79842
      C    6   -0.13957      0.99953     2.13154    0.00850     3.13957
      C    7   -0.02777      0.99953     2.01820    0.01004     3.02777
      N    8   -0.31322      0.99964     2.80488    0.00870     3.81322
      C    9    0.37026      0.99966     1.60666    0.02342     2.62974
      O   10   -0.32558      0.99986     3.31980    0.00592     4.32558
      C   11   -0.05937      0.99956     2.04725    0.01257     3.05937
      C   12   -0.19902      0.99960     2.18935    0.01006     3.19902
      C   13    0.05600      0.99957     1.92664    0.01779     2.94400
      C   14   -0.10065      0.99962     2.08974    0.01130     3.10065
      N   15   -0.34544      0.99974     2.83479    0.01092     3.84544
      O   16   -0.38517      0.99989     3.37895    0.00633     4.38517
      H   17    0.10249      0.00000     0.39507    0.00244     0.39751
      H   18    0.09868      0.00000     0.40006    0.00126     0.40132
      H   19    0.09686      0.00000     0.40181    0.00133     0.40314
      H   20    0.08265      0.00000     0.41601    0.00134     0.41735
      H   21    0.09560      0.00000     0.40327    0.00113     0.40440
      H   22    0.09286      0.00000     0.40617    0.00097     0.40714
      H   23    0.19357      0.00000     0.30359    0.00284     0.30643
      H   24    0.11831      0.00000     0.37969    0.00200     0.38169
      H   25    0.10404      0.00000     0.39479    0.00117     0.39596
      H   26    0.11028      0.00000     0.38870    0.00103     0.38972
      H   27    0.08737      0.00000     0.41167    0.00095     0.41263
      H   28    0.09453      0.00000     0.40434    0.00113     0.40547
      H   29    0.08077      0.00000     0.41790    0.00133     0.41923
      H   30    0.17779      0.00000     0.32064    0.00158     0.32221
      H   31    0.24615      0.00000     0.25090    0.00295     0.25385
 =======================================================================
   * Total *    0.00000     15.99405    42.80478    0.20116    59.00000

 Normal termination of Gaussian 16 at Thu Dec 10 21:52:46 2020.
