 Gaussian 16, Revision A.03,

 -----------------------------------------------------------
 # opt freq B3LYP/6-31G(d) empiricaldispersion=gd3bj scf=xqc
 -----------------------------------------------------------

 -----------------------------
 CID_12894726_JID_610_neutraal
 -----------------------------
 Symbolic Z-matrix:
 Charge =  0 Multiplicity = 1

 SCF Done:  E(RB3LYP) =  -797.705831143     A.U. after   14 cycles
 SCF Done:  E(RB3LYP) =  -797.707828858     A.U. after   12 cycles
 SCF Done:  E(RB3LYP) =  -797.708078332     A.U. after   13 cycles
 SCF Done:  E(RB3LYP) =  -797.708425573     A.U. after   13 cycles
 SCF Done:  E(RB3LYP) =  -797.708815444     A.U. after   12 cycles
 SCF Done:  E(RB3LYP) =  -797.708834339     A.U. after   11 cycles
 SCF Done:  E(RB3LYP) =  -797.708851390     A.U. after   11 cycles
 SCF Done:  E(RB3LYP) =  -797.708862719     A.U. after   11 cycles
 SCF Done:  E(RB3LYP) =  -797.708866012     A.U. after   10 cycles
 SCF Done:  E(RB3LYP) =  -797.708866663     A.U. after    9 cycles
 SCF Done:  E(RB3LYP) =  -797.708866992     A.U. after    8 cycles
 SCF Done:  E(RB3LYP) =  -797.708867044     A.U. after    7 cycles
 Optimization completed.
    -- Stationary point found.
 Normal termination of Gaussian 16 at Tue Dec  8 12:23:33 2020.

 --------------------------------------------------------------------
 #N Geom=AllCheck Guess=TCheck SCRF=Check GenChk RB3LYP/6-31G(d) Freq
 --------------------------------------------------------------------

 Structure from the checkpoint file:  "JID_610.chk"
 -----------------------------
 CID_12894726_JID_610_neutraal
 -----------------------------
 Charge =  0 Multiplicity = 1

 SCF Done:  E(RB3LYP) =  -797.708867044     A.U. after    1 cycles

  Exact polarizability: 116.008 -12.504  85.378   0.606   2.827  82.850
 Approx polarizability: 156.599 -28.260 131.369   2.655   5.502 144.406

                      1                      2                      3
                      A                      A                      A
 Frequencies --     25.9708                53.8029                64.7758
 Red. masses --      4.4995                 2.9315                 4.5225
 Frc consts  --      0.0018                 0.0050                 0.0112
 IR Inten    --      0.2677                 0.2138                 0.2380

                      4                      5                      6
                      A                      A                      A
 Frequencies --    156.7321               208.8167               240.0981
 Red. masses --      2.9048                 2.6910                 1.1421
 Frc consts  --      0.0420                 0.0691                 0.0388
 IR Inten    --      0.4333                 0.7989                 0.3789

                      7                      8                      9
                      A                      A                      A
 Frequencies --    274.3333               287.6310               305.4669
 Red. masses --      1.2540                 3.4620                 6.2051
 Frc consts  --      0.0556                 0.1688                 0.3411
 IR Inten    --      0.1889                 1.4821                 0.6355

                     10                     11                     12
                      A                      A                      A
 Frequencies --    362.1900               413.8654               435.6400
 Red. masses --      2.6423                 1.8260                 3.0186
 Frc consts  --      0.2042                 0.1843                 0.3375
 IR Inten    --      0.4285                 0.3852                 0.3182

                     13                     14                     15
                      A                      A                      A
 Frequencies --    489.9167               508.0132               711.6464
 Red. masses --     10.9301                 1.7092                 4.4373
 Frc consts  --      1.5457                 0.2599                 1.3240
 IR Inten    --      2.3364                48.7251                 5.2113

                     16                     17                     18
                      A                      A                      A
 Frequencies --    716.5253               722.5009               826.0235
 Red. masses --      3.7413                 2.9541                 2.8741
 Frc consts  --      1.1317                 0.9086                 1.1554
 IR Inten    --      1.8957                46.4680                 2.5859

                     19                     20                     21
                      A                      A                      A
 Frequencies --    864.6182               870.4892               945.3723
 Red. masses --      1.3198                 1.4883                 1.2055
 Frc consts  --      0.5813                 0.6645                 0.6348
 IR Inten    --     22.1942                 1.5475                 2.3615

                     22                     23                     24
                      A                      A                      A
 Frequencies --    964.1370               981.1088               988.9842
 Red. masses --      1.9812                 1.4537                 5.9357
 Frc consts  --      1.0851                 0.8244                 3.4206
 IR Inten    --      4.7423                 0.2421                34.4881

                     25                     26                     27
                      A                      A                      A
 Frequencies --   1016.9390              1115.0082              1142.1427
 Red. masses --      6.5398                 1.3842                 2.0103
 Frc consts  --      3.9848                 1.0140                 1.5451
 IR Inten    --     35.6916                 5.3303                 1.5468

                     28                     29                     30
                      A                      A                      A
 Frequencies --   1145.8012              1200.7739              1207.0258
 Red. masses --      1.9825                 4.9540                 1.7920
 Frc consts  --      1.5335                 4.2085                 1.5382
 IR Inten    --      4.8730                10.4187                 3.0876

                     31                     32                     33
                      A                      A                      A
 Frequencies --   1224.1726              1265.5988              1299.6277
 Red. masses --      2.5458                 1.4067                 1.1901
 Frc consts  --      2.2478                 1.3276                 1.1843
 IR Inten    --     15.0911                 7.8939                17.7322

                     34                     35                     36
                      A                      A                      A
 Frequencies --   1329.8766              1370.0931              1383.7839
 Red. masses --      9.9171                 1.4296                 5.0746
 Frc consts  --     10.3338                 1.5811                 5.7252
 IR Inten    --      5.6875                 0.8621                 2.7505

                     37                     38                     39
                      A                      A                      A
 Frequencies --   1393.4000              1431.1755              1437.4733
 Red. masses --      1.3910                 1.2622                 2.2550
 Frc consts  --      1.5913                 1.5232                 2.7454
 IR Inten    --      1.3796                 2.3330                 5.5339

                     40                     41                     42
                      A                      A                      A
 Frequencies --   1450.3416              1487.0144              1519.6084
 Red. masses --      1.2314                 1.0956                 1.0507
 Frc consts  --      1.5261                 1.4274                 1.4295
 IR Inten    --      4.6176                 2.7593                 1.9812

                     43                     44                     45
                      A                      A                      A
 Frequencies --   1524.2972              1534.7481              1540.4809
 Red. masses --      1.0474                 1.0559                 2.0992
 Frc consts  --      1.4338                 1.4653                 2.9351
 IR Inten    --      3.4631                 4.3580                 3.0390

                     46                     47                     48
                      A                      A                      A
 Frequencies --   1546.1400              3035.5435              3038.6363
 Red. masses --      1.1285                 1.0794                 1.0367
 Frc consts  --      1.5894                 5.8603                 5.6396
 IR Inten    --     21.0313                 4.4851                23.2303

                     49                     50                     51
                      A                      A                      A
 Frequencies --   3045.0925              3064.9859              3101.9121
 Red. masses --      1.0441                 1.0584                 1.1009
 Frc consts  --      5.7039                 5.8583                 6.2412
 IR Inten    --     27.8684                22.2674                 9.7794

                     52                     53                     54
                      A                      A                      A
 Frequencies --   3105.4663              3115.4241              3117.5866
 Red. masses --      1.1017                 1.1017                 1.1056
 Frc consts  --      6.2601                 6.3003                 6.3311
 IR Inten    --     33.6335                45.5734                36.4616

                     55                     56                     57
                      A                      A                      A
 Frequencies --   3148.0676              3291.3884              3663.6487
 Red. masses --      1.0987                 1.0982                 1.0824
 Frc consts  --      6.4152                 7.0093                 8.5602
 IR Inten    --     11.7751                 0.1382               108.2505

 - Thermochemistry -
 -------------------
 Temperature   298.150 Kelvin.  Pressure   1.00000 Atm.
 Atom     1 has atomic number  6 and mass  12.00000

 Molecular mass:   157.06737 amu.
 Principal axes and moments of inertia in atomic units:
                           1         2         3
     Eigenvalues --   855.564692678.799412972.97762
           X            0.99984   0.01585  -0.00829
           Y           -0.01524   0.99749   0.06911
           Z            0.00936  -0.06897   0.99757
 This molecule is an asymmetric top.
 Rotational symmetry number  1.
 Warning -- assumption of classical behavior for rotation
           may cause significant error
 Rotational temperatures (Kelvin)      0.10124     0.03233     0.02913
 Rotational constants (GHZ):           2.10942     0.67371     0.60705
 Zero-point vibrational energy     458839.3 (Joules/Mol)
                                  109.66521 (Kcal/Mol)
 Warning -- explicit consideration of  14 degrees of freedom as
           vibrations may cause significant error
 Vibrational temperatures:     37.37    77.41    93.20   225.50   300.44
          (Kelvin)            345.45   394.70   413.84   439.50   521.11
                              595.46   626.79   704.88   730.92  1023.90
                             1030.92  1039.52  1188.46  1243.99  1252.44
                             1360.18  1387.18  1411.60  1422.93  1463.15
                             1604.25  1643.29  1648.55  1727.65  1736.64
                             1761.31  1820.91  1869.87  1913.40  1971.26
                             1990.96  2004.79  2059.14  2068.20  2086.72
                             2139.48  2186.38  2193.12  2208.16  2216.41
                             2224.55  4367.47  4371.92  4381.21  4409.83
                             4462.96  4468.07  4482.40  4485.51  4529.37
                             4735.57  5271.17

 Zero-point correction=                           0.174763 (Hartree/Particle)
 Thermal correction to Energy=                    0.185394
 Thermal correction to Enthalpy=                  0.186338
 Thermal correction to Gibbs Free Energy=         0.136951
 Sum of electronic and zero-point Energies=           -797.534104
 Sum of electronic and thermal Energies=              -797.523473
 Sum of electronic and thermal Enthalpies=            -797.522529
 Sum of electronic and thermal Free Energies=         -797.571916

                     E (Thermal)             CV                S
                      KCal/Mol        Cal/Mol-Kelvin    Cal/Mol-Kelvin
 Total                  116.336             38.288            103.943
 Electronic               0.000              0.000              0.000
 Translational            0.889              2.981             41.064
 Rotational               0.889              2.981             30.300
 Vibrational            114.559             32.326             32.579
 Vibration     1          0.593              1.985              6.116
 Vibration     2          0.596              1.976              4.672
 Vibration     3          0.597              1.971              4.306
 Vibration     4          0.620              1.895              2.589
 Vibration     5          0.642              1.827              2.054
 Vibration     6          0.657              1.779              1.802
 Vibration     7          0.677              1.721              1.569
 Vibration     8          0.685              1.697              1.488
 Vibration     9          0.696              1.663              1.387
 Vibration    10          0.736              1.550              1.113
 Vibration    11          0.777              1.440              0.913
 Vibration    12          0.796              1.393              0.840
 Vibration    13          0.846              1.272              0.684
 Vibration    14          0.863              1.232              0.638

 Optimization completed.
    -- Stationary point found.
 Normal termination of Gaussian 16 at Tue Dec  8 12:27:11 2020.

 ----------------------------------------------------------------------
 # B3LYP/6-311++G(d,p) empiricaldispersion=gd3bj scf=xqc pop=npa geom=c
 heck
 ----------------------------------------------------------------------

 -------------------------------------
 CID_12894726_JID_610_Energie_neutraal
 -------------------------------------
 Structure from the checkpoint file:  "JID_610.chk"
 Charge =  0 Multiplicity = 1

 SCF Done:  E(RB3LYP) =  -797.847416435     A.U. after   14 cycles
 Normal termination of Gaussian 16 at Tue Dec  8 12:29:46 2020.

 ----------------------------------------------------------------------
 # B3LYP/6-311++G(d,p) empiricaldispersion=gd3bj scf=xqc pop=npa geom=c
 heck
 ----------------------------------------------------------------------

 -----------------------------------
 CID_12894726_JID_610_Energie_kation
 -----------------------------------
 Structure from the checkpoint file:  "JID_610.chk"
 Charge =  1 Multiplicity = 2

 SCF Done:  E(UB3LYP) =  -797.531773856     A.U. after   20 cycles
 Normal termination of Gaussian 16 at Tue Dec  8 12:40:12 2020.
 Gaussian 16:  ES64L-G16RevA.03 25-Dec-2016

 ----------------------------------------------------------------------
 # B3LYP/6-311++G(d,p) empiricaldispersion=gd3bj scf=xqc pop=npa geom=c
 heck
 ----------------------------------------------------------------------

 ----------------------------------
 CID_12894726_JID_610_Energie_anion
 ----------------------------------
 Structure from the checkpoint file:  "JID_610.chk"
 Charge = -1 Multiplicity = 2

                         Standard orientation:
 ---------------------------------------------------------------------
 Center     Atomic      Atomic             Coordinates (Angstroms)
 Number     Number       Type             X           Y           Z
 ---------------------------------------------------------------------
      1          6           0       -1.470981   -1.538389   -0.525808
      2          6           0       -2.304417   -0.284155   -0.245522
      3          6           0       -3.530994   -0.619224    0.615849
      4          6           0       -1.496477    0.820802    0.448038
      5         16           0       -0.108075    1.539315   -0.536957
      6          6           0        1.220788    0.459689   -0.109218
      7          7           0        1.801984   -0.353125   -1.005192
      8          7           0        2.760084   -0.941196   -0.297253
      9          7           0        2.863570   -0.595768    0.985755
     10          6           0        1.890875    0.305921    1.126113
     11          1           0       -1.049955   -1.941611    0.404625
     12          1           0       -0.642258   -1.330387   -1.206954
     13          1           0       -2.094943   -2.318998   -0.975583
     14          1           0       -2.655771    0.118460   -1.205431
     15          1           0       -3.226451   -1.021229    1.590646
     16          1           0       -4.152591    0.265665    0.796549
     17          1           0       -4.154612   -1.375127    0.125743
     18          1           0       -2.141840    1.678256    0.666873
     19          1           0       -1.088246    0.468529    1.401623
     20          1           0        3.391361   -1.608641   -0.716758
     21          1           0        1.712265    0.798790    2.070093
 ---------------------------------------------------------------------

 SCF Done:  E(UB3LYP) =  -797.830306274     A.U. after   33 cycles
 SCF Done:  E(UB3LYP) =  -797.832554497     a.u. after    8 cycles

 The electronic state is 2-A.
 Alpha  occ. eigenvalues --  -88.74976 -14.32026 -14.25666 -14.25385 -10.12770
 Alpha  occ. eigenvalues --  -10.10747 -10.09756 -10.07731 -10.05631 -10.05061
 Alpha  occ. eigenvalues --   -7.83573  -5.79988  -5.79598  -5.78934  -1.01126
 Alpha  occ. eigenvalues --   -0.80286  -0.74403  -0.71471  -0.65487  -0.58249
 Alpha  occ. eigenvalues --   -0.56793  -0.53953  -0.49161  -0.46349  -0.44684
 Alpha  occ. eigenvalues --   -0.38045  -0.37545  -0.35858  -0.33812  -0.32955
 Alpha  occ. eigenvalues --   -0.32158  -0.28419  -0.27204  -0.25765  -0.24799
 Alpha  occ. eigenvalues --   -0.23702  -0.23169  -0.22566  -0.20839  -0.19756
 Alpha  occ. eigenvalues --   -0.17701  -0.13368   0.04654
 Alpha virt. eigenvalues --    0.06205   0.07568   0.07938   0.08588   0.09312
 Alpha virt. eigenvalues --    0.10404   0.10721   0.11356   0.11817   0.12400
 Alpha virt. eigenvalues --    0.12898   0.14072   0.14444   0.15003   0.15679

  Beta  occ. eigenvalues --  -88.74972 -14.31935 -14.25650 -14.25323 -10.12772
  Beta  occ. eigenvalues --  -10.10740 -10.09711 -10.07723 -10.05584 -10.05043
  Beta  occ. eigenvalues --   -7.83570  -5.79985  -5.79587  -5.78932  -1.01035
  Beta  occ. eigenvalues --   -0.80207  -0.74315  -0.71414  -0.65416  -0.58191
  Beta  occ. eigenvalues --   -0.56701  -0.53873  -0.49102  -0.46276  -0.44590
  Beta  occ. eigenvalues --   -0.37884  -0.37488  -0.35804  -0.33763  -0.32900
  Beta  occ. eigenvalues --   -0.32116  -0.28379  -0.27162  -0.25722  -0.24748
  Beta  occ. eigenvalues --   -0.23647  -0.23113  -0.22504  -0.20775  -0.19582
  Beta  occ. eigenvalues --   -0.17622  -0.13322
  Beta virt. eigenvalues --    0.07111   0.07852   0.08233   0.08636   0.09215
  Beta virt. eigenvalues --    0.09870   0.10744   0.10898   0.11533   0.12084
  Beta virt. eigenvalues --    0.12819   0.13061   0.14165   0.14640   0.15216

 Mulliken charges and spin densities:
               1          2
     1  C    0.194019  -0.929251
     2  C   -1.378037   1.738688
     3  C    1.035186  -1.636774
     4  C    0.755083  -1.159844
     5  S    0.484866  -0.501257
     6  C    0.239715  -0.578158
     7  N   -0.007253   0.076214
     8  N    0.181319  -0.166762
     9  N    0.083378  -0.194690
    10  C   -0.565954   0.445120
    11  H    0.007264   0.145486
    12  H    0.081008   0.062237
    13  H   -0.116732   0.256489
    14  H    0.077495   0.048895
    15  H   -0.206841   0.343470
    16  H   -0.479581   0.616209
    17  H   -0.357479   0.495226
    18  H   -0.282697   0.512953
    19  H    0.100144   0.038702
    20  H   -0.582618   0.942153
    21  H   -0.262283   0.444892
 Sum of Mulliken charges =  -1.00000   1.00000

 Dipole moment (field-independent basis, Debye):
    X=              0.8029    Y=              2.9599    Z=             -0.4455  Tot=              3.0991
 Quadrupole moment (field-independent basis, Debye-Ang):
   XX=           -145.6390   YY=           -105.4974   ZZ=            -97.7655
   XY=             10.7321   XZ=              8.0808   YZ=             -3.3977

 Summary of Natural Population Analysis:

                                       Natural Population
                Natural  -----------------------------------------------
    Atom  No    Charge         Core      Valence    Rydberg      Total
 -----------------------------------------------------------------------
      C    1   -0.28981      0.99964     2.28413    0.00604     3.28981
      C    2   -0.12043      0.99960     2.11081    0.01002     3.12043
      C    3   -0.28437      0.99965     2.27838    0.00634     3.28437
      C    4   -0.23859      0.99954     2.22675    0.01230     3.23859
      S    5    0.11196      4.99954     2.86973    0.01878     7.88804
      C    6   -0.03713      0.99950     2.01930    0.01833     3.03713
      N    7   -0.12933      0.99969     2.61565    0.01399     3.62933
      N    8   -0.06442      0.99974     2.54726    0.01741     3.56442
      N    9   -0.13441      0.99974     2.62095    0.01371     3.63441
      C   10   -0.03332      0.99952     2.02029    0.01351     3.03332
      H   11    0.09676      0.00000     0.40208    0.00117     0.40324
      H   12    0.10838      0.00000     0.38996    0.00166     0.39162
      H   13    0.09828      0.00000     0.40081    0.00091     0.40172
      H   14    0.09354      0.00000     0.40462    0.00184     0.40646
      H   15    0.09757      0.00000     0.40107    0.00136     0.40243
      H   16    0.10088      0.00000     0.39733    0.00179     0.39912
      H   17    0.10120      0.00000     0.39742    0.00138     0.39880
      H   18    0.10796      0.00000     0.39036    0.00168     0.39204
      H   19    0.10340      0.00000     0.39494    0.00166     0.39660
      H   20    0.20666      0.00000     0.27154    0.02181     0.29334
      H   21    0.10524      0.00000     0.39359    0.00117     0.39476
 =======================================================================
   * Total *    0.00000     13.99616    27.83698    0.16686    42.00000

 Normal termination of Gaussian 16 at Tue Dec  8 13:05:18 2020.
