 Gaussian 16, Revision A.03,

 -----------------------------------------------------------
 # opt freq B3LYP/6-31G(d) empiricaldispersion=gd3bj scf=xqc
 -----------------------------------------------------------

 ------------------------------
 CID_70063732_JID_3730_neutraal
 ------------------------------
 Symbolic Z-matrix:
 Charge =  0 Multiplicity = 1

 SCF Done:  E(RB3LYP) =  -668.408203842     A.U. after   14 cycles
 SCF Done:  E(RB3LYP) =  -668.412320894     A.U. after   13 cycles
 SCF Done:  E(RB3LYP) =  -668.411896904     A.U. after   13 cycles
 SCF Done:  E(RB3LYP) =  -668.413284537     A.U. after   12 cycles
 SCF Done:  E(RB3LYP) =  -668.413657871     A.U. after   12 cycles
 SCF Done:  E(RB3LYP) =  -668.413615335     A.U. after   12 cycles
 SCF Done:  E(RB3LYP) =  -668.413992135     A.U. after   12 cycles
 SCF Done:  E(RB3LYP) =  -668.414035745     A.U. after   12 cycles
 SCF Done:  E(RB3LYP) =  -668.414074747     A.U. after   11 cycles
 SCF Done:  E(RB3LYP) =  -668.414084681     A.U. after    9 cycles
 SCF Done:  E(RB3LYP) =  -668.414086261     A.U. after    8 cycles
 SCF Done:  E(RB3LYP) =  -668.414087052     A.U. after    8 cycles
 SCF Done:  E(RB3LYP) =  -668.414087068     A.U. after    7 cycles
 SCF Done:  E(RB3LYP) =  -668.414087131     A.U. after    7 cycles
 Optimization completed.
    -- Stationary point found.
 Normal termination of Gaussian 16 at Sun Dec 13 12:23:56 2020.

 --------------------------------------------------------------------
 #N Geom=AllCheck Guess=TCheck SCRF=Check GenChk RB3LYP/6-31G(d) Freq
 --------------------------------------------------------------------

 Structure from the checkpoint file:  "JID_3730.chk"
 ------------------------------
 CID_70063732_JID_3730_neutraal
 ------------------------------
 Charge =  0 Multiplicity = 1

 SCF Done:  E(RB3LYP) =  -668.414087131     A.U. after    1 cycles

  Exact polarizability:  92.910   8.242  96.536   5.263  -1.482  96.052
 Approx polarizability: 126.096  14.327 142.753   9.356  -7.030 148.430

                      1                      2                      3
                      A                      A                      A
 Frequencies --     38.4411                51.0016                90.5264
 Red. masses --      8.6247                 8.7247                 6.0430
 Frc consts  --      0.0075                 0.0134                 0.0292
 IR Inten    --      1.4930                 0.1546                 1.5886

                      4                      5                      6
                      A                      A                      A
 Frequencies --    115.7845               162.1539               197.9548
 Red. masses --      7.6193                 3.8747                 3.1303
 Frc consts  --      0.0602                 0.0600                 0.0723
 IR Inten    --      0.3463                 0.5538                 1.2964

                      7                      8                      9
                      A                      A                      A
 Frequencies --    235.3688               278.4653               313.9277
 Red. masses --      2.4767                 4.5738                 3.1087
 Frc consts  --      0.0808                 0.2090                 0.1805
 IR Inten    --      2.0088                 6.6867                 0.6397

                     10                     11                     12
                      A                      A                      A
 Frequencies --    338.3552               361.6563               408.9534
 Red. masses --      2.3703                 3.9790                 2.4661
 Frc consts  --      0.1599                 0.3066                 0.2430
 IR Inten    --      0.4601                 1.8985                 5.2331

                     13                     14                     15
                      A                      A                      A
 Frequencies --    458.4617               515.3979               528.0886
 Red. masses --      3.2684                 2.4359                 1.3619
 Frc consts  --      0.4048                 0.3812                 0.2238
 IR Inten    --     24.6825                40.1021                51.5342

                     16                     17                     18
                      A                      A                      A
 Frequencies --    532.7068               562.3656               575.0685
 Red. masses --      2.1708                 3.5226                 3.7427
 Frc consts  --      0.3629                 0.6564                 0.7292
 IR Inten    --     36.2613                14.6713                15.0330

                     19                     20                     21
                      A                      A                      A
 Frequencies --    622.4237               679.6333               722.4667
 Red. masses --      2.4908                 1.5625                 3.3384
 Frc consts  --      0.5685                 0.4252                 1.0266
 IR Inten    --     10.8831                80.1538                26.4458

                     22                     23                     24
                      A                      A                      A
 Frequencies --    754.2604               763.1993               797.6180
 Red. masses --      2.2976                10.1999                 3.1617
 Frc consts  --      0.7701                 3.5004                 1.1851
 IR Inten    --     16.6244                38.5608                13.0379

                     25                     26                     27
                      A                      A                      A
 Frequencies --    839.3306               869.0285               916.1390
 Red. masses --      1.7159                 2.4170                 2.1080
 Frc consts  --      0.7122                 1.0755                 1.0424
 IR Inten    --      8.3475                 9.3548                 1.3275

                     28                     29                     30
                      A                      A                      A
 Frequencies --    925.6416               964.9340               984.0427
 Red. masses --      2.3071                 2.4104                 2.4406
 Frc consts  --      1.1647                 1.3223                 1.3924
 IR Inten    --      3.9914                 4.5029                11.0990

                     31                     32                     33
                      A                      A                      A
 Frequencies --   1062.3585              1073.2250              1095.3169
 Red. masses --      2.1308                 2.0676                 2.2043
 Frc consts  --      1.4169                 1.4031                 1.5581
 IR Inten    --      6.2687                 8.4363                28.5634

                     34                     35                     36
                      A                      A                      A
 Frequencies --   1117.6723              1155.6150              1172.1116
 Red. masses --      2.0370                 2.3834                 2.1549
 Frc consts  --      1.4993                 1.8753                 1.7443
 IR Inten    --     10.7394               120.7118               167.5949

                     37                     38                     39
                      A                      A                      A
 Frequencies --   1212.1588              1225.9803              1247.5583
 Red. masses --      1.3995                 1.2421                 1.5613
 Frc consts  --      1.2116                 1.0999                 1.4317
 IR Inten    --    114.5115                54.5220                78.8643

                     40                     41                     42
                      A                      A                      A
 Frequencies --   1261.8387              1300.2209              1318.4694
 Red. masses --      1.9402                 1.3123                 1.2547
 Frc consts  --      1.8202                 1.3072                 1.2851
 IR Inten    --     28.3201                13.9092                10.3543

                     43                     44                     45
                      A                      A                      A
 Frequencies --   1334.8830              1344.8272              1362.1138
 Red. masses --      1.5769                 1.4556                 1.6123
 Frc consts  --      1.6555                 1.5510                 1.7624
 IR Inten    --      8.5478                 6.3476                26.6403

                     46                     47                     48
                      A                      A                      A
 Frequencies --   1390.3347              1393.1534              1412.3241
 Red. masses --      1.5595                 1.5079                 1.4220
 Frc consts  --      1.7762                 1.7243                 1.6712
 IR Inten    --      6.2375                14.1397                 8.1973

                     49                     50                     51
                      A                      A                      A
 Frequencies --   1418.9307              1428.8677              1442.8217
 Red. masses --      1.3773                 1.4911                 1.4084
 Frc consts  --      1.6338                 1.7937                 1.7275
 IR Inten    --     12.1073                18.2106                 2.7296

                     52                     53                     54
                      A                      A                      A
 Frequencies --   1497.8067              1511.5485              1514.6227
 Red. masses --      1.7979                 1.1006                 1.5349
 Frc consts  --      2.3764                 1.4815                 2.0746
 IR Inten    --    111.2608                10.1945                75.5762

                     55                     56                     57
                      A                      A                      A
 Frequencies --   1522.8778              1529.1017              1538.3669
 Red. masses --      1.0901                 1.0939                 1.1130
 Frc consts  --      1.4895                 1.5070                 1.5519
 IR Inten    --     14.0497                12.0367                 8.3757

                     58                     59                     60
                      A                      A                      A
 Frequencies --   1811.3276              1834.0650              3012.5356
 Red. masses --      8.1031                 9.7701                 1.0808
 Frc consts  --     15.6638                19.3633                 5.7793
 IR Inten    --    386.8147               258.8415                12.3282

                     61                     62                     63
                      A                      A                      A
 Frequencies --   3025.4849              3038.3195              3052.9338
 Red. masses --      1.0751                 1.0702                 1.0681
 Frc consts  --      5.7979                 5.8209                 5.8651
 IR Inten    --     52.6248                21.6416                35.3954

                     64                     65                     66
                      A                      A                      A
 Frequencies --   3059.6844              3066.3929              3100.4093
 Red. masses --      1.0664                 1.0648                 1.0950
 Frc consts  --      5.8820                 5.8987                 6.2014
 IR Inten    --      8.9697                69.6362                26.5807

                     67                     68                     69
                      A                      A                      A
 Frequencies --   3103.0602              3117.4509              3136.5553
 Red. masses --      1.1005                 1.0956                 1.0993
 Frc consts  --      6.2434                 6.2735                 6.3721
 IR Inten    --     15.2844                29.7889                11.6454

                     70                     71                     72
                      A                      A                      A
 Frequencies --   3204.4116              3684.1207              3742.5715
 Red. masses --      1.0896                 1.0640                 1.0646
 Frc consts  --      6.5917                 8.5085                 8.7858
 IR Inten    --      0.7842                49.3975                82.0958

 - Thermochemistry -
 -------------------
 Temperature   298.150 Kelvin.  Pressure   1.00000 Atm.
 Atom     1 has atomic number  6 and mass  12.00000

 Molecular mass:   187.08446 amu.
 Principal axes and moments of inertia in atomic units:
                           1         2         3
     Eigenvalues --  1747.081212358.087072655.28083
           X            0.99886   0.04772   0.00060
           Y           -0.04772   0.99885  -0.00380
           Z           -0.00078   0.00376   0.99999
 This molecule is an asymmetric top.
 Rotational symmetry number  1.
 Warning -- assumption of classical behavior for rotation
           may cause significant error
 Rotational temperatures (Kelvin)      0.04958     0.03673     0.03262
 Rotational constants (GHZ):           1.03300     0.76534     0.67968
 Zero-point vibrational energy     577065.5 (Joules/Mol)
                                  137.92198 (Kcal/Mol)
 Warning -- explicit consideration of  18 degrees of freedom as
           vibrations may cause significant error
 Vibrational temperatures:     55.31    73.38   130.25   166.59   233.30
          (Kelvin)            284.81   338.64   400.65   451.67   486.82
                              520.34   588.39   659.62   741.54   759.80
                              766.45   809.12   827.40   895.53   977.84
                             1039.47  1085.21  1098.07  1147.59  1207.61
                             1250.34  1318.12  1331.79  1388.32  1415.82
                             1528.50  1544.13  1575.92  1608.08  1662.67
                             1686.41  1744.03  1763.91  1794.96  1815.50
                             1870.73  1896.98  1920.60  1934.91  1959.78
                             2000.38  2004.44  2032.02  2041.52  2055.82
                             2075.90  2155.01  2174.78  2179.20  2191.08
                             2200.04  2213.37  2606.10  2638.81  4334.37
                             4353.00  4371.46  4392.49  4402.20  4411.86
                             4460.80  4464.61  4485.32  4512.80  4610.43
                             5300.63  5384.73

 Zero-point correction=                           0.219793 (Hartree/Particle)
 Thermal correction to Energy=                    0.231842
 Thermal correction to Enthalpy=                  0.232786
 Thermal correction to Gibbs Free Energy=         0.181069
 Sum of electronic and zero-point Energies=           -668.194294
 Sum of electronic and thermal Energies=              -668.182245
 Sum of electronic and thermal Enthalpies=            -668.181301
 Sum of electronic and thermal Free Energies=         -668.233018

                     E (Thermal)             CV                S
                      KCal/Mol        Cal/Mol-Kelvin    Cal/Mol-Kelvin
 Total                  145.483             46.136            108.848
 Electronic               0.000              0.000              0.000
 Translational            0.889              2.981             41.585
 Rotational               0.889              2.981             30.771
 Vibrational            143.705             40.174             36.492
 Vibration     1          0.594              1.982              5.338
 Vibration     2          0.595              1.977              4.778
 Vibration     3          0.602              1.956              3.649
 Vibration     4          0.608              1.936              3.170
 Vibration     5          0.622              1.889              2.525
 Vibration     6          0.637              1.843              2.152
 Vibration     7          0.655              1.787              1.838
 Vibration     8          0.679              1.713              1.543
 Vibration     9          0.702              1.647              1.342
 Vibration    10          0.719              1.599              1.220
 Vibration    11          0.736              1.551              1.115
 Vibration    12          0.773              1.451              0.930
 Vibration    13          0.816              1.342              0.771
 Vibration    14          0.870              1.216              0.621
 Vibration    15          0.883              1.188              0.591
 Vibration    16          0.888              1.178              0.581
 Vibration    17          0.918              1.113              0.519
 Vibration    18          0.931              1.085              0.495

                           ! Non-Optimized Parameters !
 Normal termination of Gaussian 16 at Sun Dec 13 12:31:24 2020.

 ----------------------------------------------------------------------
 # B3LYP/6-311++G(d,p) empiricaldispersion=gd3bj scf=xqc pop=npa geom=c
 heck
 ----------------------------------------------------------------------

 --------------------------------------
 CID_70063732_JID_3730_Energie_neutraal
 --------------------------------------
 Structure from the checkpoint file:  "JID_3730.chk"
 Charge =  0 Multiplicity = 1

 SCF Done:  E(RB3LYP) =  -668.625386996     A.U. after   14 cycles
 Normal termination of Gaussian 16 at Sun Dec 13 12:33:46 2020.

 ----------------------------------------------------------------------
 # B3LYP/6-311++G(d,p) empiricaldispersion=gd3bj scf=xqc pop=npa geom=c
 heck
 ----------------------------------------------------------------------

 ------------------------------------
 CID_70063732_JID_3730_Energie_kation
 ------------------------------------
 Structure from the checkpoint file:  "JID_3730.chk"
 Charge =  1 Multiplicity = 2

 SCF Done:  E(UB3LYP) =  -668.300813470     A.U. after   23 cycles
 Normal termination of Gaussian 16 at Sun Dec 13 12:38:56 2020.
 Gaussian 16:  ES64L-G16RevA.03 25-Dec-2016

 ----------------------------------------------------------------------
 # B3LYP/6-311++G(d,p) empiricaldispersion=gd3bj scf=xqc pop=npa geom=c
 heck
 ----------------------------------------------------------------------

 -----------------------------------
 CID_70063732_JID_3730_Energie_anion
 -----------------------------------
 Structure from the checkpoint file:  "JID_3730.chk"
 Charge = -1 Multiplicity = 2

                         Standard orientation:
 ---------------------------------------------------------------------
 Center     Atomic      Atomic             Coordinates (Angstroms)
 Number     Number       Type             X           Y           Z
 ---------------------------------------------------------------------
      1          6           0        0.467020    1.826361   -0.912790
      2          6           0        1.807073    1.346799   -0.345527
      3          6           0        1.790544    0.018658    0.444957
      4          6           0        1.049772    0.103808    1.795913
      5          6           0       -0.482765   -0.050933    1.739062
      6          7           0       -1.074676    0.527448    0.536411
      7          6           0       -0.675502    1.867061    0.105459
      8          6           0       -1.964839   -0.132277   -0.254589
      9          8           0       -2.408840    0.292609   -1.312278
     10          8           0       -2.338061   -1.340621    0.254770
     11          6           0        1.341978   -1.189708   -0.358042
     12          8           0        0.842610   -2.192749    0.105193
     13          8           0        1.612792   -1.069360   -1.681696
     14          1           0        0.605334    2.832029   -1.330696
     15          1           0        0.151192    1.182371   -1.739292
     16          1           0        2.523959    1.255389   -1.167491
     17          1           0        2.206924    2.111275    0.334514
     18          1           0        2.843443   -0.198027    0.682712
     19          1           0        1.424989   -0.674503    2.468392
     20          1           0        1.319587    1.063530    2.251355
     21          1           0       -0.739601   -1.106137    1.748090
     22          1           0       -0.921446    0.413805    2.633443
     23          1           0       -0.391404    2.434643    0.999549
     24          1           0       -1.547871    2.350734   -0.338419
     25          1           0       -2.929678   -1.713257   -0.420503
     26          1           0        1.309617   -1.901611   -2.091111
 ---------------------------------------------------------------------

 SCF Done:  E(UB3LYP) =  -668.613724869     A.U. after   33 cycles
 SCF Done:  E(UB3LYP) =  -668.613724869     a.u. after    1 cycles

 The electronic state is 2-A.
 Alpha  occ. eigenvalues --  -19.06722 -19.06459 -19.00613 -18.99441 -14.24298
 Alpha  occ. eigenvalues --  -10.21778 -10.19523 -10.09991 -10.09967 -10.08358
 Alpha  occ. eigenvalues --  -10.06748 -10.06127 -10.06004  -1.01117  -1.00416
 Alpha  occ. eigenvalues --   -0.91349  -0.91281  -0.84538  -0.71370  -0.67782
 Alpha  occ. eigenvalues --   -0.62286  -0.58280  -0.54477  -0.52314  -0.47497
 Alpha  occ. eigenvalues --   -0.46153  -0.42940  -0.39372  -0.38898  -0.38426
 Alpha  occ. eigenvalues --   -0.37123  -0.36223  -0.35559  -0.33819  -0.33185
 Alpha  occ. eigenvalues --   -0.31636  -0.30915  -0.30342  -0.29799  -0.27920
 Alpha  occ. eigenvalues --   -0.26503  -0.24587  -0.23917  -0.22819  -0.22446
 Alpha  occ. eigenvalues --   -0.22116  -0.21253  -0.18214  -0.17323  -0.14656
 Alpha  occ. eigenvalues --    0.04605
 Alpha virt. eigenvalues --    0.06857   0.07451   0.08131   0.08796   0.10115
 Alpha virt. eigenvalues --    0.10334   0.10882   0.11027   0.12121   0.12818
 Alpha virt. eigenvalues --    0.13297   0.13941   0.14339   0.14578   0.15633

  Beta  occ. eigenvalues --  -19.06713 -19.06430 -19.00580 -18.99431 -14.24298
  Beta  occ. eigenvalues --  -10.21769 -10.19471 -10.09971 -10.09955 -10.08343
  Beta  occ. eigenvalues --  -10.06716 -10.06095 -10.05993  -1.01097  -1.00345
  Beta  occ. eigenvalues --   -0.91290  -0.91260  -0.84524  -0.71307  -0.67745
  Beta  occ. eigenvalues --   -0.62229  -0.58215  -0.54403  -0.52247  -0.47452
  Beta  occ. eigenvalues --   -0.46067  -0.42900  -0.39306  -0.38856  -0.38358
  Beta  occ. eigenvalues --   -0.37081  -0.36188  -0.35475  -0.33751  -0.33146
  Beta  occ. eigenvalues --   -0.31581  -0.30882  -0.30292  -0.29751  -0.27872
  Beta  occ. eigenvalues --   -0.26447  -0.24547  -0.23868  -0.22771  -0.22382
  Beta  occ. eigenvalues --   -0.22058  -0.21164  -0.18199  -0.17266  -0.14624
  Beta virt. eigenvalues --    0.06967   0.07727   0.08146   0.08856   0.09554
  Beta virt. eigenvalues --    0.10596   0.10946   0.11371   0.11741   0.12342
  Beta virt. eigenvalues --    0.13460   0.13804   0.14118   0.14586   0.14806

 Mulliken charges and spin densities:
               1          2
     1  C   -1.184286   1.085702
     2  C    2.345832  -3.122270
     3  C   -1.092171   1.920967
     4  C    1.166761  -1.714265
     5  C   -0.433694  -0.094340
     6  N   -0.007216  -0.013049
     7  C    0.716631  -1.113255
     8  C   -0.015633   0.123622
     9  O   -0.343767   0.000750
    10  O   -0.198140   0.004424
    11  C    0.516359  -0.886681
    12  O   -0.261434   0.026736
    13  O   -0.147120   0.038000
    14  H   -0.204250   0.351552
    15  H    0.267758  -0.073348
    16  H   -0.094687   0.280823
    17  H   -0.525492   0.684709
    18  H   -0.967978   1.263017
    19  H   -0.220650   0.402351
    20  H   -0.203009   0.368942
    21  H    0.333630  -0.098140
    22  H   -0.301612   0.467139
    23  H   -0.239766   0.404968
    24  H   -0.011327   0.222865
    25  H    0.200747   0.087294
    26  H   -0.095487   0.381486
 Sum of Mulliken charges =  -1.00000   1.00000

 Dipole moment (field-independent basis, Debye):
    X=             -5.7789    Y=             -2.3226    Z=             -1.8132  Tot=              6.4868
 Quadrupole moment (field-independent basis, Debye-Ang):
   XX=           -129.2005   YY=           -117.5072   ZZ=           -114.4460
   XY=             -0.3473   XZ=             -7.2565   YZ=             -2.2281

 Summary of Natural Population Analysis:

                                       Natural Population
                Natural  -----------------------------------------------
    Atom  No    Charge         Core      Valence    Rydberg      Total
 -----------------------------------------------------------------------
      C    1   -0.19671      0.99961     2.18859    0.00851     3.19671
      C    2   -0.18805      0.99961     2.17755    0.01089     3.18805
      C    3   -0.16074      0.99954     2.14727    0.01394     3.16074
      C    4   -0.19476      0.99962     2.18467    0.01048     3.19476
      C    5   -0.08517      0.99960     2.07480    0.01078     3.08517
      N    6   -0.26286      0.99963     2.75241    0.01082     3.76286
      C    7   -0.08521      0.99961     2.07485    0.01075     3.08521
      C    8    0.46021      0.99967     1.51504    0.02507     2.53979
      O    9   -0.34503      0.99987     3.33967    0.00549     4.34503
      O   10   -0.35013      0.99988     3.34468    0.00558     4.35013
      C   11    0.41578      0.99967     1.55826    0.02629     2.58422
      O   12   -0.31047      0.99987     3.30441    0.00619     4.31047
      O   13   -0.34533      0.99988     3.33905    0.00641     4.34533
      H   14    0.09971      0.00000     0.39932    0.00097     0.40029
      H   15    0.10576      0.00000     0.39270    0.00154     0.39424
      H   16    0.10760      0.00000     0.39067    0.00173     0.39240
      H   17    0.10042      0.00000     0.39658    0.00300     0.39958
      H   18    0.12811      0.00000     0.36600    0.00589     0.37189
      H   19    0.10945      0.00000     0.38933    0.00123     0.39055
      H   20    0.10240      0.00000     0.39493    0.00267     0.39760
      H   21    0.11775      0.00000     0.38043    0.00182     0.38225
      H   22    0.09253      0.00000     0.40639    0.00108     0.40747
      H   23    0.09675      0.00000     0.40185    0.00139     0.40325
      H   24    0.10781      0.00000     0.39116    0.00103     0.39219
      H   25    0.24075      0.00000     0.25624    0.00301     0.25925
      H   26    0.23943      0.00000     0.25618    0.00440     0.26057
 =======================================================================
   * Total *    0.00000     12.99604    36.82300    0.18096    50.00000

 Normal termination of Gaussian 16 at Sun Dec 13 12:46:22 2020.
