 Gaussian 16, Revision A.03,

 -----------------------------------------------------------
 # opt freq B3LYP/6-31G(d) empiricaldispersion=gd3bj scf=xqc
 -----------------------------------------------------------

 -------------------------------
 CID_149899088_JID_2783_neutraal
 -------------------------------
 Symbolic Z-matrix:
 Charge =  0 Multiplicity = 1

 SCF Done:  E(RB3LYP) =  -627.806516069     A.U. after   15 cycles
 SCF Done:  E(RB3LYP) =  -627.813448713     A.U. after   13 cycles
 SCF Done:  E(RB3LYP) =  -627.814889490     A.U. after   12 cycles
 SCF Done:  E(RB3LYP) =  -627.816022030     A.U. after   12 cycles
 SCF Done:  E(RB3LYP) =  -627.817178238     A.U. after   13 cycles
 SCF Done:  E(RB3LYP) =  -627.819014163     A.U. after   12 cycles
 SCF Done:  E(RB3LYP) =  -627.821494909     A.U. after   13 cycles
 SCF Done:  E(RB3LYP) =  -627.821849301     A.U. after   11 cycles
 SCF Done:  E(RB3LYP) =  -627.821940036     A.U. after   11 cycles
 SCF Done:  E(RB3LYP) =  -627.821992383     A.U. after   11 cycles
 SCF Done:  E(RB3LYP) =  -627.822002707     A.U. after   10 cycles
 SCF Done:  E(RB3LYP) =  -627.822028581     A.U. after   10 cycles
 SCF Done:  E(RB3LYP) =  -627.822050324     A.U. after   11 cycles
 SCF Done:  E(RB3LYP) =  -627.822054665     A.U. after   10 cycles
 SCF Done:  E(RB3LYP) =  -627.822055781     A.U. after    9 cycles
 SCF Done:  E(RB3LYP) =  -627.822056019     A.U. after    8 cycles
 Optimization completed.
    -- Stationary point found.
 Normal termination of Gaussian 16 at Wed Dec  9 18:02:12 2020.

 --------------------------------------------------------------------
 #N Geom=AllCheck Guess=TCheck SCRF=Check GenChk RB3LYP/6-31G(d) Freq
 --------------------------------------------------------------------

 Structure from the checkpoint file:  "JID_2783.chk"
 -------------------------------
 CID_149899088_JID_2783_neutraal
 -------------------------------
 Charge =  0 Multiplicity = 1

 SCF Done:  E(RB3LYP) =  -627.822056019     A.U. after    1 cycles

  Exact polarizability: 137.970  -4.181  88.855   3.993  -4.746  54.119
 Approx polarizability: 195.532 -15.660 148.827  13.085 -14.212  81.638

                      1                      2                      3
                      A                      A                      A
 Frequencies --     35.7610                75.0172                79.0323
 Red. masses --      4.9517                 2.2153                 6.2612
 Frc consts  --      0.0037                 0.0073                 0.0230
 IR Inten    --      0.4502                 2.7755                 0.6753

                      4                      5                      6
                      A                      A                      A
 Frequencies --    170.5227               178.7432               203.3250
 Red. masses --      2.3782                 5.8902                 2.1969
 Frc consts  --      0.0407                 0.1109                 0.0535
 IR Inten    --      0.0389                 0.9268                 4.7553

                      7                      8                      9
                      A                      A                      A
 Frequencies --    231.9033               295.0537               324.9008
 Red. masses --      3.0827                 5.8893                 2.0793
 Frc consts  --      0.0977                 0.3021                 0.1293
 IR Inten    --      0.5083                 4.2582                60.5632

                     10                     11                     12
                      A                      A                      A
 Frequencies --    329.8441               395.9180               442.2664
 Red. masses --      1.5960                 1.7997                 6.1882
 Frc consts  --      0.1023                 0.1662                 0.7132
 IR Inten    --     34.0199                49.5845                17.0791

                     13                     14                     15
                      A                      A                      A
 Frequencies --    474.3127               501.6746               528.6752
 Red. masses --      4.4528                 3.8155                 5.4231
 Frc consts  --      0.5902                 0.5658                 0.8930
 IR Inten    --     11.0469                11.1086                 5.8061

                     16                     17                     18
                      A                      A                      A
 Frequencies --    567.4695               589.5745               616.7618
 Red. masses --      1.1594                 2.0908                 6.2296
 Frc consts  --      0.2200                 0.4282                 1.3962
 IR Inten    --     36.3223                81.3286                 8.5025

                     19                     20                     21
                      A                      A                      A
 Frequencies --    638.1601               650.8395               736.4742
 Red. masses --      5.4371                 2.7222                 4.5242
 Frc consts  --      1.3046                 0.6794                 1.4458
 IR Inten    --     55.0654                20.3444                 6.3654

                     22                     23                     24
                      A                      A                      A
 Frequencies --    751.5276               763.2903               795.9945
 Red. masses --      3.7514                 5.7650                 1.8039
 Frc consts  --      1.2483                 1.9789                 0.6734
 IR Inten    --     52.7057                 3.2398                 1.2181

                     25                     26                     27
                      A                      A                      A
 Frequencies --    927.5587               940.3873               998.2165
 Red. masses --      1.4501                 2.8578                 2.1323
 Frc consts  --      0.7351                 1.4890                 1.2518
 IR Inten    --      3.7822                75.6894                81.9791

                     28                     29                     30
                      A                      A                      A
 Frequencies --   1009.9148              1079.3338              1087.4336
 Red. masses --      1.7689                 4.7664                 6.2354
 Frc consts  --      1.0630                 3.2716                 4.3443
 IR Inten    --     64.8516               409.2493               175.1473

                     31                     32                     33
                      A                      A                      A
 Frequencies --   1103.5535              1156.2135              1181.8571
 Red. masses --      4.9071                 1.8210                 1.2783
 Frc consts  --      3.5210                 1.4343                 1.0520
 IR Inten    --     84.8286                92.8157                 0.7275

                     34                     35                     36
                      A                      A                      A
 Frequencies --   1218.0114              1228.4981              1255.5855
 Red. masses --      1.3946                 1.4949                 1.6881
 Frc consts  --      1.2190                 1.3293                 1.5680
 IR Inten    --     97.6011               115.1208                72.9559

                     37                     38                     39
                      A                      A                      A
 Frequencies --   1275.6913              1341.2058              1370.7751
 Red. masses --      1.6259                 1.5734                 1.6432
 Frc consts  --      1.5590                 1.6675                 1.8192
 IR Inten    --     84.2337               124.1246                25.5553

                     40                     41                     42
                      A                      A                      A
 Frequencies --   1407.0272              1488.4036              1496.7713
 Red. masses --      2.8865                 2.5659                 1.2778
 Frc consts  --      3.3669                 3.3491                 1.6866
 IR Inten    --    107.1235                41.0172                 2.8838

                     43                     44                     45
                      A                      A                      A
 Frequencies --   1522.1059              1533.6005              1544.1368
 Red. masses --      1.1472                 1.1474                 1.5844
 Frc consts  --      1.5660                 1.5900                 2.2259
 IR Inten    --     32.1861                83.8314               151.2357

                     46                     47                     48
                      A                      A                      A
 Frequencies --   1637.2492              1716.0489              1812.2683
 Red. masses --      4.9390                 6.4003                 9.2926
 Frc consts  --      7.8004                11.1047                17.9818
 IR Inten    --     58.0866               187.1338               435.4778

                     49                     50                     51
                      A                      A                      A
 Frequencies --   3018.1349              3111.9464              3160.1793
 Red. masses --      1.0488                 1.0845                 1.1056
 Frc consts  --      5.6289                 6.1877                 6.5053
 IR Inten    --     60.7783                42.5329                20.1930

                     52                     53                     54
                      A                      A                      A
 Frequencies --   3214.9907              3231.2085              3240.8590
 Red. masses --      1.0867                 1.0963                 1.0930
 Frc consts  --      6.6180                 6.7438                 6.7638
 IR Inten    --      0.5277                 5.0927                 0.2446

                     55                     56                     57
                      A                      A                      A
 Frequencies --   3628.0962              3709.7109              3753.9631
 Red. masses --      1.0771                 1.0643                 1.0659
 Frc consts  --      8.3535                 8.6295                 8.8499
 IR Inten    --     47.2967                75.0105                28.6597

 - Thermochemistry -
 -------------------
 Temperature   298.150 Kelvin.  Pressure   1.00000 Atm.
 Atom     1 has atomic number  6 and mass  12.00000

 Molecular mass:   171.05316 amu.
 Principal axes and moments of inertia in atomic units:
                           1         2         3
     Eigenvalues --   763.350293580.509763873.01601
           X            0.99997  -0.00602  -0.00535
           Y            0.00608   0.99991   0.01177
           Z            0.00528  -0.01180   0.99992
 This molecule is an asymmetric top.
 Rotational symmetry number  1.
 Warning -- assumption of classical behavior for rotation
           may cause significant error
 Rotational temperatures (Kelvin)      0.11347     0.02419     0.02236
 Rotational constants (GHZ):           2.36424     0.50405     0.46598
 Zero-point vibrational energy     429327.7 (Joules/Mol)
                                  102.61177 (Kcal/Mol)
 Warning -- explicit consideration of  18 degrees of freedom as
           vibrations may cause significant error
 Vibrational temperatures:     51.45   107.93   113.71   245.34   257.17
          (Kelvin)            292.54   333.66   424.52   467.46   474.57
                              569.64   636.32   682.43   721.80   760.65
                              816.46   848.27   887.38   918.17   936.41
                             1059.62  1081.28  1098.20  1145.26  1334.55
                             1353.01  1436.21  1453.04  1552.92  1564.57
                             1587.77  1663.53  1700.43  1752.45  1767.53
                             1806.51  1835.44  1929.70  1972.24  2024.40
                             2141.48  2153.52  2189.97  2206.51  2221.67
                             2355.64  2469.01  2607.45  4342.42  4477.40
                             4546.79  4625.65  4648.99  4662.87  5220.02
                             5337.45  5401.12

 Zero-point correction=                           0.163522 (Hartree/Particle)
 Thermal correction to Energy=                    0.175030
 Thermal correction to Enthalpy=                  0.175974
 Thermal correction to Gibbs Free Energy=         0.125575
 Sum of electronic and zero-point Energies=           -627.658534
 Sum of electronic and thermal Energies=              -627.647026
 Sum of electronic and thermal Enthalpies=            -627.646082
 Sum of electronic and thermal Free Energies=         -627.696481

                     E (Thermal)             CV                S
                      KCal/Mol        Cal/Mol-Kelvin    Cal/Mol-Kelvin
 Total                  109.833             43.159            106.074
 Electronic               0.000              0.000              0.000
 Translational            0.889              2.981             41.318
 Rotational               0.889              2.981             30.738
 Vibrational            108.056             37.198             34.018
 Vibration     1          0.594              1.982              5.481
 Vibration     2          0.599              1.966              4.017
 Vibration     3          0.600              1.963              3.915
 Vibration     4          0.626              1.879              2.430
 Vibration     5          0.629              1.868              2.341
 Vibration     6          0.639              1.835              2.103
 Vibration     7          0.653              1.792              1.864
 Vibration     8          0.689              1.683              1.445
 Vibration     9          0.709              1.626              1.285
 Vibration    10          0.713              1.616              1.261
 Vibration    11          0.763              1.479              0.978
 Vibration    12          0.802              1.378              0.820
 Vibration    13          0.831              1.307              0.726
 Vibration    14          0.857              1.246              0.654
 Vibration    15          0.884              1.187              0.590
 Vibration    16          0.923              1.102              0.509
 Vibration    17          0.947              1.054              0.468
 Vibration    18          0.976              0.996              0.422

                           ! Non-Optimized Parameters !
 Normal termination of Gaussian 16 at Wed Dec  9 18:06:57 2020.

 ----------------------------------------------------------------------
 # B3LYP/6-311++G(d,p) empiricaldispersion=gd3bj scf=xqc pop=npa geom=c
 heck
 ----------------------------------------------------------------------

 ---------------------------------------
 CID_149899088_JID_2783_Energie_neutraal
 ---------------------------------------
 Structure from the checkpoint file:  "JID_2783.chk"
 Charge =  0 Multiplicity = 1

 SCF Done:  E(RB3LYP) =  -628.026954759     A.U. after   16 cycles
 Normal termination of Gaussian 16 at Wed Dec  9 18:09:49 2020.

 ----------------------------------------------------------------------
 # B3LYP/6-311++G(d,p) empiricaldispersion=gd3bj scf=xqc pop=npa geom=c
 heck
 ----------------------------------------------------------------------

 -------------------------------------
 CID_149899088_JID_2783_Energie_kation
 -------------------------------------
 Structure from the checkpoint file:  "JID_2783.chk"
 Charge =  1 Multiplicity = 2

 SCF Done:  E(UB3LYP) =  -627.729844371     A.U. after   23 cycles
 Normal termination of Gaussian 16 at Wed Dec  9 18:14:40 2020.
 Gaussian 16:  ES64L-G16RevA.03 25-Dec-2016

 ----------------------------------------------------------------------
 # B3LYP/6-311++G(d,p) empiricaldispersion=gd3bj scf=xqc pop=npa geom=c
 heck
 ----------------------------------------------------------------------

 ------------------------------------
 CID_149899088_JID_2783_Energie_anion
 ------------------------------------
 Structure from the checkpoint file:  "JID_2783.chk"
 Charge = -1 Multiplicity = 2

                         Standard orientation:
 ---------------------------------------------------------------------
 Center     Atomic      Atomic             Coordinates (Angstroms)
 Number     Number       Type             X           Y           Z
 ---------------------------------------------------------------------
      1          6           0        3.440470   -0.807830   -0.853858
      2          8           0        2.369393    0.127047   -0.941100
      3          6           0        1.563133    0.278888    0.195659
      4          6           0        0.658594    1.448001   -0.035235
      5          6           0       -0.679284    1.332388   -0.131952
      6          6           0       -1.343799    0.058061    0.014225
      7          6           0       -0.571453   -1.028294    0.322508
      8          7           0        0.768322   -0.921841    0.466913
      9          6           0       -2.793573   -0.027567   -0.124811
     10          8           0       -3.534982    0.910240   -0.359704
     11          8           0       -3.280351   -1.296115    0.037382
     12          8           0        2.445477    0.472265    1.293956
     13          1           0        3.941976   -0.772571   -1.822844
     14          1           0        3.077674   -1.833770   -0.692052
     15          1           0        4.145599   -0.543058   -0.061089
     16          1           0        1.172146    2.395760   -0.152184
     17          1           0       -1.302519    2.201311   -0.317326
     18          1           0       -0.998159   -2.009701    0.493348
     19          1           0        1.296424   -1.735246    0.750084
     20          1           0       -4.244046   -1.212071   -0.076423
     21          1           0        1.891823    0.732855    2.046612
 ---------------------------------------------------------------------

 SCF Done:  E(UB3LYP) =  -628.022022339     A.U. after   31 cycles

 The electronic state is 2-A.
 Alpha  occ. eigenvalues --  -19.04993 -19.02086 -19.01819 -18.98319 -14.22316
 Alpha  occ. eigenvalues --  -10.20125 -10.17615 -10.09747 -10.09143 -10.05708
 Alpha  occ. eigenvalues --  -10.04631 -10.04484  -0.98532  -0.97298  -0.89701
 Alpha  occ. eigenvalues --   -0.89290  -0.82678  -0.69237  -0.65361  -0.59186
 Alpha  occ. eigenvalues --   -0.54706  -0.51611  -0.49416  -0.45718  -0.41792
 Alpha  occ. eigenvalues --   -0.39980  -0.39678  -0.36584  -0.35499  -0.34267
 Alpha  occ. eigenvalues --   -0.33005  -0.32288  -0.31966  -0.30892  -0.28089
 Alpha  occ. eigenvalues --   -0.27007  -0.25092  -0.24238  -0.22702  -0.20787
 Alpha  occ. eigenvalues --   -0.19316  -0.17491  -0.16386  -0.16248  -0.09336
 Alpha  occ. eigenvalues --    0.04722
 Alpha virt. eigenvalues --    0.07495   0.07929   0.08695   0.09032   0.10320
 Alpha virt. eigenvalues --    0.11269   0.11525   0.12188   0.12790   0.13537
 Alpha virt. eigenvalues --    0.14789   0.16012   0.16732   0.16939   0.18139

  Beta  occ. eigenvalues --  -19.04992 -19.02064 -19.01822 -18.98276 -14.22112
  Beta  occ. eigenvalues --  -10.20132 -10.17565 -10.09686 -10.08837 -10.05637
  Beta  occ. eigenvalues --  -10.04684 -10.04442  -0.98492  -0.97257  -0.89667
  Beta  occ. eigenvalues --   -0.89234  -0.82297  -0.69068  -0.65170  -0.59079
  Beta  occ. eigenvalues --   -0.54413  -0.51393  -0.49324  -0.45595  -0.41706
  Beta  occ. eigenvalues --   -0.39811  -0.39546  -0.36514  -0.35353  -0.34138
  Beta  occ. eigenvalues --   -0.32810  -0.32200  -0.31896  -0.30824  -0.27972
  Beta  occ. eigenvalues --   -0.26746  -0.24638  -0.24166  -0.22512  -0.20615
  Beta  occ. eigenvalues --   -0.19198  -0.17345  -0.16284  -0.15890  -0.08806
  Beta virt. eigenvalues --    0.07642   0.08147   0.09105   0.09420   0.09963
  Beta virt. eigenvalues --    0.10537   0.11714   0.11934   0.12196   0.13395
  Beta virt. eigenvalues --    0.14337   0.14736   0.15964   0.16769   0.16989

 Mulliken charges and spin densities:
               1          2
     1  C    0.679527  -0.873528
     2  O   -0.073377   0.062064
     3  C   -0.159804  -0.789562
     4  C   -0.175187   0.003333
     5  C    0.156735   0.329937
     6  C    0.667338  -0.771038
     7  C   -0.666638   0.803808
     8  N   -0.064485  -0.020938
     9  C    0.532703  -0.712652
    10  O   -0.374021   0.009304
    11  O   -0.222538   0.014685
    12  O   -0.224627   0.052039
    13  H   -0.155547   0.284038
    14  H   -0.366145   0.493599
    15  H   -0.059554   0.221473
    16  H    0.077056   0.081590
    17  H    0.150594   0.038507
    18  H   -0.565794   0.759736
    19  H   -0.389755   0.724035
    20  H    0.215989   0.048293
    21  H    0.017530   0.241275
 Sum of Mulliken charges =  -1.00000   1.00000

 Dipole moment (field-independent basis, Debye):
    X=             -2.0286    Y=              2.5641    Z=             -0.8067  Tot=              3.3676
 Quadrupole moment (field-independent basis, Debye-Ang):
   XX=           -118.1444   YY=           -101.5012   ZZ=            -91.0965
   XY=             12.2079   XZ=             -1.4670   YZ=              4.8678

 Summary of Natural Population Analysis:

                                       Natural Population
                Natural  -----------------------------------------------
    Atom  No    Charge         Core      Valence    Rydberg      Total
 -----------------------------------------------------------------------
      C    1   -0.10415      0.99959     2.09533    0.00923     3.10415
      O    2   -0.30042      0.99986     3.29116    0.00940     4.30042
      C    3    0.34968      0.99956     1.62711    0.02365     2.65032
      C    4   -0.13530      0.99950     2.12551    0.01030     3.13530
      C    5   -0.06399      0.99952     2.05510    0.00937     3.06399
      C    6   -0.16957      0.99945     2.15854    0.01159     3.16957
      C    7    0.12731      0.99953     1.85992    0.01325     2.87269
      N    8   -0.27715      0.99966     2.76561    0.01188     3.77715
      C    9    0.39541      0.99963     1.57961    0.02535     2.60459
      O   10   -0.33141      0.99987     3.32564    0.00590     4.33141
      O   11   -0.35645      0.99988     3.35018    0.00639     4.35645
      O   12   -0.37715      0.99988     3.37133    0.00594     4.37715
      H   13    0.08740      0.00000     0.41162    0.00098     0.41260
      H   14    0.08261      0.00000     0.41484    0.00255     0.41739
      H   15    0.08872      0.00000     0.40967    0.00161     0.41128
      H   16    0.10161      0.00000     0.39746    0.00093     0.39839
      H   17    0.10683      0.00000     0.39215    0.00103     0.39317
      H   18    0.10366      0.00000     0.39457    0.00177     0.39634
      H   19    0.20159      0.00000     0.28589    0.01253     0.29841
      H   20    0.23405      0.00000     0.26241    0.00354     0.26595
      H   21    0.23674      0.00000     0.25951    0.00375     0.26326
 =======================================================================
   * Total *   -0.00000     11.99593    32.83313    0.17094    45.00000

 Normal termination of Gaussian 16 at Wed Dec  9 18:20:28 2020.
