 Gaussian 16, Revision A.03,

 -----------------------------------------------------------
 # opt freq B3LYP/6-31G(d) empiricaldispersion=gd3bj scf=xqc
 -----------------------------------------------------------

 ------------------------------
 CID_45088789_JID_2911_neutraal
 ------------------------------
 Symbolic Z-matrix:
 Charge =  0 Multiplicity = 1

 SCF Done:  E(RB3LYP) =  -553.480420150     A.U. after   15 cycles
 SCF Done:  E(RB3LYP) =  -553.491823618     A.U. after   13 cycles
 SCF Done:  E(RB3LYP) =  -553.493725267     A.U. after   12 cycles
 SCF Done:  E(RB3LYP) =  -553.494954905     A.U. after   12 cycles
 SCF Done:  E(RB3LYP) =  -553.495903746     A.U. after   13 cycles
 SCF Done:  E(RB3LYP) =  -553.496339665     A.U. after   12 cycles
 SCF Done:  E(RB3LYP) =  -553.496599856     A.U. after   11 cycles
 SCF Done:  E(RB3LYP) =  -553.496677220     A.U. after   11 cycles
 SCF Done:  E(RB3LYP) =  -553.496742495     A.U. after   11 cycles
 SCF Done:  E(RB3LYP) =  -553.496789745     A.U. after   11 cycles
 SCF Done:  E(RB3LYP) =  -553.496794685     A.U. after   10 cycles
 SCF Done:  E(RB3LYP) =  -553.496797802     A.U. after    9 cycles
 SCF Done:  E(RB3LYP) =  -553.496799505     A.U. after    9 cycles
 SCF Done:  E(RB3LYP) =  -553.496799870     A.U. after    8 cycles
 Optimization completed.
    -- Stationary point found.
 Normal termination of Gaussian 16 at Wed Dec  9 18:12:18 2020.

 --------------------------------------------------------------------
 #N Geom=AllCheck Guess=TCheck SCRF=Check GenChk RB3LYP/6-31G(d) Freq
 --------------------------------------------------------------------

 Structure from the checkpoint file:  "JID_2911.chk"
 ------------------------------
 CID_45088789_JID_2911_neutraal
 ------------------------------
 Charge =  0 Multiplicity = 1

 SCF Done:  E(RB3LYP) =  -553.496799870     A.U. after    1 cycles

  Exact polarizability: 138.927  -1.912 101.687   5.523  -1.923  56.630
 Approx polarizability: 195.377 -11.449 172.251   3.578  -7.314  93.874

                      1                      2                      3
                      A                      A                      A
 Frequencies --     71.1158                98.5566               152.5532
 Red. masses --      3.4652                 5.3564                 3.7643
 Frc consts  --      0.0103                 0.0307                 0.0516
 IR Inten    --      1.2265                 0.1273                 4.4183

                      4                      5                      6
                      A                      A                      A
 Frequencies --    252.3977               261.9073               289.1081
 Red. masses --      5.3431                 3.0083                 2.9810
 Frc consts  --      0.2005                 0.1216                 0.1468
 IR Inten    --      4.3463                 1.1435                 9.1246

                      7                      8                      9
                      A                      A                      A
 Frequencies --    325.4077               341.1554               409.0138
 Red. masses --      4.5406                 4.0953                 2.5795
 Frc consts  --      0.2833                 0.2808                 0.2543
 IR Inten    --      5.1752                 1.0187                12.2948

                     10                     11                     12
                      A                      A                      A
 Frequencies --    457.7106               509.5137               564.9649
 Red. masses --      6.1204                 4.9482                 3.8052
 Frc consts  --      0.7555                 0.7568                 0.7156
 IR Inten    --      8.1705                 1.5449                 3.1611

                     13                     14                     15
                      A                      A                      A
 Frequencies --    621.0797               633.8734               720.9979
 Red. masses --      3.9238                 3.8073                 1.2203
 Frc consts  --      0.8918                 0.9013                 0.3738
 IR Inten    --      5.4957                 3.2435                38.8805

                     16                     17                     18
                      A                      A                      A
 Frequencies --    751.9790               775.6832               797.8271
 Red. masses --      3.5636                 2.4493                 1.6802
 Frc consts  --      1.1873                 0.8683                 0.6301
 IR Inten    --     18.7545                12.1718                32.3337

                     19                     20                     21
                      A                      A                      A
 Frequencies --    799.8572               824.7039               862.5096
 Red. masses --      1.5162                 4.1176                 1.3104
 Frc consts  --      0.5715                 1.6500                 0.5743
 IR Inten    --     17.5720                 2.0725                 5.7805

                     22                     23                     24
                      A                      A                      A
 Frequencies --    874.1312               887.7498               906.0030
 Red. masses --      2.3398                 1.2866                 4.1757
 Frc consts  --      1.0534                 0.5974                 2.0195
 IR Inten    --     33.2488                 3.9178                35.9617

                     25                     26                     27
                      A                      A                      A
 Frequencies --    913.7252               968.5893               994.4655
 Red. masses --      4.5167                 1.3534                 2.4975
 Frc consts  --      2.2218                 0.7481                 1.4552
 IR Inten    --      6.8365                11.6934                39.4748

                     28                     29                     30
                      A                      A                      A
 Frequencies --   1016.9378              1051.7788              1103.9823
 Red. masses --      3.3299                 1.2897                 2.5491
 Frc consts  --      2.0290                 0.8406                 1.8305
 IR Inten    --     28.9845                 3.8769               114.5854

                     31                     32                     33
                      A                      A                      A
 Frequencies --   1107.0269              1164.8661              1193.1477
 Red. masses --      1.8184                 5.0632                 2.8356
 Frc consts  --      1.3130                 4.0479                 2.3784
 IR Inten    --     98.6756                89.3819                 7.9370

                     34                     35                     36
                      A                      A                      A
 Frequencies --   1254.3380              1291.7853              1301.7076
 Red. masses --      1.5002                 1.2844                 1.2178
 Frc consts  --      1.3907                 1.2628                 1.2157
 IR Inten    --      1.1181                 1.7850                 3.7346

                     37                     38                     39
                      A                      A                      A
 Frequencies --   1328.4825              1354.2505              1357.9696
 Red. masses --      1.3514                 1.8168                 1.8946
 Frc consts  --      1.4053                 1.9631                 2.0585
 IR Inten    --     57.3764                64.0389                21.2263

                     40                     41                     42
                      A                      A                      A
 Frequencies --   1375.4295              1398.8639              1431.8218
 Red. masses --      2.8959                 1.5078                 1.3519
 Frc consts  --      3.2278                 1.7384                 1.6329
 IR Inten    --     14.8200                69.7897                18.4494

                     43                     44                     45
                      A                      A                      A
 Frequencies --   1468.9122              1513.3828              1526.7390
 Red. masses --      4.6248                 1.1489                 3.4143
 Frc consts  --      5.8795                 1.5503                 4.6890
 IR Inten    --     20.2320                 8.1055                47.4409

                     46                     47                     48
                      A                      A                      A
 Frequencies --   1607.9846              1714.8678              1730.4183
 Red. masses --      5.4139                 6.5954                 5.9264
 Frc consts  --      8.2476                11.4275                10.4554
 IR Inten    --      4.8879                89.4146                26.1744

                     49                     50                     51
                      A                      A                      A
 Frequencies --   3046.3385              3101.9391              3151.8853
 Red. masses --      1.0603                 1.1053                 1.0881
 Frc consts  --      5.7972                 6.2663                 6.3689
 IR Inten    --     32.6971                26.9462                36.5417

                     52                     53                     54
                      A                      A                      A
 Frequencies --   3192.2465              3221.9556              3241.4510
 Red. masses --      1.0915                 1.0938                 1.0945
 Frc consts  --      6.5537                 6.6903                 6.7753
 IR Inten    --     21.6072                11.1080                16.5566

                     55                     56                     57
                      A                      A                      A
 Frequencies --   3249.5265              3263.3091              3283.4398
 Red. masses --      1.0915                 1.0945                 1.1034
 Frc consts  --      6.7906                 6.8671                 7.0086
 IR Inten    --      4.8968                 5.5054                 3.9725

 - Thermochemistry -
 -------------------
 Temperature   298.150 Kelvin.  Pressure   1.00000 Atm.
 Atom     1 has atomic number  6 and mass  12.00000

 Molecular mass:   163.06333 amu.
 Principal axes and moments of inertia in atomic units:
                           1         2         3
     Eigenvalues --   830.937292419.385423099.90916
           X            0.99993   0.00884   0.00780
           Y           -0.00891   0.99992   0.00865
           Z           -0.00772  -0.00872   0.99993
 This molecule is an asymmetric top.
 Rotational symmetry number  1.
 Warning -- assumption of classical behavior for rotation
           may cause significant error
 Rotational temperatures (Kelvin)      0.10424     0.03580     0.02794
 Rotational constants (GHZ):           2.17193     0.74595     0.58219
 Zero-point vibrational energy     437315.0 (Joules/Mol)
                                  104.52080 (Kcal/Mol)
 Warning -- explicit consideration of  12 degrees of freedom as
           vibrations may cause significant error
 Vibrational temperatures:    102.32   141.80   219.49   363.14   376.83
          (Kelvin)            415.96   468.19   490.85   588.48   658.54
                              733.08   812.86   893.60   912.00  1037.36
                             1081.93  1116.04  1147.90  1150.82  1186.56
                             1240.96  1257.68  1277.27  1303.54  1314.65
                             1393.58  1430.81  1463.15  1513.28  1588.38
                             1592.76  1675.98  1716.67  1804.71  1858.59
                             1872.87  1911.39  1948.46  1953.82  1978.94
                             2012.65  2060.07  2113.44  2177.42  2196.64
                             2313.53  2467.31  2489.69  4383.00  4463.00
                             4534.86  4592.93  4635.68  4663.73  4675.34
                             4695.17  4724.14

 Zero-point correction=                           0.166564 (Hartree/Particle)
 Thermal correction to Energy=                    0.176091
 Thermal correction to Enthalpy=                  0.177035
 Thermal correction to Gibbs Free Energy=         0.131631
 Sum of electronic and zero-point Energies=           -553.330235
 Sum of electronic and thermal Energies=              -553.320709
 Sum of electronic and thermal Enthalpies=            -553.319765
 Sum of electronic and thermal Free Energies=         -553.365169

                     E (Thermal)             CV                S
                      KCal/Mol        Cal/Mol-Kelvin    Cal/Mol-Kelvin
 Total                  110.499             37.960             95.560
 Electronic               0.000              0.000              0.000
 Translational            0.889              2.981             41.176
 Rotational               0.889              2.981             30.212
 Vibrational            108.721             31.999             24.173
 Vibration     1          0.598              1.968              4.122
 Vibration     2          0.604              1.950              3.483
 Vibration     3          0.619              1.900              2.640
 Vibration     4          0.664              1.759              1.714
 Vibration     5          0.669              1.743              1.649
 Vibration     6          0.686              1.694              1.479
 Vibration     7          0.710              1.625              1.283
 Vibration     8          0.721              1.593              1.207
 Vibration     9          0.773              1.451              0.930
 Vibration    10          0.816              1.344              0.773
 Vibration    11          0.865              1.229              0.635
 Vibration    12          0.921              1.107              0.514

                           ! Non-Optimized Parameters !
 Normal termination of Gaussian 16 at Wed Dec  9 18:17:12 2020.

 ----------------------------------------------------------------------
 # B3LYP/6-311++G(d,p) empiricaldispersion=gd3bj scf=xqc pop=npa geom=c
 heck
 ----------------------------------------------------------------------

 --------------------------------------
 CID_45088789_JID_2911_Energie_neutraal
 --------------------------------------
 Structure from the checkpoint file:  "JID_2911.chk"
 Charge =  0 Multiplicity = 1

 SCF Done:  E(RB3LYP) =  -553.650820839     A.U. after   15 cycles
 Normal termination of Gaussian 16 at Wed Dec  9 18:18:54 2020.

 ----------------------------------------------------------------------
 # B3LYP/6-311++G(d,p) empiricaldispersion=gd3bj scf=xqc pop=npa geom=c
 heck
 ----------------------------------------------------------------------

 ------------------------------------
 CID_45088789_JID_2911_Energie_kation
 ------------------------------------
 Structure from the checkpoint file:  "JID_2911.chk"
 Charge =  1 Multiplicity = 2

 SCF Done:  E(UB3LYP) =  -553.358898638     A.U. after   25 cycles
 Normal termination of Gaussian 16 at Wed Dec  9 18:22:24 2020.
 Gaussian 16:  ES64L-G16RevA.03 25-Dec-2016

 ----------------------------------------------------------------------
 # B3LYP/6-311++G(d,p) empiricaldispersion=gd3bj scf=xqc pop=npa geom=c
 heck
 ----------------------------------------------------------------------

 -----------------------------------
 CID_45088789_JID_2911_Energie_anion
 -----------------------------------
 Structure from the checkpoint file:  "JID_2911.chk"
 Charge = -1 Multiplicity = 2

                         Standard orientation:
 ---------------------------------------------------------------------
 Center     Atomic      Atomic             Coordinates (Angstroms)
 Number     Number       Type             X           Y           Z
 ---------------------------------------------------------------------
      1          6           0        0.013862    1.550817    0.415335
      2          6           0       -1.177675    0.702267    0.096151
      3          6           0       -2.484104    1.063636   -0.161058
      4          6           0       -3.269628   -0.125163   -0.198315
      5          6           0       -2.424194   -1.186496    0.041378
      6          7           0       -1.153716   -0.687091    0.219115
      7          6           0        0.072886   -1.350447    0.469647
      8          6           0        1.005656   -1.236764   -0.474347
      9          8           0        2.350457   -1.362574   -0.191770
     10          6           0        2.911969   -0.141146    0.119719
     11          6           0        2.356387    1.077861    0.035069
     12          8           0        1.123708    1.366116   -0.509879
     13          1           0       -0.290901    2.601498    0.369067
     14          1           0        0.377971    1.344157    1.428615
     15          1           0       -2.837571    2.077827   -0.292728
     16          1           0       -4.331654   -0.193664   -0.389403
     17          1           0       -2.602014   -2.251687    0.067438
     18          1           0        0.286186   -1.694104    1.478339
     19          1           0        0.769891   -0.899890   -1.478172
     20          1           0        3.930068   -0.261328    0.471550
     21          1           0        2.949771    1.931105    0.363208
 ---------------------------------------------------------------------

 SCF Done:  E(UB3LYP) =  -553.633081247     A.U. after   33 cycles
 SCF Done:  E(UB3LYP) =  -553.633081247     a.u. after    1 cycles

 The electronic state is 2-A.
 Alpha  occ. eigenvalues --  -19.06677 -19.03635 -14.26281 -10.13250 -10.12809
 Alpha  occ. eigenvalues --  -10.12248 -10.11478 -10.09727 -10.09519 -10.09013
 Alpha  occ. eigenvalues --  -10.05878 -10.05701  -0.98597  -0.94401  -0.88767
 Alpha  occ. eigenvalues --   -0.71760  -0.68106  -0.64756  -0.62430  -0.57096
 Alpha  occ. eigenvalues --   -0.53501  -0.48084  -0.47054  -0.44600  -0.43391
 Alpha  occ. eigenvalues --   -0.41453  -0.40946  -0.37132  -0.36024  -0.34680
 Alpha  occ. eigenvalues --   -0.32652  -0.32068  -0.30206  -0.29718  -0.28622
 Alpha  occ. eigenvalues --   -0.28273  -0.26096  -0.24655  -0.19691  -0.15817
 Alpha  occ. eigenvalues --   -0.13893  -0.13290  -0.11632   0.04909
 Alpha virt. eigenvalues --    0.06629   0.07038   0.07784   0.08464   0.09220
 Alpha virt. eigenvalues --    0.09726   0.10877   0.11272   0.11534   0.11902
 Alpha virt. eigenvalues --    0.12781   0.14441   0.14584   0.15197   0.15545

  Beta  occ. eigenvalues --  -19.06676 -19.03616 -14.26282 -10.13238 -10.12767
  Beta  occ. eigenvalues --  -10.12105 -10.11459 -10.09674 -10.09502 -10.08981
  Beta  occ. eigenvalues --  -10.05869 -10.05682  -0.98534  -0.94367  -0.88734
  Beta  occ. eigenvalues --   -0.71652  -0.68055  -0.64661  -0.62340  -0.57044
  Beta  occ. eigenvalues --   -0.53363  -0.48018  -0.46958  -0.44510  -0.43325
  Beta  occ. eigenvalues --   -0.41380  -0.40868  -0.37068  -0.35951  -0.34608
  Beta  occ. eigenvalues --   -0.32577  -0.32018  -0.30151  -0.29667  -0.28583
  Beta  occ. eigenvalues --   -0.28209  -0.26051  -0.24621  -0.19453  -0.15630
  Beta  occ. eigenvalues --   -0.13678  -0.13232  -0.11555
  Beta virt. eigenvalues --    0.07235   0.07756   0.08145   0.08524   0.09321
  Beta virt. eigenvalues --    0.09879   0.10159   0.11059   0.11443   0.12019
  Beta virt. eigenvalues --    0.12505   0.12936   0.14388   0.14555   0.15170

 Mulliken charges and spin densities:
               1          2
     1  C    1.282687  -1.929883
     2  C   -0.315258   0.263191
     3  C   -0.808430   0.860011
     4  C    1.132948  -1.553000
     5  C   -0.113085   0.064858
     6  N    0.104605   0.135861
     7  C    0.523243  -0.467924
     8  C   -0.600965   0.203043
     9  O   -0.077966   0.012645
    10  C    0.258409  -0.306363
    11  C    0.801610  -0.944734
    12  O   -0.143173   0.044605
    13  H   -0.372942   0.578194
    14  H    0.189616  -0.050651
    15  H   -0.371679   0.523891
    16  H   -0.355909   0.501952
    17  H   -0.658198   0.819443
    18  H   -0.349155   0.554780
    19  H    0.182538   0.027501
    20  H   -0.930455   1.133947
    21  H   -0.378441   0.528634
 Sum of Mulliken charges =  -1.00000   1.00000

 Dipole moment (field-independent basis, Debye):
    X=             -1.7653    Y=             -0.0600    Z=             -1.7540  Tot=              2.4892
 Quadrupole moment (field-independent basis, Debye-Ang):
   XX=           -144.6655   YY=           -112.1158   ZZ=            -94.6931
   XY=             -6.0986   XZ=             -6.1778   YZ=              3.1279

 Summary of Natural Population Analysis:

                                       Natural Population
                Natural  -----------------------------------------------
    Atom  No    Charge         Core      Valence    Rydberg      Total
 -----------------------------------------------------------------------
      C    1   -0.02531      0.99949     2.01392    0.01189     3.02531
      C    2    0.06257      0.99950     1.92540    0.01253     2.93743
      C    3   -0.13732      0.99950     2.12830    0.00952     3.13732
      C    4   -0.14447      0.99957     2.13580    0.00910     3.14447
      C    5   -0.00548      0.99955     1.99351    0.01242     3.00548
      N    6   -0.21072      0.99962     2.69879    0.01231     3.71072
      C    7   -0.03414      0.99944     2.02259    0.01212     3.03414
      C    8    0.11204      0.99940     1.87434    0.01422     2.88796
      O    9   -0.27531      0.99986     3.26417    0.01128     4.27531
      C   10    0.05669      0.99942     1.92848    0.01541     2.94331
      C   11    0.01924      0.99943     1.96681    0.01452     2.98076
      O   12   -0.29762      0.99987     3.28772    0.01003     4.29762
      H   13    0.09600      0.00000     0.40259    0.00141     0.40400
      H   14    0.09345      0.00000     0.40488    0.00167     0.40655
      H   15    0.10458      0.00000     0.39428    0.00114     0.39542
      H   16    0.10330      0.00000     0.39582    0.00088     0.39670
      H   17    0.10265      0.00000     0.39560    0.00174     0.39735
      H   18    0.10070      0.00000     0.39770    0.00160     0.39930
      H   19    0.08994      0.00000     0.40879    0.00127     0.41006
      H   20    0.09886      0.00000     0.39758    0.00356     0.40114
      H   21    0.09035      0.00000     0.40768    0.00197     0.40965
 =======================================================================
   * Total *   -0.00000     11.99466    30.84474    0.16059    43.00000

 Normal termination of Gaussian 16 at Wed Dec  9 18:27:07 2020.
