 Gaussian 16, Revision A.03,

 -----------------------------------------------------------
 # opt freq B3LYP/6-31G(d) empiricaldispersion=gd3bj scf=xqc
 -----------------------------------------------------------

 -------------------------------
 CID_105444989_JID_4312_neutraal
 -------------------------------
 Symbolic Z-matrix:
 Charge =  0 Multiplicity = 1

 SCF Done:  E(RB3LYP) =  -628.381757979     A.U. after   14 cycles
 SCF Done:  E(RB3LYP) =  -628.387190254     A.U. after   12 cycles
 SCF Done:  E(RB3LYP) =  -628.387626288     A.U. after   11 cycles
 SCF Done:  E(RB3LYP) =  -628.387720013     A.U. after   11 cycles
 SCF Done:  E(RB3LYP) =  -628.387761632     A.U. after   10 cycles
 SCF Done:  E(RB3LYP) =  -628.387809734     A.U. after   11 cycles
 SCF Done:  E(RB3LYP) =  -628.387887999     A.U. after   12 cycles
 SCF Done:  E(RB3LYP) =  -628.387936958     A.U. after   11 cycles
 SCF Done:  E(RB3LYP) =  -628.388091931     A.U. after   11 cycles
 SCF Done:  E(RB3LYP) =  -628.388160556     A.U. after   12 cycles
 SCF Done:  E(RB3LYP) =  -628.388225429     A.U. after    7 cycles
 SCF Done:  E(RB3LYP) =  -628.388225457     A.U. after    7 cycles
 SCF Done:  E(RB3LYP) =  -628.388225499     A.U. after    7 cycles
 SCF Done:  E(RB3LYP) =  -628.388225526     A.U. after    8 cycles
 SCF Done:  E(RB3LYP) =  -628.388225548     A.U. after    8 cycles
 Optimization completed.
    -- Stationary point found.
 Normal termination of Gaussian 16 at Thu Dec 10 09:30:37 2020.

 --------------------------------------------------------------------
 #N Geom=AllCheck Guess=TCheck SCRF=Check GenChk RB3LYP/6-31G(d) Freq
 --------------------------------------------------------------------

 Structure from the checkpoint file:  "JID_4312.chk"
 -------------------------------
 CID_105444989_JID_4312_neutraal
 -------------------------------
 Charge =  0 Multiplicity = 1

 SCF Done:  E(RB3LYP) =  -628.388225548     A.U. after    1 cycles

  Exact polarizability: 159.277  -1.068 121.338  -4.090   2.250  78.956
 Approx polarizability: 208.252  -0.826 200.235 -11.689   5.739 122.011

                      1                      2                      3
                      A                      A                      A
 Frequencies --     18.4385                38.9974                50.8668
 Red. masses --      3.1936                 3.0503                 3.0164
 Frc consts  --      0.0006                 0.0027                 0.0046
 IR Inten    --      0.3046                 0.9613                 7.1930

                      4                      5                      6
                      A                      A                      A
 Frequencies --     95.0926               126.8443               189.3713
 Red. masses --      2.9589                 4.3767                 3.0736
 Frc consts  --      0.0158                 0.0415                 0.0649
 IR Inten    --      3.0947                 0.1090                 0.5937

                      7                      8                      9
                      A                      A                      A
 Frequencies --    243.5888               291.1707               313.0545
 Red. masses --      3.1680                 2.2153                 4.4867
 Frc consts  --      0.1108                 0.1107                 0.2591
 IR Inten    --      0.8715                 3.8368                 2.0127

                     10                     11                     12
                      A                      A                      A
 Frequencies --    339.7531               407.9706               478.1918
 Red. masses --      4.2762                 3.5253                 3.4261
 Frc consts  --      0.2908                 0.3457                 0.4616
 IR Inten    --      0.1540                 0.2244                 2.8954

                     13                     14                     15
                      A                      A                      A
 Frequencies --    500.0537               559.0361               591.9376
 Red. masses --      4.0969                 7.0473                 2.5204
 Frc consts  --      0.6036                 1.2976                 0.5203
 IR Inten    --      8.0485                 7.2914                28.5930

                     16                     17                     18
                      A                      A                      A
 Frequencies --    634.5724               647.9213               736.3382
 Red. masses --      2.8951                 4.9245                 8.0517
 Frc consts  --      0.6869                 1.2180                 2.5721
 IR Inten    --      9.7739                15.9270                 8.8284

                     19                     20                     21
                      A                      A                      A
 Frequencies --    752.0280               804.1877               855.2597
 Red. masses --      2.9942                 2.8925                 4.3469
 Frc consts  --      0.9977                 1.1021                 1.8734
 IR Inten    --     16.9856                11.4093                14.4033

                     22                     23                     24
                      A                      A                      A
 Frequencies --    865.3141               889.4768               903.6776
 Red. masses --      2.6092                 1.9579                 3.4283
 Frc consts  --      1.1511                 0.9127                 1.6495
 IR Inten    --     11.2628                53.3840                13.6141

                     25                     26                     27
                      A                      A                      A
 Frequencies --    926.2768               946.6284               948.8590
 Red. masses --      4.6078                 2.1496                 1.5450
 Frc consts  --      2.3293                 1.1349                 0.8196
 IR Inten    --     18.7960                 3.4483                 4.5911

                     28                     29                     30
                      A                      A                      A
 Frequencies --    992.7755              1009.2408              1030.9012
 Red. masses --      2.6792                 1.9661                 1.6277
 Frc consts  --      1.5558                 1.1799                 1.0192
 IR Inten    --      1.8946                 1.6513                 0.5994

                     31                     32                     33
                      A                      A                      A
 Frequencies --   1033.0401              1071.8468              1092.2893
 Red. masses --      1.6587                 1.8454                 1.8911
 Frc consts  --      1.0429                 1.2491                 1.3293
 IR Inten    --     10.8606                 1.5196                 1.6495

                     34                     35                     36
                      A                      A                      A
 Frequencies --   1098.5959              1123.7068              1144.1833
 Red. masses --      7.7339                 2.8914                 2.5942
 Frc consts  --      5.4995                 2.1511                 2.0010
 IR Inten    --     81.2519                 5.4756                12.6571

                     37                     38                     39
                      A                      A                      A
 Frequencies --   1174.0794              1184.6359              1208.7343
 Red. masses --      5.4456                 1.0998                 1.2069
 Frc consts  --      4.4228                 0.9094                 1.0389
 IR Inten    --      2.2126                 0.0895                 1.0424

                     40                     41                     42
                      A                      A                      A
 Frequencies --   1220.2675              1225.0815              1246.5118
 Red. masses --      1.2579                 1.0623                 4.4929
 Frc consts  --      1.1036                 0.9393                 4.1131
 IR Inten    --      2.0930                 0.5913                 4.2511

                     43                     44                     45
                      A                      A                      A
 Frequencies --   1254.3078              1286.1958              1301.8679
 Red. masses --      1.5468                 1.5822                 1.4190
 Frc consts  --      1.4338                 1.5421                 1.4170
 IR Inten    --      3.1721                16.6374                11.6661

                     46                     47                     48
                      A                      A                      A
 Frequencies --   1312.4309              1317.2797              1331.3075
 Red. masses --      1.7292                 1.4130                 1.3956
 Frc consts  --      1.7549                 1.4446                 1.4574
 IR Inten    --      2.5265                19.7817                 3.7860

                     49                     50                     51
                      A                      A                      A
 Frequencies --   1338.7860              1364.1936              1403.6787
 Red. masses --      1.3127                 2.0167                 1.7555
 Frc consts  --      1.3863                 2.2113                 2.0379
 IR Inten    --      1.8422                11.5092                10.7693

                     52                     53                     54
                      A                      A                      A
 Frequencies --   1418.7247              1446.3306              1455.9633
 Red. masses --      1.5052                 3.9473                 1.6016
 Frc consts  --      1.7850                 4.8650                 2.0003
 IR Inten    --      3.7164                79.0434                33.1716

                     55                     56                     57
                      A                      A                      A
 Frequencies --   1475.5397              1530.0712              1534.1224
 Red. masses --      3.0578                 1.0838                 1.0863
 Frc consts  --      3.9224                 1.4949                 1.5063
 IR Inten    --     74.5648                 4.4095                 1.9274

                     58                     59                     60
                      A                      A                      A
 Frequencies --   1537.4940              1549.8381              1555.9270
 Red. masses --      1.0922                 1.0893                 1.1025
 Frc consts  --      1.5212                 1.5416                 1.5726
 IR Inten    --      1.5692                 1.0388                 1.6350

                     61                     62                     63
                      A                      A                      A
 Frequencies --   1618.8347              1653.6311              2941.0824
 Red. masses --      8.5891                 7.1409                 1.0746
 Frc consts  --     13.2617                11.5048                 5.4765
 IR Inten    --    100.6076               103.2970                76.5403

                     64                     65                     66
                      A                      A                      A
 Frequencies --   2955.8308              3009.3745              3019.1116
 Red. masses --      1.0735                 1.0658                 1.0672
 Frc consts  --      5.5260                 5.6870                 5.7315
 IR Inten    --     85.9154                74.7270                34.4868

                     67                     68                     69
                      A                      A                      A
 Frequencies --   3042.1405              3055.2280              3068.5643
 Red. masses --      1.0831                 1.0973                 1.0979
 Frc consts  --      5.9059                 6.0347                 6.0910
 IR Inten    --      9.6013                34.3494                32.2342

                     70                     71                     72
                      A                      A                      A
 Frequencies --   3085.3077              3100.3143              3116.3819
 Red. masses --      1.0843                 1.0679                 1.0899
 Frc consts  --      6.0812                 6.0477                 6.2362
 IR Inten    --     31.0948                50.1212                25.8866

                     73                     74                     75
                      A                      A                      A
 Frequencies --   3146.2359              3168.3175              3506.2294
 Red. masses --      1.1038                 1.0917                 1.0748
 Frc consts  --      6.4375                 6.4564                 7.7851
 IR Inten    --     20.0446                28.6779                 2.8025

 - Thermochemistry -
 -------------------
 Temperature   298.150 Kelvin.  Pressure   1.00000 Atm.
 Atom     1 has atomic number  6 and mass  12.00000

 Molecular mass:   191.10586 amu.
 Principal axes and moments of inertia in atomic units:
                           1         2         3
     Eigenvalues --   899.364584958.811545655.84468
           X            0.99999  -0.00187   0.00282
           Y            0.00187   1.00000   0.00213
           Z           -0.00283  -0.00212   0.99999
 This molecule is an asymmetric top.
 Rotational symmetry number  1.
 Warning -- assumption of classical behavior for rotation
           may cause significant error
 Rotational temperatures (Kelvin)      0.09631     0.01747     0.01531
 Rotational constants (GHZ):           2.00668     0.36395     0.31909
 Zero-point vibrational energy     597603.1 (Joules/Mol)
                                  142.83058 (Kcal/Mol)
 Warning -- explicit consideration of  15 degrees of freedom as
           vibrations may cause significant error
 Vibrational temperatures:     26.53    56.11    73.19   136.82   182.50
          (Kelvin)            272.46   350.47   418.93   450.42   488.83
                              586.98   688.01   719.47   804.33   851.67
                              913.01   932.21  1059.43  1082.00  1157.05
                             1230.53  1244.99  1279.76  1300.19  1332.71
                             1361.99  1365.20  1428.38  1452.07  1483.24
                             1486.31  1542.15  1571.56  1580.63  1616.76
                             1646.22  1689.24  1704.43  1739.10  1755.69
                             1762.62  1793.45  1804.67  1850.55  1873.10
                             1888.30  1895.27  1915.45  1926.21  1962.77
                             2019.58  2041.23  2080.95  2094.81  2122.97
                             2201.43  2207.26  2212.11  2229.87  2238.63
                             2329.14  2379.21  4231.56  4252.78  4329.82
                             4343.83  4376.96  4395.79  4414.98  4439.07
                             4460.66  4483.78  4526.73  4558.50  5044.68

 Zero-point correction=                           0.227615 (Hartree/Particle)
 Thermal correction to Energy=                    0.239288
 Thermal correction to Enthalpy=                  0.240232
 Thermal correction to Gibbs Free Energy=         0.187153
 Sum of electronic and zero-point Energies=           -628.160611
 Sum of electronic and thermal Energies=              -628.148937
 Sum of electronic and thermal Enthalpies=            -628.147993
 Sum of electronic and thermal Free Energies=         -628.201072

                     E (Thermal)             CV                S
                      KCal/Mol        Cal/Mol-Kelvin    Cal/Mol-Kelvin
 Total                  150.156             44.043            111.715
 Electronic               0.000              0.000              0.000
 Translational            0.889              2.981             41.649
 Rotational               0.889              2.981             31.601
 Vibrational            148.378             38.081             38.465
 Vibration     1          0.593              1.986              6.796
 Vibration     2          0.594              1.981              5.309
 Vibration     3          0.595              1.977              4.783
 Vibration     4          0.603              1.953              3.552
 Vibration     5          0.611              1.926              2.993
 Vibration     6          0.633              1.854              2.234
 Vibration     7          0.659              1.773              1.777
 Vibration     8          0.687              1.690              1.467
 Vibration     9          0.701              1.649              1.346
 Vibration    10          0.720              1.596              1.213
 Vibration    11          0.773              1.453              0.934
 Vibration    12          0.835              1.298              0.715
 Vibration    13          0.855              1.250              0.658
 Vibration    14          0.915              1.120              0.526
 Vibration    15          0.949              1.049              0.464

 Optimization completed.
    -- Stationary point found.
 Normal termination of Gaussian 16 at Thu Dec 10 09:38:11 2020.

 ----------------------------------------------------------------------
 # B3LYP/6-311++G(d,p) empiricaldispersion=gd3bj scf=xqc pop=npa geom=c
 heck
 ----------------------------------------------------------------------

 ---------------------------------------
 CID_105444989_JID_4312_Energie_neutraal
 ---------------------------------------
 Structure from the checkpoint file:  "JID_4312.chk"
 Charge =  0 Multiplicity = 1

 SCF Done:  E(RB3LYP) =  -628.558335581     A.U. after   15 cycles
 Normal termination of Gaussian 16 at Thu Dec 10 09:41:44 2020.

 ----------------------------------------------------------------------
 # B3LYP/6-311++G(d,p) empiricaldispersion=gd3bj scf=xqc pop=npa geom=c
 heck
 ----------------------------------------------------------------------

 -------------------------------------
 CID_105444989_JID_4312_Energie_kation
 -------------------------------------
 Structure from the checkpoint file:  "JID_4312.chk"
 Charge =  1 Multiplicity = 2

 SCF Done:  E(UB3LYP) =  -628.254278037     A.U. after   26 cycles
 Normal termination of Gaussian 16 at Thu Dec 10 09:50:24 2020.
 Gaussian 16:  ES64L-G16RevA.03 25-Dec-2016

 ----------------------------------------------------------------------
 # B3LYP/6-311++G(d,p) empiricaldispersion=gd3bj scf=xqc pop=npa geom=c
 heck
 ----------------------------------------------------------------------

 ------------------------------------
 CID_105444989_JID_4312_Energie_anion
 ------------------------------------
 Structure from the checkpoint file:  "JID_4312.chk"
 Charge = -1 Multiplicity = 2

                         Standard orientation:
 ---------------------------------------------------------------------
 Center     Atomic      Atomic             Coordinates (Angstroms)
 Number     Number       Type             X           Y           Z
 ---------------------------------------------------------------------
      1          6           0        2.848429    1.109625   -0.051115
      2          6           0        3.915548    0.281495    0.693838
      3          7           0        3.826277   -1.035644    0.054876
      4          6           0        2.391376   -1.293375   -0.064201
      5          6           0        1.867940    0.045714   -0.623987
      6          6           0        0.405819    0.290936   -0.347721
      7          7           0       -0.006271    1.561602   -0.220117
      8          6           0       -1.312522    1.780076   -0.007428
      9          6           0       -2.210583    0.727361    0.072409
     10          6           0       -3.688581    0.609447    0.305766
     11          8           0       -3.977644   -0.789751    0.157895
     12          6           0       -2.779674   -1.561796    0.043327
     13          6           0       -1.674273   -0.548874   -0.079562
     14          7           0       -0.387940   -0.800367   -0.287229
     15          1           0        2.333927    1.811090    0.608154
     16          1           0        3.294909    1.691356   -0.861252
     17          1           0        4.924981    0.694066    0.594045
     18          1           0        3.670694    0.249279    1.772173
     19          1           0        4.292801   -1.754760    0.603549
     20          1           0        1.898910   -1.501598    0.903459
     21          1           0        2.190204   -2.139190   -0.726560
     22          1           0        1.980860    0.020056   -1.715706
     23          1           0       -1.618564    2.820408    0.095425
     24          1           0       -3.978531    0.948363    1.312122
     25          1           0       -4.288434    1.171118   -0.422149
     26          1           0       -2.639966   -2.200149    0.928897
     27          1           0       -2.845980   -2.214819   -0.835994
 ---------------------------------------------------------------------

 SCF Done:  E(UB3LYP) =  -628.554763560     A.U. after   33 cycles
 SCF Done:  E(UB3LYP) =  -628.554763560     a.u. after    1 cycles

 The electronic state is 2-A.
 Alpha  occ. eigenvalues --  -19.00789 -14.18059 -14.15405 -14.14693 -10.10800
 Alpha  occ. eigenvalues --  -10.09841 -10.09082 -10.07527 -10.06515 -10.06108
 Alpha  occ. eigenvalues --  -10.04837 -10.04826 -10.04175 -10.03797  -0.92266
 Alpha  occ. eigenvalues --   -0.83101  -0.80058  -0.73369  -0.67378  -0.63628
 Alpha  occ. eigenvalues --   -0.61865  -0.60058  -0.53669  -0.49465  -0.48024
 Alpha  occ. eigenvalues --   -0.46988  -0.43716  -0.39846  -0.38629  -0.37177
 Alpha  occ. eigenvalues --   -0.36802  -0.34407  -0.33646  -0.31602  -0.30258
 Alpha  occ. eigenvalues --   -0.28932  -0.28277  -0.26596  -0.26204  -0.25336
 Alpha  occ. eigenvalues --   -0.24885  -0.23378  -0.21826  -0.21047  -0.19998
 Alpha  occ. eigenvalues --   -0.16999  -0.15302  -0.14879  -0.11932  -0.11401
 Alpha  occ. eigenvalues --   -0.10068   0.05381
 Alpha virt. eigenvalues --    0.07141   0.08486   0.09210   0.09678   0.10089
 Alpha virt. eigenvalues --    0.10559   0.11259   0.11499   0.12106   0.12617
 Alpha virt. eigenvalues --    0.12733   0.13347   0.14042   0.14976   0.15670

  Beta  occ. eigenvalues --  -19.00783 -14.18045 -14.15286 -14.14270 -10.10795
  Beta  occ. eigenvalues --  -10.09862 -10.09080 -10.07513 -10.06507 -10.05891
  Beta  occ. eigenvalues --  -10.04841 -10.04360 -10.04168 -10.03863  -0.92231
  Beta  occ. eigenvalues --   -0.82628  -0.80021  -0.72716  -0.67115  -0.63565
  Beta  occ. eigenvalues --   -0.61749  -0.59969  -0.53158  -0.49344  -0.47837
  Beta  occ. eigenvalues --   -0.46762  -0.43632  -0.39740  -0.38466  -0.37076
  Beta  occ. eigenvalues --   -0.36620  -0.34286  -0.33474  -0.31524  -0.30139
  Beta  occ. eigenvalues --   -0.28791  -0.27964  -0.26339  -0.25900  -0.25045
  Beta  occ. eigenvalues --   -0.24627  -0.23238  -0.21769  -0.20889  -0.19930
  Beta  occ. eigenvalues --   -0.15621  -0.14726  -0.14027  -0.11532  -0.10934
  Beta  occ. eigenvalues --   -0.09742
  Beta virt. eigenvalues --    0.07568   0.08464   0.09345   0.09604   0.10081
  Beta virt. eigenvalues --    0.10500   0.10680   0.11564   0.11948   0.12580
  Beta virt. eigenvalues --    0.12756   0.12801   0.13414   0.13989   0.14823

 Mulliken charges and spin densities:
               1          2
     1  C   -0.703642   0.248356
     2  C    0.332188  -0.720648
     3  N   -0.188063   0.104597
     4  C   -0.341165  -0.269392
     5  C    0.772398  -0.341025
     6  C   -0.937902   0.081444
     7  N   -0.002055   0.046380
     8  C   -0.436751   0.373744
     9  C    0.648674  -0.098444
    10  C   -0.439324  -0.029521
    11  O   -0.201465   0.006930
    12  C   -0.223377  -0.060202
    13  C   -0.062553   0.206425
    14  N   -0.032203   0.240893
    15  H    0.178292  -0.025621
    16  H    0.086710   0.050877
    17  H   -0.112952   0.257360
    18  H   -0.061249   0.169253
    19  H   -0.070879   0.289590
    20  H    0.126400   0.046720
    21  H    0.068595   0.113500
    22  H    0.088643   0.115084
    23  H    0.103973  -0.000221
    24  H    0.130483   0.005962
    25  H    0.051965   0.095962
    26  H    0.149861   0.005396
    27  H    0.075398   0.086603
 Sum of Mulliken charges =  -1.00000   1.00000

 Dipole moment (field-independent basis, Debye):
    X=             -1.6435    Y=              0.4214    Z=              1.2154  Tot=              2.0871
 Quadrupole moment (field-independent basis, Debye-Ang):
   XX=           -144.3067   YY=           -104.6083   ZZ=            -96.4830
   XY=              0.9118   XZ=             -1.4132   YZ=              0.0505

 Summary of Natural Population Analysis:

                                       Natural Population
                Natural  -----------------------------------------------
    Atom  No    Charge         Core      Valence    Rydberg      Total
 -----------------------------------------------------------------------
      C    1   -0.18968      0.99963     2.18259    0.00746     3.18968
      C    2   -0.09126      0.99964     2.07968    0.01194     3.09126
      N    3   -0.34462      0.99975     2.83322    0.01165     3.84462
      C    4   -0.08360      0.99962     2.07155    0.01243     3.08360
      C    5   -0.12996      0.99956     2.11810    0.01230     3.12996
      C    6    0.21962      0.99958     1.76180    0.01901     2.78038
      N    7   -0.25125      0.99968     2.74141    0.01017     3.75125
      C    8    0.12445      0.99954     1.86159    0.01442     2.87555
      C    9   -0.09386      0.99943     2.08642    0.00801     3.09386
      C   10   -0.00468      0.99957     1.99279    0.01232     3.00468
      O   11   -0.30580      0.99990     3.29824    0.00766     4.30580
      C   12   -0.01735      0.99955     2.00553    0.01227     3.01735
      C   13    0.14222      0.99947     1.84509    0.01322     2.85778
      N   14   -0.21151      0.99963     2.70158    0.01029     3.71151
      H   15    0.11015      0.00000     0.38841    0.00144     0.38985
      H   16    0.09539      0.00000     0.40346    0.00115     0.40461
      H   17    0.08961      0.00000     0.40922    0.00117     0.41039
      H   18    0.07533      0.00000     0.42312    0.00155     0.42467
      H   19    0.17093      0.00000     0.32591    0.00316     0.32907
      H   20    0.08260      0.00000     0.41583    0.00157     0.41740
      H   21    0.09839      0.00000     0.40026    0.00135     0.40161
      H   22    0.10604      0.00000     0.39268    0.00128     0.39396
      H   23    0.07584      0.00000     0.42308    0.00108     0.42416
      H   24    0.07805      0.00000     0.42063    0.00132     0.42195
      H   25    0.08289      0.00000     0.41513    0.00197     0.41711
      H   26    0.08338      0.00000     0.41538    0.00124     0.41662
      H   27    0.08868      0.00000     0.40950    0.00183     0.41132
 =======================================================================
   * Total *    0.00000     13.99455    36.82219    0.18326    51.00000

 Normal termination of Gaussian 16 at Thu Dec 10 10:01:27 2020.
