 Gaussian 16, Revision A.03,

 -----------------------------------------------------------
 # opt freq B3LYP/6-31G(d) empiricaldispersion=gd3bj scf=xqc
 -----------------------------------------------------------

 ------------------------------
 CID_90282660_JID_7685_neutraal
 ------------------------------
 Symbolic Z-matrix:
 Charge =  0 Multiplicity = 1

 SCF Done:  E(RB3LYP) =  -807.185119717     A.U. after   14 cycles
 SCF Done:  E(RB3LYP) =  -807.179370181     A.U. after   13 cycles
 SCF Done:  E(RB3LYP) =  -807.185727745     A.U. after   12 cycles
 SCF Done:  E(RB3LYP) =  -807.186669042     A.U. after   12 cycles
 SCF Done:  E(RB3LYP) =  -807.187132512     A.U. after   13 cycles
 SCF Done:  E(RB3LYP) =  -807.187167434     A.U. after   12 cycles
 SCF Done:  E(RB3LYP) =  -807.188408385     A.U. after   12 cycles
 SCF Done:  E(RB3LYP) =  -807.188500980     A.U. after   11 cycles
 SCF Done:  E(RB3LYP) =  -807.188448649     A.U. after   11 cycles
 SCF Done:  E(RB3LYP) =  -807.188485871     A.U. after   11 cycles
 SCF Done:  E(RB3LYP) =  -807.188517697     A.U. after   10 cycles
 SCF Done:  E(RB3LYP) =  -807.188519308     A.U. after    8 cycles
 SCF Done:  E(RB3LYP) =  -807.188519769     A.U. after    8 cycles
 SCF Done:  E(RB3LYP) =  -807.188519888     A.U. after    7 cycles
 Optimization completed.
    -- Stationary point found.
 Normal termination of Gaussian 16 at Thu Dec 17 20:08:45 2020.

 --------------------------------------------------------------------
 #N Geom=AllCheck Guess=TCheck SCRF=Check GenChk RB3LYP/6-31G(d) Freq
 --------------------------------------------------------------------

 Structure from the checkpoint file:  "JID_7685.chk"
 ------------------------------
 CID_90282660_JID_7685_neutraal
 ------------------------------
 Charge =  0 Multiplicity = 1

 SCF Done:  E(RB3LYP) =  -807.188519888     A.U. after    1 cycles

  Exact polarizability: 167.318  11.692 138.413 -15.435  12.958 117.564
 Approx polarizability: 224.261  24.906 219.243 -21.397  28.375 192.835

                      1                      2                      3
                      A                      A                      A
 Frequencies --     22.3211                41.6965                46.1133
 Red. masses --      4.8835                 7.0814                 4.8319
 Frc consts  --      0.0014                 0.0073                 0.0061
 IR Inten    --      0.3825                 0.2061                 0.5255

                      4                      5                      6
                      A                      A                      A
 Frequencies --     51.9905                74.1026               111.9361
 Red. masses --      5.0985                 6.0172                 4.8933
 Frc consts  --      0.0081                 0.0195                 0.0361
 IR Inten    --      0.0868                 0.2938                 0.9158

                      7                      8                      9
                      A                      A                      A
 Frequencies --    164.4514               184.8701               195.9173
 Red. masses --      4.7054                 4.4200                 6.2693
 Frc consts  --      0.0750                 0.0890                 0.1418
 IR Inten    --      3.0419                 0.9658                 4.7061

                     10                     11                     12
                      A                      A                      A
 Frequencies --    209.4842               240.9634               254.7397
 Red. masses --      3.5961                 4.7767                 3.5258
 Frc consts  --      0.0930                 0.1634                 0.1348
 IR Inten    --      1.6218                 4.7227                 0.3691

                     13                     14                     15
                      A                      A                      A
 Frequencies --    327.0017               347.3338               364.4405
 Red. masses --      3.0968                 3.4740                 2.2401
 Frc consts  --      0.1951                 0.2469                 0.1753
 IR Inten    --      3.6276                 0.8248                 1.9478

                     16                     17                     18
                      A                      A                      A
 Frequencies --    389.8616               412.7475               419.3111
 Red. masses --      2.6299                 3.9340                 3.1169
 Frc consts  --      0.2355                 0.3949                 0.3229
 IR Inten    --      2.7224                 1.1333                 0.3975

                     19                     20                     21
                      A                      A                      A
 Frequencies --    441.1527               501.0914               512.3341
 Red. masses --      2.6255                 3.7493                 1.0955
 Frc consts  --      0.3011                 0.5547                 0.1694
 IR Inten    --      6.4689                 4.6022                59.0109

                     22                     23                     24
                      A                      A                      A
 Frequencies --    568.3983               573.5695               620.3890
 Red. masses --      2.9274                 2.4794                 2.3568
 Frc consts  --      0.5572                 0.4806                 0.5345
 IR Inten    --     32.1984                10.7107                13.2620

                     25                     26                     27
                      A                      A                      A
 Frequencies --    637.9251               638.5579               663.9081
 Red. masses --      5.3445                 2.0131                 1.5241
 Frc consts  --      1.2814                 0.4836                 0.3958
 IR Inten    --      2.4047                24.9306               109.9847

                     28                     29                     30
                      A                      A                      A
 Frequencies --    683.2529               716.2970               739.0877
 Red. masses --      1.5152                 1.9333                 3.0485
 Frc consts  --      0.4168                 0.5844                 0.9811
 IR Inten    --     72.9676                23.9662                46.1906

                     31                     32                     33
                      A                      A                      A
 Frequencies --    763.3802               775.2563               792.1075
 Red. masses --      1.6259                 3.0950                 3.3339
 Frc consts  --      0.5582                 1.0960                 1.2325
 IR Inten    --     28.9949                32.9469                13.4877

                     34                     35                     36
                      A                      A                      A
 Frequencies --    837.2795               862.0887               884.4073
 Red. masses --      2.5817                 1.2503                 2.3404
 Frc consts  --      1.0663                 0.5475                 1.0786
 IR Inten    --      9.6856                 0.2530                16.7886

                     37                     38                     39
                      A                      A                      A
 Frequencies --    919.3448               937.3009               968.1974
 Red. masses --      1.5670                 1.7961                 1.5273
 Frc consts  --      0.7803                 0.9297                 0.8435
 IR Inten    --      1.9996                10.7916                 1.5709

                     40                     41                     42
                      A                      A                      A
 Frequencies --    972.5557               982.0083               996.0094
 Red. masses --      1.8658                 2.0416                 1.2701
 Frc consts  --      1.0398                 1.1600                 0.7424
 IR Inten    --      3.4703                 1.9403                 0.8318

                     43                     44                     45
                      A                      A                      A
 Frequencies --   1008.5549              1022.1168              1033.8124
 Red. masses --      2.4199                 6.0912                 2.3487
 Frc consts  --      1.4503                 3.7493                 1.4790
 IR Inten    --     41.0834                 0.3966                 9.6918

                     46                     47                     48
                      A                      A                      A
 Frequencies --   1062.0166              1087.7113              1105.2377
 Red. masses --      2.1800                 2.5827                 1.8734
 Frc consts  --      1.4487                 1.8003                 1.3483
 IR Inten    --      2.2684                19.5638               110.9810

                     49                     50                     51
                      A                      A                      A
 Frequencies --   1115.5072              1125.9584              1138.9884
 Red. masses --      2.2455                 2.5441                 2.2642
 Frc consts  --      1.6463                 1.9003                 1.7307
 IR Inten    --     37.3016                 8.9394                16.5054

                     52                     53                     54
                      A                      A                      A
 Frequencies --   1186.2732              1194.2320              1200.2461
 Red. masses --      1.3850                 1.0972                 1.5826
 Frc consts  --      1.1483                 0.9220                 1.3433
 IR Inten    --     79.1889                 0.2422               167.7626

                     55                     56                     57
                      A                      A                      A
 Frequencies --   1216.6723              1230.3961              1237.5249
 Red. masses --      1.1409                 1.8182                 1.2960
 Frc consts  --      0.9950                 1.6217                 1.1694
 IR Inten    --      1.1334                22.3525                27.1314

                     58                     59                     60
                      A                      A                      A
 Frequencies --   1248.4093              1269.3886              1293.4058
 Red. masses --      1.4444                 1.3563                 1.3056
 Frc consts  --      1.3263                 1.2877                 1.2869
 IR Inten    --      7.4324                 1.1411                 7.5438

                     61                     62                     63
                      A                      A                      A
 Frequencies --   1318.5707              1346.0676              1360.3972
 Red. masses --      1.3875                 1.6929                 1.9026
 Frc consts  --      1.4213                 1.8072                 2.0746
 IR Inten    --      1.6021                 1.8629                 4.7817

                     64                     65                     66
                      A                      A                      A
 Frequencies --   1368.5704              1371.1370              1396.6725
 Red. masses --      1.8045                 1.4454                 1.4131
 Frc consts  --      1.9913                 1.6011                 1.6241
 IR Inten    --      0.0832                10.3043                10.9462

                     67                     68                     69
                      A                      A                      A
 Frequencies --   1399.8703              1408.6166              1419.1380
 Red. masses --      1.4443                 1.5514                 1.7364
 Frc consts  --      1.6675                 1.8137                 2.0604
 IR Inten    --      8.5397                21.1350                14.3422

                     70                     71                     72
                      A                      A                      A
 Frequencies --   1427.8040              1453.3921              1467.4074
 Red. masses --      1.4203                 1.2349                 1.2315
 Frc consts  --      1.7059                 1.5369                 1.5623
 IR Inten    --      1.2840                53.7943               131.4486

                     73                     74                     75
                      A                      A                      A
 Frequencies --   1503.0770              1515.9147              1525.6304
 Red. masses --      2.0882                 1.1074                 1.0852
 Frc consts  --      2.7796                 1.4994                 1.4882
 IR Inten    --      6.1311                 6.7459                11.1247

                     76                     77                     78
                      A                      A                      A
 Frequencies --   1529.0041              1530.8151              1549.1181
 Red. masses --      1.0864                 1.1083                 2.1999
 Frc consts  --      1.4964                 1.5302                 3.1105
 IR Inten    --     15.3719                 1.8294                 9.4957

                     79                     80                     81
                      A                      A                      A
 Frequencies --   1646.4831              1668.4741              1803.0842
 Red. masses --      5.4637                 5.5990                 9.0412
 Frc consts  --      8.7267                 9.1833                17.3184
 IR Inten    --      1.1687                 3.5995               295.8549

                     82                     83                     84
                      A                      A                      A
 Frequencies --   3019.6641              3026.4065              3047.7340
 Red. masses --      1.0805                 1.0669                 1.0652
 Frc consts  --      5.8050                 5.7572                 5.8296
 IR Inten    --      7.0372                42.3789                18.9463

                     85                     86                     87
                      A                      A                      A
 Frequencies --   3060.3069              3069.9702              3081.5506
 Red. masses --      1.0788                 1.0698                 1.0631
 Frc consts  --      5.9528                 5.9403                 5.9478
 IR Inten    --     31.1445                48.6222                20.5599

                     88                     89                     90
                      A                      A                      A
 Frequencies --   3093.9333              3105.6016              3120.2112
 Red. masses --      1.0990                 1.0976                 1.0990
 Frc consts  --      6.1983                 6.2369                 6.3037
 IR Inten    --     11.5590                52.0259                32.0947

                     91                     92                     93
                      A                      A                      A
 Frequencies --   3122.3268              3175.4218              3179.9344
 Red. masses --      1.1008                 1.0864                 1.0869
 Frc consts  --      6.3231                 6.4542                 6.4758
 IR Inten    --     16.8707                 8.5143                 5.8052

                     94                     95                     96
                      A                      A                      A
 Frequencies --   3190.6483              3199.5464              3211.5182
 Red. masses --      1.0898                 1.0938                 1.0979
 Frc consts  --      6.5367                 6.5973                 6.6718
 IR Inten    --      8.6808                36.7884                20.4936

                     97                     98                     99
                      A                      A                      A
 Frequencies --   3644.6947              3668.8048              3681.4081
 Red. masses --      1.0652                 1.0650                 1.0640
 Frc consts  --      8.3366                 8.4459                 8.4962
 IR Inten    --    188.5509                48.3875                56.5989

 - Thermochemistry -
 -------------------
 Temperature   298.150 Kelvin.  Pressure   1.00000 Atm.
 Atom     1 has atomic number  6 and mass  12.00000

 Molecular mass:   238.12051 amu.
 Principal axes and moments of inertia in atomic units:
                           1         2         3
     Eigenvalues --  2347.043926821.997057996.18977
           X            0.99997   0.00507  -0.00641
           Y           -0.00496   0.99984   0.01702
           Z            0.00650  -0.01699   0.99983
 This molecule is an asymmetric top.
 Rotational symmetry number  1.
 Warning -- assumption of classical behavior for rotation
           may cause significant error
 Rotational temperatures (Kelvin)      0.03690     0.01270     0.01083
 Rotational constants (GHZ):           0.76894     0.26455     0.22570
 Zero-point vibrational energy     785531.2 (Joules/Mol)
                                  187.74646 (Kcal/Mol)
 Warning -- explicit consideration of  24 degrees of freedom as
           vibrations may cause significant error
 Vibrational temperatures:     32.12    59.99    66.35    74.80   106.62
          (Kelvin)            161.05   236.61   265.99   281.88   301.40
                              346.69   366.51   470.48   499.74   524.35
                              560.92   593.85   603.30   634.72   720.96
                              737.13   817.80   825.24   892.60   917.83
                              918.74   955.22   983.05  1030.59  1063.38
                             1098.33  1115.42  1139.67  1204.66  1240.35
                             1272.46  1322.73  1348.57  1393.02  1399.29
                             1412.89  1433.04  1451.09  1470.60  1487.43
                             1528.01  1564.97  1590.19  1604.97  1620.00
                             1638.75  1706.78  1718.23  1726.89  1750.52
                             1770.27  1780.52  1796.18  1826.37  1860.92
                             1897.13  1936.69  1957.31  1969.07  1972.76
                             2009.50  2014.10  2026.69  2041.82  2054.29
                             2091.11  2111.27  2162.59  2181.06  2195.04
                             2199.90  2202.50  2228.84  2368.92  2400.56
                             2594.24  4344.62  4354.32  4385.01  4403.10
                             4417.00  4433.66  4451.48  4468.27  4489.29
                             4492.33  4568.72  4575.22  4590.63  4603.43
                             4620.66  5243.90  5278.59  5296.73

 Zero-point correction=                           0.299193 (Hartree/Particle)
 Thermal correction to Energy=                    0.315397
 Thermal correction to Enthalpy=                  0.316342
 Thermal correction to Gibbs Free Energy=         0.253823
 Sum of electronic and zero-point Energies=           -806.889327
 Sum of electronic and thermal Energies=              -806.873122
 Sum of electronic and thermal Enthalpies=            -806.872178
 Sum of electronic and thermal Free Energies=         -806.934697

                     E (Thermal)             CV                S
                      KCal/Mol        Cal/Mol-Kelvin    Cal/Mol-Kelvin
 Total                  197.915             62.585            131.581
 Electronic               0.000              0.000              0.000
 Translational            0.889              2.981             42.304
 Rotational               0.889              2.981             33.215
 Vibrational            196.137             56.623             56.062
 Vibration     1          0.593              1.985              6.416
 Vibration     2          0.594              1.981              5.177
 Vibration     3          0.595              1.979              4.977
 Vibration     4          0.596              1.977              4.740
 Vibration     5          0.599              1.966              4.041
 Vibration     6          0.607              1.940              3.235
 Vibration     7          0.623              1.886              2.498
 Vibration     8          0.631              1.860              2.279
 Vibration     9          0.636              1.846              2.171
 Vibration    10          0.642              1.826              2.048
 Vibration    11          0.658              1.778              1.796
 Vibration    12          0.665              1.755              1.698
 Vibration    13          0.711              1.622              1.275
 Vibration    14          0.725              1.581              1.178
 Vibration    15          0.738              1.545              1.103
 Vibration    16          0.758              1.492              1.001
 Vibration    17          0.777              1.443              0.917
 Vibration    18          0.782              1.428              0.894
 Vibration    19          0.801              1.380              0.823
 Vibration    20          0.856              1.248              0.655
 Vibration    21          0.867              1.223              0.628
 Vibration    22          0.924              1.100              0.507
 Vibration    23          0.930              1.088              0.497
 Vibration    24          0.980              0.989              0.416

 Optimization completed.
    -- Stationary point found.
 Normal termination of Gaussian 16 at Thu Dec 17 20:21:26 2020.

 ----------------------------------------------------------------------
 # B3LYP/6-311++G(d,p) empiricaldispersion=gd3bj scf=xqc pop=npa geom=c
 heck
 ----------------------------------------------------------------------

 --------------------------------------
 CID_90282660_JID_7685_Energie_neutraal
 --------------------------------------
 Structure from the checkpoint file:  "JID_7685.chk"
 Charge =  0 Multiplicity = 1

 SCF Done:  E(RB3LYP) =  -807.442449166     A.U. after   15 cycles
 Normal termination of Gaussian 16 at Thu Dec 17 20:26:56 2020.

 ----------------------------------------------------------------------
 # B3LYP/6-311++G(d,p) empiricaldispersion=gd3bj scf=xqc pop=npa geom=c
 heck
 ----------------------------------------------------------------------

 ------------------------------------
 CID_90282660_JID_7685_Energie_kation
 ------------------------------------
 Structure from the checkpoint file:  "JID_7685.chk"
 Charge =  1 Multiplicity = 2

 SCF Done:  E(UB3LYP) =  -807.124543536     A.U. after   33 cycles
 SCF Done:  E(UB3LYP) =  -807.124543536     a.u. after    1 cycles
 Normal termination of Gaussian 16 at Thu Dec 17 20:42:43 2020.
 Gaussian 16:  ES64L-G16RevA.03 25-Dec-2016

 ----------------------------------------------------------------------
 # B3LYP/6-311++G(d,p) empiricaldispersion=gd3bj scf=xqc pop=npa geom=c
 heck
 ----------------------------------------------------------------------

 -----------------------------------
 CID_90282660_JID_7685_Energie_anion
 -----------------------------------
 Structure from the checkpoint file:  "JID_7685.chk"
 Charge = -1 Multiplicity = 2

                         Standard orientation:
 ---------------------------------------------------------------------
 Center     Atomic      Atomic             Coordinates (Angstroms)
 Number     Number       Type             X           Y           Z
 ---------------------------------------------------------------------
      1          6           0        4.486864   -0.244351   -1.020808
      2          6           0        3.636389   -1.347683   -1.077922
      3          6           0        2.539051   -1.430590   -0.218836
      4          6           0        2.272970   -0.417063    0.708704
      5          6           0        3.138052    0.685131    0.757985
      6          6           0        4.234667    0.772773   -0.097355
      7          6           0        1.064439   -0.487005    1.615472
      8          6           0        0.025472    0.612361    1.319639
      9          6           0       -0.473450    0.596495   -0.142186
     10          6           0       -1.138614   -0.718172   -0.584965
     11          6           0       -2.166930   -1.365302    0.361851
     12          6           0       -3.398667   -0.504205    0.658505
     13          8           0       -4.147584   -0.289314   -0.529330
     14          8           0       -2.604642   -2.590832   -0.215613
     15          6           0       -1.324339    1.810297   -0.462768
     16          8           0       -2.376298    1.822922   -1.079594
     17          8           0       -0.763532    2.961953   -0.034896
     18          1           0        5.341671   -0.177073   -1.687683
     19          1           0        3.825253   -2.146473   -1.789698
     20          1           0        1.883075   -2.296478   -0.263870
     21          1           0        2.951053    1.480185    1.476166
     22          1           0        4.895285    1.633661   -0.041808
     23          1           0        0.601876   -1.475952    1.530744
     24          1           0        1.376687   -0.380225    2.662270
     25          1           0       -0.820523    0.503635    2.008491
     26          1           0        0.470483    1.589963    1.524511
     27          1           0        0.420805    0.735483   -0.768880
     28          1           0       -1.620018   -0.561553   -1.555911
     29          1           0       -0.355351   -1.462653   -0.752548
     30          1           0       -1.685214   -1.629964    1.310892
     31          1           0       -4.048241   -1.056652    1.344816
     32          1           0       -3.125452    0.444891    1.141750
     33          1           0       -3.687689    0.429856   -1.003239
     34          1           0       -3.300154   -2.322420   -0.844190
     35          1           0       -1.362533    3.677813   -0.320245
 ---------------------------------------------------------------------

 SCF Done:  E(UB3LYP) =  -807.435212487     A.U. after   33 cycles
 SCF Done:  E(UB3LYP) =  -807.435212487     a.u. after    1 cycles

 The electronic state is 2-A.
 Alpha  occ. eigenvalues --  -19.07359 -19.02922 -19.02815 -19.02734 -10.21412
 Alpha  occ. eigenvalues --  -10.12989 -10.12314 -10.10024 -10.08565 -10.08245
 Alpha  occ. eigenvalues --  -10.08139 -10.08049 -10.08032 -10.08026 -10.07871
 Alpha  occ. eigenvalues --  -10.07868 -10.07578  -1.01953  -0.94705  -0.92922
 Alpha  occ. eigenvalues --   -0.91798  -0.76769  -0.73417  -0.68486  -0.65372
 Alpha  occ. eigenvalues --   -0.65006  -0.61966  -0.59178  -0.53855  -0.52101
 Alpha  occ. eigenvalues --   -0.51387  -0.48963  -0.46796  -0.43722  -0.42337
 Alpha  occ. eigenvalues --   -0.41699  -0.40768  -0.39982  -0.38403  -0.37141
 Alpha  occ. eigenvalues --   -0.36370  -0.35722  -0.35089  -0.34172  -0.33031
 Alpha  occ. eigenvalues --   -0.32218  -0.31629  -0.31164  -0.29792  -0.29126
 Alpha  occ. eigenvalues --   -0.27866  -0.27077  -0.26292  -0.25469  -0.24957
 Alpha  occ. eigenvalues --   -0.24340  -0.23917  -0.23720  -0.23070  -0.20116
 Alpha  occ. eigenvalues --   -0.19482  -0.17727  -0.16353  -0.15507   0.04067
 Alpha virt. eigenvalues --    0.06160   0.06550   0.07343   0.07486   0.07721
 Alpha virt. eigenvalues --    0.08238   0.08454   0.08730   0.09734   0.09765
 Alpha virt. eigenvalues --    0.10748   0.11103   0.11350   0.12146   0.12619

  Beta  occ. eigenvalues --  -19.07287 -19.02921 -19.02813 -19.02681 -10.21344
  Beta  occ. eigenvalues --  -10.12985 -10.12298 -10.10017 -10.08521 -10.08227
  Beta  occ. eigenvalues --  -10.08141 -10.08028 -10.08026 -10.07999 -10.07865
  Beta  occ. eigenvalues --  -10.07812 -10.07532  -1.01822  -0.94697  -0.92818
  Beta  occ. eigenvalues --   -0.91784  -0.76693  -0.73364  -0.68413  -0.65309
  Beta  occ. eigenvalues --   -0.64949  -0.61893  -0.59108  -0.53732  -0.52031
  Beta  occ. eigenvalues --   -0.51346  -0.48879  -0.46724  -0.43692  -0.42266
  Beta  occ. eigenvalues --   -0.41633  -0.40699  -0.39941  -0.38336  -0.37047
  Beta  occ. eigenvalues --   -0.36320  -0.35662  -0.34978  -0.34117  -0.32996
  Beta  occ. eigenvalues --   -0.32142  -0.31586  -0.31128  -0.29720  -0.29084
  Beta  occ. eigenvalues --   -0.27808  -0.27027  -0.26184  -0.25440  -0.24930
  Beta  occ. eigenvalues --   -0.24306  -0.23857  -0.23593  -0.22978  -0.20093
  Beta  occ. eigenvalues --   -0.19413  -0.17715  -0.16218  -0.15230
  Beta virt. eigenvalues --    0.06236   0.06931   0.07578   0.07602   0.07735
  Beta virt. eigenvalues --    0.08135   0.08619   0.08755   0.09031   0.09987
  Beta virt. eigenvalues --    0.10182   0.10985   0.11348   0.11400   0.12372

 Mulliken charges and spin densities:
               1          2
     1  C    0.630711  -0.981408
     2  C   -0.339317  -0.031648
     3  C   -0.750957   0.625860
     4  C   -0.130401   1.026860
     5  C   -0.327397   0.147342
     6  C    0.097063  -0.391172
     7  C    0.907432  -1.587276
     8  C    0.885114  -1.172389
     9  C    0.307102   0.188520
    10  C   -0.177411  -0.516698
    11  C   -0.907267   0.561094
    12  C    0.127286  -0.603273
    13  O   -0.271924   0.007748
    14  O   -0.176163  -0.001003
    15  C    0.032999  -0.251182
    16  O   -0.316024   0.007601
    17  O   -0.141866   0.033640
    18  H   -0.047658   0.183452
    19  H   -0.033488   0.197980
    20  H    0.021397   0.122431
    21  H   -0.312992   0.479554
    22  H   -0.364795   0.543478
    23  H    0.095958   0.045842
    24  H   -0.376210   0.594291
    25  H   -0.116303   0.263600
    26  H    0.160540   0.031661
    27  H    0.101351   0.139044
    28  H    0.190791   0.034941
    29  H    0.210653  -0.065281
    30  H    0.023336   0.156667
    31  H    0.071482   0.118612
    32  H   -0.050174   0.242873
    33  H    0.250674   0.021486
    34  H    0.266500  -0.009986
    35  H   -0.540039   0.836740
 Sum of Mulliken charges =  -1.00000   1.00000

 Dipole moment (field-independent basis, Debye):
    X=             -0.5787    Y=             -4.9097    Z=             -1.9587  Tot=              5.3176
 Quadrupole moment (field-independent basis, Debye-Ang):
   XX=           -175.6314   YY=           -157.9032   ZZ=           -134.6324
   XY=              0.2524   XZ=             -3.9230   YZ=              0.3771

 Summary of Natural Population Analysis:

                                       Natural Population
                Natural  -----------------------------------------------
    Atom  No    Charge         Core      Valence    Rydberg      Total
 -----------------------------------------------------------------------
      C    1   -0.09830      0.99956     2.08929    0.00945     3.09830
      C    2   -0.10012      0.99956     2.09094    0.00962     3.10012
      C    3   -0.10394      0.99950     2.09626    0.00818     3.10394
      C    4   -0.01152      0.99951     2.00098    0.01104     3.01152
      C    5   -0.09388      0.99950     2.08444    0.00994     3.09388
      C    6   -0.10024      0.99956     2.09038    0.01030     3.10024
      C    7   -0.19844      0.99960     2.18922    0.00962     3.19844
      C    8   -0.18346      0.99961     2.17428    0.00958     3.18346
      C    9   -0.16458      0.99953     2.15375    0.01130     3.16458
      C   10   -0.20580      0.99959     2.19603    0.01018     3.20580
      C   11    0.04802      0.99956     1.93811    0.01430     2.95198
      C   12   -0.02681      0.99958     2.01342    0.01381     3.02681
      O   13   -0.38898      0.99990     3.38229    0.00679     4.38898
      O   14   -0.37522      0.99990     3.36895    0.00637     4.37522
      C   15    0.43090      0.99967     1.54427    0.02516     2.56910
      O   16   -0.33177      0.99985     3.32528    0.00663     4.33177
      O   17   -0.33753      0.99987     3.33079    0.00687     4.33753
      H   18    0.09836      0.00000     0.40080    0.00085     0.40164
      H   19    0.09800      0.00000     0.40120    0.00080     0.40200
      H   20    0.09832      0.00000     0.40032    0.00136     0.40168
      H   21    0.10299      0.00000     0.39558    0.00143     0.39701
      H   22    0.10075      0.00000     0.39826    0.00100     0.39925
      H   23    0.09683      0.00000     0.40135    0.00183     0.40317
      H   24    0.10902      0.00000     0.38952    0.00146     0.39098
      H   25    0.10015      0.00000     0.39814    0.00171     0.39985
      H   26    0.11120      0.00000     0.38659    0.00221     0.38880
      H   27    0.12406      0.00000     0.37401    0.00194     0.37594
      H   28    0.10590      0.00000     0.39281    0.00129     0.39410
      H   29    0.10744      0.00000     0.39128    0.00128     0.39256
      H   30    0.08849      0.00000     0.40997    0.00155     0.41151
      H   31    0.08753      0.00000     0.41144    0.00103     0.41247
      H   32    0.08643      0.00000     0.41242    0.00115     0.41357
      H   33    0.24782      0.00000     0.24923    0.00295     0.25218
      H   34    0.23244      0.00000     0.26471    0.00286     0.26756
      H   35    0.24596      0.00000     0.23505    0.01899     0.25404
 =======================================================================
   * Total *   -0.00000     16.99385    46.78134    0.22480    64.00000

 Normal termination of Gaussian 16 at Thu Dec 17 20:58:48 2020.
