 Gaussian 16, Revision A.03,

 -----------------------------------------------------------
 # opt freq B3LYP/6-31G(d) empiricaldispersion=gd3bj scf=xqc
 -----------------------------------------------------------

 --------------------------------
 CID_139296965_JID_10758_neutraal
 --------------------------------
 Symbolic Z-matrix:
 Charge =  0 Multiplicity = 1

 SCF Done:  E(RB3LYP) =  -1133.16946783     A.U. after   15 cycles
 SCF Done:  E(RB3LYP) =  -1133.17463521     A.U. after   12 cycles
 SCF Done:  E(RB3LYP) =  -1133.17583863     A.U. after   12 cycles
 SCF Done:  E(RB3LYP) =  -1133.17610267     A.U. after   12 cycles
 SCF Done:  E(RB3LYP) =  -1133.17614480     A.U. after   10 cycles
 SCF Done:  E(RB3LYP) =  -1133.17615065     A.U. after    9 cycles
 SCF Done:  E(RB3LYP) =  -1133.17615116     A.U. after    8 cycles
 SCF Done:  E(RB3LYP) =  -1133.17615121     A.U. after    6 cycles
 Optimization completed.
    -- Stationary point found.
 Normal termination of Gaussian 16 at Sat Dec 12 16:24:18 2020.

 --------------------------------------------------------------------
 #N Geom=AllCheck Guess=TCheck SCRF=Check GenChk RB3LYP/6-31G(d) Freq
 --------------------------------------------------------------------

 Structure from the checkpoint file:  "JID_10758.chk"
 --------------------------------
 CID_139296965_JID_10758_neutraal
 --------------------------------
 Charge =  0 Multiplicity = 1

 SCF Done:  E(RB3LYP) =  -1133.17615121     A.U. after    1 cycles

  Exact polarizability: 354.418 -10.894 212.400   4.830   3.732 111.350
 Approx polarizability: 466.030 -29.575 386.174   8.312  13.349 180.671

                      1                      2                      3
                      A                      A                      A
 Frequencies --     35.2593                42.5888                57.5200
 Red. masses --      4.3333                 3.9800                 4.5389
 Frc consts  --      0.0032                 0.0043                 0.0088
 IR Inten    --      0.4513                 0.0665                 0.2206

                      4                      5                      6
                      A                      A                      A
 Frequencies --     94.0052               130.4412               150.3564
 Red. masses --      3.0188                 3.1076                 1.3564
 Frc consts  --      0.0157                 0.0312                 0.0181
 IR Inten    --      0.1326                 0.1074                 0.1058

                      7                      8                      9
                      A                      A                      A
 Frequencies --    155.8408               191.5521               202.8519
 Red. masses --      2.1235                 3.6626                 3.8785
 Frc consts  --      0.0304                 0.0792                 0.0940
 IR Inten    --      0.0933                 0.2939                 0.0978

                     10                     11                     12
                      A                      A                      A
 Frequencies --    223.7970               248.9992               275.1832
 Red. masses --      4.8917                 4.2862                 3.3021
 Frc consts  --      0.1444                 0.1566                 0.1473
 IR Inten    --      0.6768                 2.1225                 1.0044

                     13                     14                     15
                      A                      A                      A
 Frequencies --    299.9490               317.0732               354.7675
 Red. masses --      3.5971                 1.9542                 3.8240
 Frc consts  --      0.1907                 0.1158                 0.2836
 IR Inten    --      0.2466                 0.2188                 0.4473

                     16                     17                     18
                      A                      A                      A
 Frequencies --    393.9382               428.6788               444.5879
 Red. masses --      4.4783                 3.1957                 3.0886
 Frc consts  --      0.4095                 0.3460                 0.3597
 IR Inten    --      0.5604                 3.5914                 0.7741

                     19                     20                     21
                      A                      A                      A
 Frequencies --    454.8530               462.0645               470.7108
 Red. masses --      3.3409                 4.2538                 3.3137
 Frc consts  --      0.4072                 0.5351                 0.4326
 IR Inten    --      0.3646                 1.6392                 0.4440

                     22                     23                     24
                      A                      A                      A
 Frequencies --    522.3021               534.1937               556.0844
 Red. masses --      5.9675                 5.5496                 4.6399
 Frc consts  --      0.9592                 0.9331                 0.8454
 IR Inten    --      0.5050                 0.3614                 4.2128

                     25                     26                     27
                      A                      A                      A
 Frequencies --    573.6134               583.8351               621.4782
 Red. masses --      5.3359                 3.1524                 3.2408
 Frc consts  --      1.0344                 0.6331                 0.7375
 IR Inten    --      2.9885                 3.3911                 1.0542

                     28                     29                     30
                      A                      A                      A
 Frequencies --    644.3483               666.5649               726.1320
 Red. masses --      3.2134                 3.9253                 3.2966
 Frc consts  --      0.7861                 1.0276                 1.0241
 IR Inten    --      0.9978                 0.5170                 1.0016

                     31                     32                     33
                      A                      A                      A
 Frequencies --    742.9903               750.2848               754.4121
 Red. masses --      5.4493                 4.1167                 3.4671
 Frc consts  --      1.7724                 1.3654                 1.1626
 IR Inten    --      6.2333                 1.4945                 2.4981

                     34                     35                     36
                      A                      A                      A
 Frequencies --    779.7805               799.6949               829.0142
 Red. masses --      1.3781                 4.9886                 1.4460
 Frc consts  --      0.4937                 1.8796                 0.5855
 IR Inten    --     15.9302                 9.3317                31.8987

                     37                     38                     39
                      A                      A                      A
 Frequencies --    840.8329               841.8594               854.9687
 Red. masses --      2.6950                 1.8725                 1.4877
 Frc consts  --      1.1226                 0.7819                 0.6407
 IR Inten    --     18.3030                18.6932                 2.5783

                     40                     41                     42
                      A                      A                      A
 Frequencies --    878.9472               891.6559               905.3516
 Red. masses --      2.7430                 1.4439                 3.0675
 Frc consts  --      1.2485                 0.6764                 1.4814
 IR Inten    --      1.4017                 5.7273                 5.9252

                     43                     44                     45
                      A                      A                      A
 Frequencies --    909.3811               940.2157               958.4402
 Red. masses --      1.4099                 1.4399                 1.3179
 Frc consts  --      0.6870                 0.7500                 0.7133
 IR Inten    --      1.0582                 3.1937                 0.8069

                     46                     47                     48
                      A                      A                      A
 Frequencies --    961.9850               965.5190              1007.4350
 Red. masses --      2.0837                 1.5124                 2.2265
 Frc consts  --      1.1361                 0.8307                 1.3314
 IR Inten    --      0.6460                 0.7783                 1.4418

                     49                     50                     51
                      A                      A                      A
 Frequencies --   1018.3696              1059.9932              1076.3089
 Red. masses --      1.7881                 2.6855                 2.6704
 Frc consts  --      1.0926                 1.7778                 1.8226
 IR Inten    --      4.9894                 0.0055                 0.6122

                     52                     53                     54
                      A                      A                      A
 Frequencies --   1078.8918              1094.1529              1115.1652
 Red. masses --      1.4852                 1.9265                 1.8677
 Frc consts  --      1.0186                 1.3589                 1.3685
 IR Inten    --      1.5573                 1.2196                 1.1189

                     55                     56                     57
                      A                      A                      A
 Frequencies --   1119.7247              1160.4403              1168.8206
 Red. masses --      2.5945                 1.9392                 1.1719
 Frc consts  --      1.9165                 1.5386                 0.9432
 IR Inten    --     13.7320                 1.4677                 2.4203

                     58                     59                     60
                      A                      A                      A
 Frequencies --   1183.1891              1199.4003              1206.4552
 Red. masses --      1.3904                 1.4321                 1.6499
 Frc consts  --      1.1468                 1.2138                 1.4149
 IR Inten    --      0.8284                 0.0942                 1.2734

                     61                     62                     63
                      A                      A                      A
 Frequencies --   1218.8859              1238.4939              1279.0161
 Red. masses --      1.4344                 2.1887                 1.4215
 Frc consts  --      1.2556                 1.9779                 1.3701
 IR Inten    --      2.8878                 1.5222                 0.7785

                     64                     65                     66
                      A                      A                      A
 Frequencies --   1289.5489              1293.2464              1316.9111
 Red. masses --      1.2716                 1.5146                 2.9172
 Frc consts  --      1.2459                 1.4925                 2.9808
 IR Inten    --     13.8957                 1.0306                 0.3887

                     67                     68                     69
                      A                      A                      A
 Frequencies --   1325.5259              1350.4441              1356.8334
 Red. masses --      1.2846                 3.1034                 6.4383
 Frc consts  --      1.3298                 3.3346                 6.9835
 IR Inten    --      2.8976                10.4462                 1.8112

                     70                     71                     72
                      A                      A                      A
 Frequencies --   1378.4658              1388.7906              1391.3635
 Red. masses --      1.6238                 1.4975                 2.5267
 Frc consts  --      1.8179                 1.7017                 2.8819
 IR Inten    --      0.1549                 1.1634                15.2392

                     73                     74                     75
                      A                      A                      A
 Frequencies --   1394.4886              1407.3856              1442.2402
 Red. masses --      1.6185                 1.5947                 3.5643
 Frc consts  --      1.8543                 1.8610                 4.3682
 IR Inten    --      2.6578                18.8506                11.2821

                     76                     77                     78
                      A                      A                      A
 Frequencies --   1444.2199              1469.0200              1502.7818
 Red. masses --      1.2832                 3.6834                 1.2375
 Frc consts  --      1.5769                 4.6833                 1.6466
 IR Inten    --      0.5336                 1.1532                 2.9076

                     79                     80                     81
                      A                      A                      A
 Frequencies --   1507.2355              1510.2944              1510.3913
 Red. masses --      2.2380                 1.0435                 1.0861
 Frc consts  --      2.9956                 1.4024                 1.4598
 IR Inten    --     14.2421                 6.8530                 4.0785

                     82                     83                     84
                      A                      A                      A
 Frequencies --   1521.0059              1521.1275              1531.6646
 Red. masses --      1.1420                 1.1445                 1.1037
 Frc consts  --      1.5566                 1.5603                 1.5255
 IR Inten    --     16.7271                13.2809                 1.2969

                     85                     86                     87
                      A                      A                      A
 Frequencies --   1558.3968              1585.8565              1619.3979
 Red. masses --      2.8022                 4.6421                 5.7050
 Frc consts  --      4.0096                 6.8784                 8.8149
 IR Inten    --     24.0581                 4.6397                 3.4586

                     88                     89                     90
                      A                      A                      A
 Frequencies --   1627.2775              1658.6927              1671.7318
 Red. masses --      6.7612                 6.0664                 6.1179
 Frc consts  --     10.5487                 9.8335                10.0736
 IR Inten    --      2.4542                10.7726                 8.5525

                     91                     92                     93
                      A                      A                      A
 Frequencies --   3012.4277              3014.5890              3031.8966
 Red. masses --      1.0697                 1.0698                 1.0676
 Frc consts  --      5.7193                 5.7279                 5.7823
 IR Inten    --     33.1777                13.1253                22.4203

                     94                     95                     96
                      A                      A                      A
 Frequencies --   3037.7434              3040.2857              3065.6327
 Red. masses --      1.0615                 1.0379                 1.0916
 Frc consts  --      5.7711                 5.6524                 6.0445
 IR Inten    --     30.1276                35.0810                45.7823

                     97                     98                     99
                      A                      A                      A
 Frequencies --   3068.5664              3084.0084              3086.6733
 Red. masses --      1.0923                 1.0958                 1.1051
 Frc consts  --      6.0597                 6.1408                 6.2036
 IR Inten    --     28.9185                83.9726                52.7008

                    100                    101                    102
                      A                      A                      A
 Frequencies --   3089.4908              3131.5810              3170.9700
 Red. masses --      1.1009                 1.1000                 1.0879
 Frc consts  --      6.1914                 6.3556                 6.4453
 IR Inten    --     19.8438                19.9983                28.3789

                    103                    104                    105
                      A                      A                      A
 Frequencies --   3176.9026              3189.9121              3200.8404
 Red. masses --      1.0893                 1.0871                 1.0931
 Frc consts  --      6.4773                 6.5177                 6.5985
 IR Inten    --      7.8076                13.1291                 7.1729

                    106                    107                    108
                      A                      A                      A
 Frequencies --   3205.7419              3210.5388              3255.4186
 Red. masses --      1.0902                 1.0934                 1.0938
 Frc consts  --      6.6013                 6.6402                 6.8297
 IR Inten    --      8.3280                17.2354                 1.5648

 - Thermochemistry -
 -------------------
 Temperature   298.150 Kelvin.  Pressure   1.00000 Atm.
 Atom     1 has atomic number  6 and mass  12.00000

 Molecular mass:   278.11292 amu.
 Principal axes and moments of inertia in atomic units:
                           1         2         3
     Eigenvalues --  1917.32392********************
           X            0.99992   0.01279   0.00206
           Y           -0.01276   0.99987  -0.01011
           Z           -0.00218   0.01008   0.99995
 This molecule is an asymmetric top.
 Rotational symmetry number  1.
 Warning -- assumption of classical behavior for rotation
           may cause significant error
 Rotational temperatures (Kelvin)      0.04517     0.00605     0.00549
 Rotational constants (GHZ):           0.94128     0.12609     0.11440
 Zero-point vibrational energy     833445.5 (Joules/Mol)
                                  199.19825 (Kcal/Mol)
 Warning -- explicit consideration of  26 degrees of freedom as
           vibrations may cause significant error
 Vibrational temperatures:     50.73    61.28    82.76   135.25   187.68
          (Kelvin)            216.33   224.22   275.60   291.86   321.99
                              358.25   395.93   431.56   456.20   510.43
                              566.79   616.77   639.66   654.43   664.81
                              677.25   751.48   768.59   800.08   825.30
                              840.01   894.17   927.07   959.04  1044.74
                             1069.00  1079.49  1085.43  1121.93  1150.58
                             1192.77  1209.77  1211.25  1230.11  1264.61
                             1282.89  1302.60  1308.40  1352.76  1378.98
                             1384.08  1389.17  1449.47  1465.21  1525.09
                             1548.57  1552.28  1574.24  1604.47  1611.03
                             1669.61  1681.67  1702.35  1725.67  1735.82
                             1753.70  1781.92  1840.22  1855.37  1860.69
                             1894.74  1907.14  1942.99  1952.18  1983.30
                             1998.16  2001.86  2006.36  2024.91  2075.06
                             2077.91  2113.59  2162.17  2168.58  2172.98
                             2173.12  2188.39  2188.56  2203.72  2242.19
                             2281.69  2329.95  2341.29  2386.49  2405.25
                             4334.21  4337.32  4362.22  4370.64  4374.29
                             4410.76  4414.98  4437.20  4441.03  4445.09
                             4505.65  4562.32  4570.85  4589.57  4605.30
                             4612.35  4619.25  4683.82

 Zero-point correction=                           0.317443 (Hartree/Particle)
 Thermal correction to Energy=                    0.333996
 Thermal correction to Enthalpy=                  0.334940
 Thermal correction to Gibbs Free Energy=         0.272770
 Sum of electronic and zero-point Energies=          -1132.858709
 Sum of electronic and thermal Energies=             -1132.842156
 Sum of electronic and thermal Enthalpies=           -1132.841211
 Sum of electronic and thermal Free Energies=        -1132.903382

                     E (Thermal)             CV                S
                      KCal/Mol        Cal/Mol-Kelvin    Cal/Mol-Kelvin
 Total                  209.585             67.074            130.848
 Electronic               0.000              0.000              0.000
 Translational            0.889              2.981             42.767
 Rotational               0.889              2.981             34.425
 Vibrational            207.808             61.112             53.656
 Vibration     1          0.594              1.982              5.509
 Vibration     2          0.595              1.980              5.135
 Vibration     3          0.596              1.974              4.541
 Vibration     4          0.603              1.953              3.575
 Vibration     5          0.612              1.923              2.940
 Vibration     6          0.618              1.902              2.668
 Vibration     7          0.620              1.896              2.600
 Vibration     8          0.634              1.852              2.213
 Vibration     9          0.639              1.836              2.107
 Vibration    10          0.649              1.805              1.928
 Vibration    11          0.662              1.764              1.738
 Vibration    12          0.677              1.719              1.563
 Vibration    13          0.692              1.674              1.417
 Vibration    14          0.704              1.641              1.325
 Vibration    15          0.731              1.565              1.145
 Vibration    16          0.761              1.483              0.985
 Vibration    17          0.790              1.408              0.863
 Vibration    18          0.804              1.373              0.812
 Vibration    19          0.813              1.350              0.781
 Vibration    20          0.820              1.334              0.760
 Vibration    21          0.828              1.315              0.736
 Vibration    22          0.877              1.201              0.605
 Vibration    23          0.889              1.174              0.578
 Vibration    24          0.912              1.126              0.532
 Vibration    25          0.930              1.088              0.497
 Vibration    26          0.941              1.066              0.478

                           ! Non-Optimized Parameters !
 Normal termination of Gaussian 16 at Sat Dec 12 16:41:21 2020.

 ----------------------------------------------------------------------
 # B3LYP/6-311++G(d,p) empiricaldispersion=gd3bj scf=xqc pop=npa geom=c
 heck
 ----------------------------------------------------------------------

 ----------------------------------------
 CID_139296965_JID_10758_Energie_neutraal
 ----------------------------------------
 Structure from the checkpoint file:  "JID_10758.chk"
 Charge =  0 Multiplicity = 1

 SCF Done:  E(RB3LYP) =  -1133.37957876     A.U. after   16 cycles
 Normal termination of Gaussian 16 at Sat Dec 12 16:48:56 2020.

 ----------------------------------------------------------------------
 # B3LYP/6-311++G(d,p) empiricaldispersion=gd3bj scf=xqc pop=npa geom=c
 heck
 ----------------------------------------------------------------------

 --------------------------------------
 CID_139296965_JID_10758_Energie_kation
 --------------------------------------
 Structure from the checkpoint file:  "JID_10758.chk"
 Charge =  1 Multiplicity = 2

 SCF Done:  E(UB3LYP) =  -1133.11566448     A.U. after   25 cycles
 Normal termination of Gaussian 16 at Sat Dec 12 17:05:30 2020.
 Gaussian 16:  ES64L-G16RevA.03 25-Dec-2016

 ----------------------------------------------------------------------
 # B3LYP/6-311++G(d,p) empiricaldispersion=gd3bj scf=xqc pop=npa geom=c
 heck
 ----------------------------------------------------------------------

 -------------------------------------
 CID_139296965_JID_10758_Energie_anion
 -------------------------------------
 Structure from the checkpoint file:  "JID_10758.chk"
 Charge = -1 Multiplicity = 2

                         Standard orientation:
 ---------------------------------------------------------------------
 Center     Atomic      Atomic             Coordinates (Angstroms)
 Number     Number       Type             X           Y           Z
 ---------------------------------------------------------------------
      1          6           0        5.837946    1.250538    0.574954
      2          6           0        4.820369    0.213617    0.198235
      3          6           0        5.107040   -1.067359   -0.157774
      4         16           0        3.696683   -2.035602   -0.543867
      5          6           0        2.645170   -0.666247   -0.212693
      6          6           0        3.396484    0.470203    0.171519
      7          6           0        2.703462    1.656601    0.465405
      8          6           0        1.321156    1.690230    0.374630
      9          6           0        0.574807    0.552315   -0.010947
     10          6           0        1.254981   -0.633696   -0.307628
     11          6           0       -0.902053    0.615320   -0.099021
     12          6           0       -1.696169   -0.473361    0.279370
     13          6           0       -3.092183   -0.443286    0.203251
     14          6           0       -3.729647    0.719356   -0.261455
     15          6           0       -5.241094    0.825633   -0.328338
     16          6           0       -5.944271   -0.534194   -0.268639
     17          6           0       -5.364497   -1.376404    0.871065
     18          6           0       -3.885108   -1.673099    0.606151
     19          6           0       -2.938825    1.811793   -0.640777
     20          6           0       -1.552884    1.769699   -0.564760
     21          1           0        5.788031    2.117421   -0.096004
     22          1           0        5.668112    1.621355    1.593699
     23          1           0        6.853064    0.846178    0.528271
     24          1           0        6.088094   -1.520380   -0.220711
     25          1           0        3.251328    2.542928    0.772968
     26          1           0        0.790450    2.601895    0.630398
     27          1           0        0.702942   -1.509322   -0.633881
     28          1           0       -1.215377   -1.366345    0.672013
     29          1           0       -5.531250    1.369487   -1.236061
     30          1           0       -5.589494    1.441799    0.514599
     31          1           0       -5.802775   -1.066885   -1.219349
     32          1           0       -7.023522   -0.390857   -0.141111
     33          1           0       -5.468739   -0.825894    1.816437
     34          1           0       -5.918456   -2.315271    0.986127
     35          1           0       -3.421671   -2.136560    1.485837
     36          1           0       -3.812450   -2.418730   -0.200060
     37          1           0       -3.426720    2.710587   -1.012220
     38          1           0       -0.966607    2.622262   -0.894381
 ---------------------------------------------------------------------

 SCF Done:  E(UB3LYP) =  -1133.37719103     A.U. after   33 cycles
 SCF Done:  E(UB3LYP) =  -1133.37719103     a.u. after    1 cycles

 The electronic state is 2-A.
 Alpha  occ. eigenvalues --  -88.74694 -10.07967 -10.07452 -10.06887 -10.06885
 Alpha  occ. eigenvalues --  -10.06826 -10.06795 -10.06589 -10.06372 -10.05985
 Alpha  occ. eigenvalues --  -10.05119 -10.05065 -10.04976 -10.04956 -10.04909
 Alpha  occ. eigenvalues --  -10.04849 -10.04806 -10.04585 -10.04375 -10.04250
 Alpha  occ. eigenvalues --   -7.83341  -5.79655  -5.79310  -5.78877  -0.76828
 Alpha  occ. eigenvalues --   -0.75119  -0.71748  -0.69598  -0.66470  -0.65814
 Alpha  occ. eigenvalues --   -0.64050  -0.61671  -0.60428  -0.59131  -0.55799
 Alpha  occ. eigenvalues --   -0.52774  -0.50471  -0.49558  -0.47382  -0.46400
 Alpha  occ. eigenvalues --   -0.43724  -0.42828  -0.38723  -0.37047  -0.36551
 Alpha  occ. eigenvalues --   -0.36130  -0.35065  -0.33257  -0.32901  -0.32503
 Alpha  occ. eigenvalues --   -0.32122  -0.31813  -0.30860  -0.29666  -0.29222
 Alpha  occ. eigenvalues --   -0.28587  -0.28184  -0.27262  -0.26970  -0.25827
 Alpha  occ. eigenvalues --   -0.24790  -0.23792  -0.23600  -0.23275  -0.23139
 Alpha  occ. eigenvalues --   -0.21396  -0.20722  -0.20556  -0.20089  -0.16218
 Alpha  occ. eigenvalues --   -0.13731  -0.12937  -0.10954  -0.09134   0.04383
 Alpha virt. eigenvalues --    0.06136   0.07013   0.07951   0.08506   0.08542
 Alpha virt. eigenvalues --    0.08869   0.09642   0.09934   0.09999   0.10225
 Alpha virt. eigenvalues --    0.10940   0.11054   0.11233   0.11374   0.11558

  Beta  occ. eigenvalues --  -88.74673 -10.08003 -10.07451 -10.06875 -10.06809
  Beta  occ. eigenvalues --  -10.06789 -10.06624 -10.06600 -10.06392 -10.06028
  Beta  occ. eigenvalues --  -10.05115 -10.04910 -10.04890 -10.04886 -10.04839
  Beta  occ. eigenvalues --  -10.04767 -10.04764 -10.04402 -10.04222 -10.04148
  Beta  occ. eigenvalues --   -7.83322  -5.79647  -5.79303  -5.78805  -0.76615
  Beta  occ. eigenvalues --   -0.74960  -0.71530  -0.69461  -0.66366  -0.65693
  Beta  occ. eigenvalues --   -0.63833  -0.61485  -0.60226  -0.58919  -0.55630
  Beta  occ. eigenvalues --   -0.52649  -0.50240  -0.49405  -0.47215  -0.46253
  Beta  occ. eigenvalues --   -0.43550  -0.42706  -0.38646  -0.36928  -0.36458
  Beta  occ. eigenvalues --   -0.36055  -0.34934  -0.33144  -0.32845  -0.32416
  Beta  occ. eigenvalues --   -0.32035  -0.31701  -0.30792  -0.29529  -0.29154
  Beta  occ. eigenvalues --   -0.28459  -0.28084  -0.27185  -0.26544  -0.25724
  Beta  occ. eigenvalues --   -0.24705  -0.23626  -0.23506  -0.23066  -0.22879
  Beta  occ. eigenvalues --   -0.21323  -0.20597  -0.20121  -0.19869  -0.15451
  Beta  occ. eigenvalues --   -0.12877  -0.12500  -0.10414  -0.08145
  Beta virt. eigenvalues --    0.06528   0.06938   0.08027   0.08186   0.08497
  Beta virt. eigenvalues --    0.08784   0.08901   0.09865   0.09913   0.10057
  Beta virt. eigenvalues --    0.10432   0.11003   0.11155   0.11339   0.11372

 Mulliken charges and spin densities:
               1          2
     1  C   -0.684942   0.014782
     2  C    0.711253  -0.063183
     3  C   -0.271641   0.215405
     4  S   -0.788054   0.019504
     5  C   -0.187779  -0.004283
     6  C    0.634125   0.074728
     7  C   -0.769822   0.109669
     8  C   -0.873998  -0.034609
     9  C    1.519829   0.082187
    10  C   -0.611510   0.126808
    11  C    1.197870  -0.071433
    12  C   -0.518206   0.004731
    13  C   -0.109031  -0.094886
    14  C    0.232673  -0.022361
    15  C   -0.357206  -0.103053
    16  C   -0.147229  -0.134083
    17  C   -0.185110  -0.146039
    18  C   -0.377794  -0.096768
    19  C   -0.412073   0.065480
    20  C   -0.490957   0.094751
    21  H    0.135148   0.001228
    22  H    0.129734   0.008547
    23  H    0.132723  -0.000151
    24  H    0.180906  -0.014333
    25  H    0.122077  -0.004642
    26  H    0.101138   0.018184
    27  H    0.133521  -0.010086
    28  H    0.111820   0.003393
    29  H    0.162094  -0.035882
    30  H   -0.031326   0.200008
    31  H    0.133702  -0.017361
    32  H   -0.295161   0.461214
    33  H    0.068541   0.061880
    34  H   -0.089924   0.247191
    35  H    0.110474   0.027622
    36  H    0.151884   0.006429
    37  H    0.111246   0.017051
    38  H    0.121003  -0.007642
 Sum of Mulliken charges =  -1.00000   1.00000

 Dipole moment (field-independent basis, Debye):
    X=              2.4230    Y=              0.5010    Z=             -0.6142  Tot=              2.5494
 Quadrupole moment (field-independent basis, Debye-Ang):
   XX=           -223.6004   YY=           -142.3832   ZZ=           -143.2782
   XY=              4.0312   XZ=              7.5882   YZ=             -0.3225

 Summary of Natural Population Analysis:

                                       Natural Population
                Natural  -----------------------------------------------
    Atom  No    Charge         Core      Valence    Rydberg      Total
 -----------------------------------------------------------------------
      C    1   -0.28804      0.99964     2.28391    0.00450     3.28804
      C    2   -0.05010      0.99945     2.04167    0.00898     3.05010
      C    3   -0.13625      0.99945     2.12367    0.01314     3.13625
      S    4    0.18184      4.99944     2.80463    0.01409     7.81816
      C    5   -0.09903      0.99943     2.08542    0.01418     3.09903
      C    6   -0.02807      0.99943     2.01713    0.01151     3.02807
      C    7   -0.08564      0.99954     2.07738    0.00872     3.08564
      C    8   -0.10734      0.99955     2.09872    0.00908     3.10734
      C    9   -0.01979      0.99957     2.00202    0.01821     3.01979
      C   10   -0.05797      0.99947     2.05178    0.00672     3.05797
      C   11    0.05223      0.99950     1.93735    0.01093     2.94777
      C   12   -0.09161      0.99954     2.07772    0.01435     3.09161
      C   13   -0.02699      0.99947     2.01821    0.00931     3.02699
      C   14    0.00578      0.99947     1.98486    0.00989     2.99422
      C   15   -0.19582      0.99961     2.18727    0.00893     3.19582
      C   16   -0.18776      0.99964     2.17925    0.00887     3.18776
      C   17   -0.18918      0.99964     2.18071    0.00883     3.18918
      C   18   -0.19389      0.99960     2.18431    0.00998     3.19389
      C   19   -0.10383      0.99953     2.09612    0.00818     3.10383
      C   20   -0.10741      0.99959     2.09343    0.01439     3.10741
      H   21    0.09876      0.00000     0.39987    0.00137     0.40124
      H   22    0.09907      0.00000     0.39958    0.00136     0.40093
      H   23    0.09783      0.00000     0.40128    0.00088     0.40217
      H   24    0.09649      0.00000     0.40236    0.00115     0.40351
      H   25    0.09401      0.00000     0.40526    0.00073     0.40599
      H   26    0.09589      0.00000     0.40261    0.00150     0.40411
      H   27    0.09551      0.00000     0.40284    0.00165     0.40449
      H   28    0.09455      0.00000     0.40382    0.00163     0.40545
      H   29    0.09791      0.00000     0.40108    0.00101     0.40209
      H   30    0.10034      0.00000     0.39826    0.00140     0.39966
      H   31    0.09141      0.00000     0.40757    0.00103     0.40859
      H   32    0.09707      0.00000     0.40173    0.00120     0.40293
      H   33    0.09415      0.00000     0.40467    0.00118     0.40585
      H   34    0.09536      0.00000     0.40378    0.00086     0.40464
      H   35    0.10016      0.00000     0.39880    0.00104     0.39984
      H   36    0.09621      0.00000     0.40257    0.00122     0.40379
      H   37    0.09123      0.00000     0.40751    0.00125     0.40877
      H   38    0.09548      0.00000     0.40282    0.00170     0.40452
 =======================================================================
   * Total *    0.00252     23.99054    49.77198    0.23496    73.99748

 Normal termination of Gaussian 16 at Sat Dec 12 17:26:10 2020.
