 Gaussian 16, Revision A.03,

 -----------------------------------------------------------
 # opt freq B3LYP/6-31G(d) empiricaldispersion=gd3bj scf=xqc
 -----------------------------------------------------------

 -------------------------------
 CID_149447660_JID_4950_neutraal
 -------------------------------
 Symbolic Z-matrix:
 Charge =  0 Multiplicity = 1

 SCF Done:  E(RB3LYP) =  -992.127270154     A.U. after   14 cycles
 SCF Done:  E(RB3LYP) =  -992.133292855     A.U. after   12 cycles
 SCF Done:  E(RB3LYP) =  -992.132588499     A.U. after   12 cycles
 SCF Done:  E(RB3LYP) =  -992.131331210     A.U. after   12 cycles
 SCF Done:  E(RB3LYP) =  -992.131824600     A.U. after   12 cycles
 SCF Done:  E(RB3LYP) =  -992.133659823     A.U. after   10 cycles
 SCF Done:  E(RB3LYP) =  -992.135102372     A.U. after   12 cycles
 SCF Done:  E(RB3LYP) =  -992.135279094     A.U. after   11 cycles
 SCF Done:  E(RB3LYP) =  -992.135541490     A.U. after   12 cycles
 SCF Done:  E(RB3LYP) =  -992.135667440     A.U. after   11 cycles
 SCF Done:  E(RB3LYP) =  -992.135857825     A.U. after    9 cycles
 SCF Done:  E(RB3LYP) =  -992.135862217     A.U. after   10 cycles
 SCF Done:  E(RB3LYP) =  -992.135864400     A.U. after    9 cycles
 SCF Done:  E(RB3LYP) =  -992.135865602     A.U. after    9 cycles
 SCF Done:  E(RB3LYP) =  -992.135865851     A.U. after    8 cycles
 SCF Done:  E(RB3LYP) =  -992.135865917     A.U. after    7 cycles
 Optimization completed.
    -- Stationary point found.
 Normal termination of Gaussian 16 at Thu Dec 10 11:08:33 2020.

 --------------------------------------------------------------------
 #N Geom=AllCheck Guess=TCheck SCRF=Check GenChk RB3LYP/6-31G(d) Freq
 --------------------------------------------------------------------

 Structure from the checkpoint file:  "JID_4950.chk"
 -------------------------------
 CID_149447660_JID_4950_neutraal
 -------------------------------
 Charge =  0 Multiplicity = 1

 SCF Done:  E(RB3LYP) =  -992.135865917     A.U. after    1 cycles

  Exact polarizability: 162.452   6.079 129.126   2.849  -6.102 107.832
 Approx polarizability: 200.928  10.236 200.798   3.210  -8.902 160.790

                      1                      2                      3
                      A                      A                      A
 Frequencies --     20.1309                44.5402                68.9887
 Red. masses --      4.7664                 3.8565                 3.1643
 Frc consts  --      0.0011                 0.0045                 0.0089
 IR Inten    --      0.1255                 0.3257                 0.8403

                      4                      5                      6
                      A                      A                      A
 Frequencies --     86.1773               119.4169               128.2477
 Red. masses --      4.4531                 3.2908                 4.7923
 Frc consts  --      0.0195                 0.0276                 0.0464
 IR Inten    --      1.9172                 2.8244                 9.3316

                      7                      8                      9
                      A                      A                      A
 Frequencies --    146.1598               179.2858               197.2734
 Red. masses --      4.1917                 3.0397                 1.1510
 Frc consts  --      0.0528                 0.0576                 0.0264
 IR Inten    --      1.2698                 5.2744                 0.5982

                     10                     11                     12
                      A                      A                      A
 Frequencies --    225.2173               251.0226               285.0853
 Red. masses --      2.8492                 1.1982                 2.6166
 Frc consts  --      0.0851                 0.0445                 0.1253
 IR Inten    --      5.1949                 0.5234                 1.5194

                     13                     14                     15
                      A                      A                      A
 Frequencies --    306.8980               325.3146               330.5968
 Red. masses --      1.8728                 2.5829                 3.5286
 Frc consts  --      0.1039                 0.1611                 0.2272
 IR Inten    --      2.4864                 0.5286                10.6609

                     16                     17                     18
                      A                      A                      A
 Frequencies --    347.7654               370.6334               429.2448
 Red. masses --      2.7048                 2.3931                 1.8813
 Frc consts  --      0.1927                 0.1937                 0.2042
 IR Inten    --      5.2501                 0.0657                 2.1714

                     19                     20                     21
                      A                      A                      A
 Frequencies --    473.6353               495.6456               538.4923
 Red. masses --      2.4655                 2.6878                 3.8111
 Frc consts  --      0.3259                 0.3890                 0.6511
 IR Inten    --      3.8197                 0.0921                15.5122

                     22                     23                     24
                      A                      A                      A
 Frequencies --    577.7235               618.4895               657.1045
 Red. masses --      3.8655                 2.5808                 3.7869
 Frc consts  --      0.7602                 0.5817                 0.9634
 IR Inten    --     20.3556                 1.8846                 4.5229

                     25                     26                     27
                      A                      A                      A
 Frequencies --    712.1578               746.1173               781.9406
 Red. masses --      5.7292                 3.0577                 3.5117
 Frc consts  --      1.7120                 1.0029                 1.2651
 IR Inten    --      2.0786                 4.0377                10.2149

                     28                     29                     30
                      A                      A                      A
 Frequencies --    793.4282               826.0025               843.5114
 Red. masses --      2.8963                 1.6909                 2.2445
 Frc consts  --      1.0743                 0.6797                 0.9409
 IR Inten    --     16.0057                75.8268                52.8098

                     31                     32                     33
                      A                      A                      A
 Frequencies --    869.6755               951.1338               971.7226
 Red. masses --      1.5755                 1.9660                 1.9239
 Frc consts  --      0.7021                 1.0479                 1.0703
 IR Inten    --      1.8742                 3.1821                10.3798

                     34                     35                     36
                      A                      A                      A
 Frequencies --    976.2515              1010.6560              1019.4346
 Red. masses --      1.7635                 1.7379                 1.3270
 Frc consts  --      0.9903                 1.0459                 0.8125
 IR Inten    --      4.2674                15.0647                18.9596

                     37                     38                     39
                      A                      A                      A
 Frequencies --   1032.3000              1060.7106              1088.4844
 Red. masses --      2.3917                 1.6688                 1.6324
 Frc consts  --      1.5017                 1.1062                 1.1395
 IR Inten    --     55.8650                 9.8358                 9.1706

                     40                     41                     42
                      A                      A                      A
 Frequencies --   1100.3642              1106.3065              1120.3703
 Red. masses --      1.8845                 1.9013                 1.8544
 Frc consts  --      1.3443                 1.3710                 1.3714
 IR Inten    --      6.9324                 3.1096                 0.8486

                     43                     44                     45
                      A                      A                      A
 Frequencies --   1153.7535              1181.5820              1188.4515
 Red. masses --      2.6486                 1.8960                 2.2746
 Frc consts  --      2.0773                 1.5596                 1.8928
 IR Inten    --     15.0545                57.0073                37.9378

                     46                     47                     48
                      A                      A                      A
 Frequencies --   1200.4579              1218.5289              1238.3067
 Red. masses --      2.4414                 1.2823                 1.0640
 Frc consts  --      2.0729                 1.1218                 0.9613
 IR Inten    --     23.2689                45.5913                 1.6606

                     49                     50                     51
                      A                      A                      A
 Frequencies --   1255.8235              1287.4024              1315.5759
 Red. masses --      1.3970                 2.8724                 1.5010
 Frc consts  --      1.2981                 2.8050                 1.5306
 IR Inten    --     94.0499                10.3058                69.1494

                     52                     53                     54
                      A                      A                      A
 Frequencies --   1329.6145              1341.6929              1351.0044
 Red. masses --      1.7330                 1.3205                 1.2536
 Frc consts  --      1.8050                 1.4005                 1.3481
 IR Inten    --     37.4268                29.6006                55.8024

                     55                     56                     57
                      A                      A                      A
 Frequencies --   1372.9921              1404.9956              1406.5975
 Red. masses --      1.2676                 1.2476                 1.1746
 Frc consts  --      1.4078                 1.4511                 1.3692
 IR Inten    --      1.7540                 7.8611                11.4289

                     58                     59                     60
                      A                      A                      A
 Frequencies --   1411.6537              1419.5883              1439.0107
 Red. masses --      1.3946                 1.4769                 1.5629
 Frc consts  --      1.6374                 1.7536                 1.9068
 IR Inten    --     10.6188                60.4201                 3.4614

                     61                     62                     63
                      A                      A                      A
 Frequencies --   1462.6220              1484.8665              1487.3639
 Red. masses --      2.1647                 1.1976                 1.1161
 Frc consts  --      2.7284                 1.5558                 1.4548
 IR Inten    --    287.1799                 0.9841                 3.5584

                     64                     65                     66
                      A                      A                      A
 Frequencies --   1494.3901              1506.7363              1512.3449
 Red. masses --      1.3737                 1.0555                 1.0848
 Frc consts  --      1.8074                 1.4118                 1.4619
 IR Inten    --     12.4714                 6.0841                 4.0036

                     67                     68                     69
                      A                      A                      A
 Frequencies --   1514.6201              1517.4705              1520.3083
 Red. masses --      1.0791                 1.1257                 1.1181
 Frc consts  --      1.4585                 1.5272                 1.5227
 IR Inten    --     42.7271                10.3107                16.3929

                     70                     71                     72
                      A                      A                      A
 Frequencies --   1532.2228              1532.5735              1536.0525
 Red. masses --      1.0593                 1.1218                 1.0524
 Frc consts  --      1.4652                 1.5523                 1.4630
 IR Inten    --     15.0550                28.1782                 2.9682

                     73                     74                     75
                      A                      A                      A
 Frequencies --   1538.3553              1760.6394              2909.2614
 Red. masses --      1.1054                 7.3694                 1.0729
 Frc consts  --      1.5412                13.4594                 5.3505
 IR Inten    --      2.3629               332.3013                43.2841

                     76                     77                     78
                      A                      A                      A
 Frequencies --   2921.7505              2943.5067              3014.2531
 Red. masses --      1.0715                 1.0625                 1.0740
 Frc consts  --      5.3891                 5.4236                 5.7493
 IR Inten    --     55.4950               123.1806                41.0257

                     79                     80                     81
                      A                      A                      A
 Frequencies --   3025.6906              3060.0814              3067.2651
 Red. masses --      1.0725                 1.0306                 1.0584
 Frc consts  --      5.7847                 5.6858                 5.8670
 IR Inten    --     58.5059                35.9848                13.1439

                     82                     83                     84
                      A                      A                      A
 Frequencies --   3077.8965              3079.2807              3080.9014
 Red. masses --      1.0745                 1.0638                 1.0854
 Frc consts  --      5.9974                 5.9430                 6.0698
 IR Inten    --     13.3441                19.4428                59.4921

                     85                     86                     87
                      A                      A                      A
 Frequencies --   3084.9944              3119.3901              3123.1611
 Red. masses --      1.0869                 1.1034                 1.1042
 Frc consts  --      6.0946                 6.3260                 6.3456
 IR Inten    --     60.7201                15.3626                30.1071

                     88                     89                     90
                      A                      A                      A
 Frequencies --   3130.7815              3146.7827              3160.4830
 Red. masses --      1.1053                 1.1054                 1.0917
 Frc consts  --      6.3832                 6.4491                 6.4250
 IR Inten    --     26.6362                14.3616                 6.1512

                     91                     92                     93
                      A                      A                      A
 Frequencies --   3163.4224              3173.4685              3544.4163
 Red. masses --      1.1078                 1.0896                 1.0740
 Frc consts  --      6.5315                 6.4655                 7.9498
 IR Inten    --      5.7290                11.1108                23.3026

 - Thermochemistry -
 -------------------
 Temperature   298.150 Kelvin.  Pressure   1.00000 Atm.
 Atom     1 has atomic number  6 and mass  12.00000

 Molecular mass:   217.12488 amu.
 Principal axes and moments of inertia in atomic units:
                           1         2         3
     Eigenvalues --  1506.630076145.683236439.88563
           X            0.99992   0.01211   0.00398
           Y           -0.01172   0.99610  -0.08748
           Z           -0.00503   0.08742   0.99616
 This molecule is an asymmetric top.
 Rotational symmetry number  1.
 Warning -- assumption of classical behavior for rotation
           may cause significant error
 Rotational temperatures (Kelvin)      0.05749     0.01409     0.01345
 Rotational constants (GHZ):           1.19787     0.29366     0.28024
 Zero-point vibrational energy     765478.7 (Joules/Mol)
                                  182.95380 (Kcal/Mol)
 Warning -- explicit consideration of  23 degrees of freedom as
           vibrations may cause significant error
 Vibrational temperatures:     28.96    64.08    99.26   123.99   171.81
          (Kelvin)            184.52   210.29   257.95   283.83   324.04
                              361.17   410.17   441.56   468.06   475.66
                              500.36   533.26   617.59   681.46   713.12
                              774.77   831.22   889.87   945.43  1024.64
                             1073.50  1125.04  1141.57  1188.43  1213.62
                             1251.27  1368.47  1398.09  1404.61  1454.11
                             1466.74  1485.25  1526.13  1566.09  1583.18
                             1591.73  1611.96  1659.99  1700.03  1709.92
                             1727.19  1753.19  1781.65  1806.85  1852.28
                             1892.82  1913.02  1930.40  1943.79  1975.43
                             2021.48  2023.78  2031.05  2042.47  2070.42
                             2104.39  2136.39  2139.98  2150.09  2167.86
                             2175.93  2179.20  2183.30  2187.38  2204.53
                             2205.03  2210.04  2213.35  2533.17  4185.78
                             4203.75  4235.05  4336.84  4353.29  4402.77
                             4413.11  4428.41  4430.40  4432.73  4438.62
                             4488.11  4493.53  4504.50  4527.52  4547.23
                             4551.46  4565.91  5099.62

 Zero-point correction=                           0.291555 (Hartree/Particle)
 Thermal correction to Energy=                    0.306812
 Thermal correction to Enthalpy=                  0.307756
 Thermal correction to Gibbs Free Energy=         0.247959
 Sum of electronic and zero-point Energies=           -991.844310
 Sum of electronic and thermal Energies=              -991.829054
 Sum of electronic and thermal Enthalpies=            -991.828110
 Sum of electronic and thermal Free Energies=         -991.887907

                     E (Thermal)             CV                S
                      KCal/Mol        Cal/Mol-Kelvin    Cal/Mol-Kelvin
 Total                  192.527             56.783            125.854
 Electronic               0.000              0.000              0.000
 Translational            0.889              2.981             42.029
 Rotational               0.889              2.981             32.456
 Vibrational            190.750             50.822             51.369
 Vibration     1          0.593              1.986              6.621
 Vibration     2          0.595              1.980              5.046
 Vibration     3          0.598              1.969              4.182
 Vibration     4          0.601              1.959              3.745
 Vibration     5          0.609              1.933              3.110
 Vibration     6          0.611              1.925              2.972
 Vibration     7          0.617              1.907              2.722
 Vibration     8          0.629              1.868              2.336
 Vibration     9          0.637              1.844              2.158
 Vibration    10          0.650              1.803              1.917
 Vibration    11          0.663              1.761              1.723
 Vibration    12          0.683              1.701              1.503
 Vibration    13          0.697              1.661              1.379
 Vibration    14          0.709              1.625              1.283
 Vibration    15          0.713              1.614              1.257
 Vibration    16          0.725              1.580              1.176
 Vibration    17          0.743              1.533              1.077
 Vibration    18          0.791              1.407              0.861
 Vibration    19          0.830              1.309              0.727
 Vibration    20          0.851              1.260              0.669
 Vibration    21          0.894              1.165              0.569
 Vibration    22          0.934              1.079              0.490
 Vibration    23          0.978              0.993              0.419

 Optimization completed.
    -- Stationary point found.
 Normal termination of Gaussian 16 at Thu Dec 10 11:18:16 2020.

 ----------------------------------------------------------------------
 # B3LYP/6-311++G(d,p) empiricaldispersion=gd3bj scf=xqc pop=npa geom=c
 heck
 ----------------------------------------------------------------------

 ---------------------------------------
 CID_149447660_JID_4950_Energie_neutraal
 ---------------------------------------
 Structure from the checkpoint file:  "JID_4950.chk"
 Charge =  0 Multiplicity = 1

 SCF Done:  E(RB3LYP) =  -992.333994885     A.U. after   14 cycles
 Normal termination of Gaussian 16 at Thu Dec 10 11:22:10 2020.

 ----------------------------------------------------------------------
 # B3LYP/6-311++G(d,p) empiricaldispersion=gd3bj scf=xqc pop=npa geom=c
 heck
 ----------------------------------------------------------------------

 -------------------------------------
 CID_149447660_JID_4950_Energie_kation
 -------------------------------------
 Structure from the checkpoint file:  "JID_4950.chk"
 Charge =  1 Multiplicity = 2

 SCF Done:  E(UB3LYP) =  -992.046568950     A.U. after   31 cycles
 Normal termination of Gaussian 16 at Thu Dec 10 11:34:17 2020.
 Gaussian 16:  ES64L-G16RevA.03 25-Dec-2016

 ----------------------------------------------------------------------
 # B3LYP/6-311++G(d,p) empiricaldispersion=gd3bj scf=xqc pop=npa geom=c
 heck
 ----------------------------------------------------------------------

 ------------------------------------
 CID_149447660_JID_4950_Energie_anion
 ------------------------------------
 Structure from the checkpoint file:  "JID_4950.chk"
 Charge = -1 Multiplicity = 2

                         Standard orientation:
 ---------------------------------------------------------------------
 Center     Atomic      Atomic             Coordinates (Angstroms)
 Number     Number       Type             X           Y           Z
 ---------------------------------------------------------------------
      1          6           0       -4.498500   -0.726139   -1.100407
      2          7           0       -3.480836   -0.107614   -0.267682
      3          6           0       -2.655965    0.828484   -1.028000
      4          6           0       -1.647276    1.527978   -0.120908
      5          7           0       -0.838131    0.518304    0.554201
      6          6           0       -1.652302   -0.419087    1.327851
      7          6           0       -2.653896   -1.104542    0.404455
      8          6           0        0.456542    0.853149    0.898228
      9          8           0        0.908039    1.987783    0.751099
     10          7           0        1.231833   -0.191614    1.411718
     11          6           0        1.370736   -1.441712    0.660460
     12          6           0        2.092444   -1.289395   -0.685236
     13         16           0        3.803962   -0.633774   -0.528258
     14          6           0        3.565677    1.107707   -1.045929
     15          1           0       -5.133966    0.049204   -1.541243
     16          1           0       -4.075267   -1.332977   -1.924861
     17          1           0       -5.129859   -1.378364   -0.487526
     18          1           0       -2.108825    0.316183   -1.845385
     19          1           0       -3.312691    1.576414   -1.486582
     20          1           0       -2.177608    2.149878    0.615328
     21          1           0       -0.983577    2.175300   -0.694321
     22          1           0       -2.205260    0.135182    2.101782
     23          1           0       -1.013910   -1.144227    1.829710
     24          1           0       -3.305795   -1.760399    0.992997
     25          1           0       -2.104385   -1.739371   -0.321410
     26          1           0        2.145436    0.182865    1.653097
     27          1           0        1.919288   -2.144522    1.295693
     28          1           0        0.382984   -1.873055    0.478288
     29          1           0        2.160571   -2.267398   -1.173493
     30          1           0        1.526562   -0.627349   -1.348923
     31          1           0        3.277912    1.156758   -2.100146
     32          1           0        2.821044    1.612900   -0.426139
     33          1           0        4.534814    1.598890   -0.924277
 ---------------------------------------------------------------------

 SCF Done:  E(UB3LYP) =  -992.321348506     A.U. after   31 cycles

 The electronic state is 2-A.
 Alpha  occ. eigenvalues --  -88.75173 -18.99859 -14.24450 -14.23539 -14.21101
 Alpha  occ. eigenvalues --  -10.20279 -10.11919 -10.11203 -10.10916 -10.10699
 Alpha  occ. eigenvalues --  -10.10190 -10.09897 -10.09686 -10.08646  -7.83768
 Alpha  occ. eigenvalues --   -5.80167  -5.79799  -5.79137  -0.96160  -0.86267
 Alpha  occ. eigenvalues --   -0.83360  -0.81313  -0.71239  -0.67811  -0.65278
 Alpha  occ. eigenvalues --   -0.63997  -0.57523  -0.56082  -0.55811  -0.51158
 Alpha  occ. eigenvalues --   -0.49830  -0.45765  -0.43132  -0.40731  -0.38707
 Alpha  occ. eigenvalues --   -0.37755  -0.37468  -0.36399  -0.35749  -0.35431
 Alpha  occ. eigenvalues --   -0.34489  -0.34322  -0.33520  -0.32277  -0.31174
 Alpha  occ. eigenvalues --   -0.30526  -0.29076  -0.28062  -0.27612  -0.26688
 Alpha  occ. eigenvalues --   -0.26423  -0.25566  -0.25043  -0.22151  -0.19831
 Alpha  occ. eigenvalues --   -0.16362  -0.15515  -0.13901  -0.12763   0.04354
 Alpha virt. eigenvalues --    0.06511   0.06808   0.07419   0.07974   0.08403
 Alpha virt. eigenvalues --    0.09329   0.09884   0.10244   0.10586   0.10737
 Alpha virt. eigenvalues --    0.11450   0.11691   0.11773   0.12274   0.12822

  Beta  occ. eigenvalues --  -88.75171 -18.99856 -14.24449 -14.23538 -14.21084
  Beta  occ. eigenvalues --  -10.20271 -10.11896 -10.11189 -10.10889 -10.10693
  Beta  occ. eigenvalues --  -10.10184 -10.09874 -10.09649 -10.08608  -7.83765
  Beta  occ. eigenvalues --   -5.80165  -5.79794  -5.79135  -0.96149  -0.86249
  Beta  occ. eigenvalues --   -0.83342  -0.81288  -0.71216  -0.67778  -0.65248
  Beta  occ. eigenvalues --   -0.63965  -0.57475  -0.56028  -0.55759  -0.51111
  Beta  occ. eigenvalues --   -0.49778  -0.45718  -0.43107  -0.40697  -0.38668
  Beta  occ. eigenvalues --   -0.37722  -0.37430  -0.36353  -0.35711  -0.35389
  Beta  occ. eigenvalues --   -0.34470  -0.34302  -0.33495  -0.32255  -0.31136
  Beta  occ. eigenvalues --   -0.30493  -0.29043  -0.28027  -0.27566  -0.26659
  Beta  occ. eigenvalues --   -0.26382  -0.25523  -0.25008  -0.22123  -0.19825
  Beta  occ. eigenvalues --   -0.16352  -0.15497  -0.13886  -0.12669
  Beta virt. eigenvalues --    0.06607   0.07128   0.07401   0.08029   0.08502
  Beta virt. eigenvalues --    0.08794   0.09731   0.10262   0.10702   0.10878
  Beta virt. eigenvalues --    0.11065   0.11586   0.11821   0.11941   0.12579

 Mulliken charges and spin densities:
               1          2
     1  C    0.859370  -1.116372
     2  N   -0.250236   0.322977
     3  C    0.242155  -0.640879
     4  C   -0.103089  -0.079326
     5  N   -0.013037   0.097928
     6  C   -0.654540   0.051891
     7  C    0.995275  -1.160700
     8  C    0.070492  -0.242420
     9  O   -0.334638   0.012441
    10  N   -0.225902   0.051723
    11  C    0.250494  -0.581684
    12  C    0.252672  -0.432456
    13  S    0.181113  -0.072528
    14  C   -0.533582  -0.201029
    15  H   -0.362785   0.489600
    16  H   -0.273363   0.399377
    17  H   -0.329785   0.463189
    18  H   -0.134887   0.255358
    19  H   -0.052983   0.230021
    20  H    0.096679   0.057968
    21  H    0.075872   0.109772
    22  H    0.104341   0.054618
    23  H   -0.253559   0.439372
    24  H   -0.398799   0.587162
    25  H   -0.092259   0.221530
    26  H    0.282609   0.027050
    27  H   -0.209157   0.397958
    28  H   -0.043782   0.153997
    29  H   -0.780001   1.058212
    30  H    0.240456  -0.088234
    31  H    0.043689   0.128009
    32  H    0.198883   0.015518
    33  H    0.152283  -0.010042
 Sum of Mulliken charges =  -1.00000   1.00000

 Dipole moment (field-independent basis, Debye):
    X=              5.5739    Y=              5.1704    Z=              2.0445  Tot=              7.8728
 Quadrupole moment (field-independent basis, Debye-Ang):
   XX=           -177.7813   YY=           -147.0563   ZZ=           -130.6536
   XY=             -3.2084   XZ=             -4.5592   YZ=             -3.6076

 Summary of Natural Population Analysis:

                                       Natural Population
                Natural  -----------------------------------------------
    Atom  No    Charge         Core      Valence    Rydberg      Total
 -----------------------------------------------------------------------
      C    1   -0.17546      0.99965     2.16712    0.00869     3.17546
      N    2   -0.27909      0.99972     2.76660    0.01277     3.77909
      C    3   -0.08847      0.99961     2.07708    0.01178     3.08847
      C    4   -0.08685      0.99961     2.07604    0.01120     3.08685
      N    5   -0.27112      0.99963     2.76206    0.00943     3.77112
      C    6   -0.08686      0.99960     2.07602    0.01124     3.08686
      C    7   -0.09099      0.99961     2.07821    0.01317     3.09099
      C    8    0.41582      0.99966     1.56102    0.02350     2.58418
      O    9   -0.33905      0.99987     3.33443    0.00474     4.33905
      N   10   -0.34109      0.99969     2.83126    0.01014     3.84109
      C   11   -0.09586      0.99959     2.08251    0.01376     3.09586
      C   12   -0.25846      0.99959     2.24712    0.01175     3.25846
      S   13    0.07059      4.99964     2.91135    0.01842     7.92941
      C   14   -0.35226      0.99961     2.34740    0.00525     3.35226
      H   15    0.09542      0.00000     0.40309    0.00149     0.40458
      H   16    0.08338      0.00000     0.41480    0.00182     0.41662
      H   17    0.09767      0.00000     0.40076    0.00156     0.40233
      H   18    0.08339      0.00000     0.41464    0.00197     0.41661
      H   19    0.09927      0.00000     0.39940    0.00133     0.40073
      H   20    0.09063      0.00000     0.40806    0.00130     0.40937
      H   21    0.11199      0.00000     0.38710    0.00091     0.38801
      H   22    0.09152      0.00000     0.40689    0.00159     0.40848
      H   23    0.10851      0.00000     0.38995    0.00154     0.39149
      H   24    0.10243      0.00000     0.39555    0.00202     0.39757
      H   25    0.08437      0.00000     0.41238    0.00325     0.41563
      H   26    0.19183      0.00000     0.30577    0.00240     0.30817
      H   27    0.09758      0.00000     0.40077    0.00165     0.40242
      H   28    0.10437      0.00000     0.39304    0.00258     0.39563
      H   29    0.11191      0.00000     0.38551    0.00258     0.38809
      H   30    0.10549      0.00000     0.39274    0.00177     0.39451
      H   31    0.09872      0.00000     0.39988    0.00140     0.40128
      H   32    0.11878      0.00000     0.37942    0.00180     0.38122
      H   33    0.10188      0.00000     0.39731    0.00081     0.39812
 =======================================================================
   * Total *    0.00000     17.99509    40.80529    0.19963    59.00000

 Normal termination of Gaussian 16 at Thu Dec 10 11:45:34 2020.
