 Gaussian 16, Revision A.03,

 -----------------------------------------------------------
 # opt freq B3LYP/6-31G(d) empiricaldispersion=gd3bj scf=xqc
 -----------------------------------------------------------

 ------------------------------
 CID_62472906_JID_1302_neutraal
 ------------------------------
 Symbolic Z-matrix:
 Charge =  0 Multiplicity = 1

 SCF Done:  E(RB3LYP) =  -879.156269511     A.U. after   14 cycles
 SCF Done:  E(RB3LYP) =  -879.166048284     A.U. after   13 cycles
 SCF Done:  E(RB3LYP) =  -879.167580857     A.U. after   12 cycles
 SCF Done:  E(RB3LYP) =  -879.167843161     A.U. after   11 cycles
 SCF Done:  E(RB3LYP) =  -879.167919624     A.U. after   11 cycles
 SCF Done:  E(RB3LYP) =  -879.167973332     A.U. after   10 cycles
 SCF Done:  E(RB3LYP) =  -879.167978150     A.U. after   10 cycles
 SCF Done:  E(RB3LYP) =  -879.167984632     A.U. after   10 cycles
 SCF Done:  E(RB3LYP) =  -879.167987555     A.U. after    9 cycles
 SCF Done:  E(RB3LYP) =  -879.167988761     A.U. after    8 cycles
 SCF Done:  E(RB3LYP) =  -879.167988984     A.U. after    8 cycles
 Optimization completed.
    -- Stationary point found.
 Normal termination of Gaussian 16 at Tue Dec  8 19:38:47 2020.

 --------------------------------------------------------------------
 #N Geom=AllCheck Guess=TCheck SCRF=Check GenChk RB3LYP/6-31G(d) Freq
 --------------------------------------------------------------------

 Structure from the checkpoint file:  "JID_1302.chk"
 ------------------------------
 CID_62472906_JID_1302_neutraal
 ------------------------------
 Charge =  0 Multiplicity = 1

 SCF Done:  E(RB3LYP) =  -879.167988984     A.U. after    1 cycles

  Exact polarizability: 109.676  -0.125  94.847   1.563  -1.200  93.550
 Approx polarizability: 146.933   1.950 152.041  -4.604   0.415 141.196

                      1                      2                      3
                      A                      A                      A
 Frequencies --     65.2536               126.5391               171.8413
 Red. masses --      4.5390                 3.1030                 1.4425
 Frc consts  --      0.0114                 0.0293                 0.0251
 IR Inten    --      3.1806                 0.8332                 1.7922

                      4                      5                      6
                      A                      A                      A
 Frequencies --    182.7664               221.3591               252.3344
 Red. masses --      1.8356                 5.3334                 2.4676
 Frc consts  --      0.0361                 0.1540                 0.0926
 IR Inten    --      2.0132                 4.9779                10.3570

                      7                      8                      9
                      A                      A                      A
 Frequencies --    268.6125               279.7999               298.1008
 Red. masses --      3.0873                 1.4826                 2.5232
 Frc consts  --      0.1312                 0.0684                 0.1321
 IR Inten    --      1.0492                27.8980                 2.9638

                     10                     11                     12
                      A                      A                      A
 Frequencies --    334.9806               345.1447               366.2967
 Red. masses --      2.1532                 3.6757                 1.8360
 Frc consts  --      0.1424                 0.2580                 0.1451
 IR Inten    --     19.8983                 2.6310                 1.6344

                     13                     14                     15
                      A                      A                      A
 Frequencies --    397.7516               454.5537               464.9871
 Red. masses --      3.5530                 3.4181                 2.1940
 Frc consts  --      0.3312                 0.4161                 0.2795
 IR Inten    --      8.0695                 6.8609                 8.2947

                     16                     17                     18
                      A                      A                      A
 Frequencies --    489.0020               493.4772               572.8606
 Red. masses --      3.8069                 5.1423                 2.7563
 Frc consts  --      0.5363                 0.7378                 0.5329
 IR Inten    --     16.8592                21.3348                27.3027

                     19                     20                     21
                      A                      A                      A
 Frequencies --    586.1196               736.6935               789.0327
 Red. masses --      2.7984                 5.2380                 2.4275
 Frc consts  --      0.5664                 1.6749                 0.8904
 IR Inten    --      0.2889                48.5096                44.4268

                     22                     23                     24
                      A                      A                      A
 Frequencies --    796.0526               856.0372               876.1134
 Red. masses --      1.5470                 2.5035                 1.4003
 Frc consts  --      0.5776                 1.0809                 0.6333
 IR Inten    --      2.0318                29.8860                24.3117

                     25                     26                     27
                      A                      A                      A
 Frequencies --    908.6629               936.9592               961.8865
 Red. masses --      2.0524                 1.7059                 1.4842
 Frc consts  --      0.9984                 0.8824                 0.8091
 IR Inten    --     20.8046                44.7253                 9.3695

                     28                     29                     30
                      A                      A                      A
 Frequencies --    987.4780               989.7795              1001.3094
 Red. masses --      1.3514                 1.4766                 2.0595
 Frc consts  --      0.7764                 0.8523                 1.2166
 IR Inten    --      9.6360                45.8515                 7.6844

                     31                     32                     33
                      A                      A                      A
 Frequencies --   1050.3184              1079.0042              1101.8159
 Red. masses --      1.8391                 1.6703                 4.1833
 Frc consts  --      1.1954                 1.1458                 2.9922
 IR Inten    --      0.8401                10.6571                80.6678

                     34                     35                     36
                      A                      A                      A
 Frequencies --   1111.9984              1137.6997              1160.4957
 Red. masses --      2.3724                 2.2650                 1.4085
 Frc consts  --      1.7284                 1.7274                 1.1177
 IR Inten    --     26.8967                 6.2516                 3.0934

                     37                     38                     39
                      A                      A                      A
 Frequencies --   1181.1642              1212.9307              1281.7718
 Red. masses --      1.8153                 1.7209                 3.3500
 Frc consts  --      1.4922                 1.4917                 3.2428
 IR Inten    --      5.3545                 0.9982               113.1446

                     40                     41                     42
                      A                      A                      A
 Frequencies --   1294.9671              1315.0084              1316.0213
 Red. masses --      2.1841                 1.3044                 1.2531
 Frc consts  --      2.1580                 1.3289                 1.2787
 IR Inten    --     84.6332                 0.1358                 2.8671

                     43                     44                     45
                      A                      A                      A
 Frequencies --   1352.9503              1366.7255              1369.5252
 Red. masses --      1.2749                 1.4317                 1.4342
 Frc consts  --      1.3750                 1.5757                 1.5849
 IR Inten    --      6.8477                11.5197                 1.3868

                     46                     47                     48
                      A                      A                      A
 Frequencies --   1394.5394              1408.6172              1410.9052
 Red. masses --      1.4424                 1.4670                 1.3947
 Frc consts  --      1.6528                 1.7150                 1.6357
 IR Inten    --      0.8116                 2.3929                 0.4720

                     49                     50                     51
                      A                      A                      A
 Frequencies --   1419.6660              1475.6236              1496.3542
 Red. masses --      1.4066                 1.0533                 1.0515
 Frc consts  --      1.6703                 1.3513                 1.3872
 IR Inten    --      0.7743                 5.4187                 7.7234

                     52                     53                     54
                      A                      A                      A
 Frequencies --   1507.5898              1514.9089              1519.1867
 Red. masses --      1.0815                 1.0922                 1.0895
 Frc consts  --      1.4482                 1.4768                 1.4815
 IR Inten    --      2.1845                 0.8618                 7.2046

                     55                     56                     57
                      A                      A                      A
 Frequencies --   1524.0546              1537.5147              1675.3915
 Red. masses --      1.0793                 1.0957                 1.0928
 Frc consts  --      1.4771                 1.5261                 1.8073
 IR Inten    --      8.5337                 4.6384                44.1607

                     58                     59                     60
                      A                      A                      A
 Frequencies --   3012.0536              3015.6669              3023.8660
 Red. masses --      1.0715                 1.0694                 1.0695
 Frc consts  --      5.7275                 5.7300                 5.7618
 IR Inten    --     10.9712                30.9407                53.2477

                     61                     62                     63
                      A                      A                      A
 Frequencies --   3059.7065              3060.3943              3081.9178
 Red. masses --      1.0682                 1.0670                 1.0926
 Frc consts  --      5.8922                 5.8882                 6.1145
 IR Inten    --     24.1619                49.1294                53.4803

                     64                     65                     66
                      A                      A                      A
 Frequencies --   3090.7427              3095.0273              3096.4540
 Red. masses --      1.0579                 1.0904                 1.0628
 Frc consts  --      5.9540                 6.1542                 6.0038
 IR Inten    --      9.8339                18.0511                11.3336

                     67                     68                     69
                      A                      A                      A
 Frequencies --   3119.6261              3124.1637              3190.5843
 Red. masses --      1.0985                 1.0977                 1.1062
 Frc consts  --      6.2988                 6.3128                 6.6348
 IR Inten    --      2.5230                26.3616                 1.4902

                     70                     71                     72
                      A                      A                      A
 Frequencies --   3213.0752              3472.8589              3562.5255
 Red. masses --      1.1075                 1.0487                 1.0938
 Frc consts  --      6.7366                 7.4521                 8.1793
 IR Inten    --      0.7812                 1.9473                 2.7201

 - Thermochemistry -
 -------------------
 Temperature   298.150 Kelvin.  Pressure   1.00000 Atm.
 Atom     1 has atomic number  6 and mass  12.00000

 Molecular mass:   177.08235 amu.
 Principal axes and moments of inertia in atomic units:
                           1         2         3
     Eigenvalues --  1210.884012221.050932277.85789
           X            0.99943   0.01474   0.03042
           Y           -0.00694   0.97022  -0.24214
           Z           -0.03308   0.24179   0.96976
 This molecule is an asymmetric top.
 Rotational symmetry number  1.
 Warning -- assumption of classical behavior for rotation
           may cause significant error
 Rotational temperatures (Kelvin)      0.07153     0.03900     0.03802
 Rotational constants (GHZ):           1.49043     0.81256     0.79230
 Zero-point vibrational energy     596022.6 (Joules/Mol)
                                  142.45282 (Kcal/Mol)
 Warning -- explicit consideration of  19 degrees of freedom as
           vibrations may cause significant error
 Vibrational temperatures:     93.89   182.06   247.24   262.96   318.49
          (Kelvin)            363.05   386.47   402.57   428.90   481.96
                              496.59   527.02   572.28   654.00   669.01
                              703.56   710.00   824.22   843.30  1059.94
                             1135.24  1145.34  1231.65  1260.53  1307.36
                             1348.08  1383.94  1420.76  1424.07  1440.66
                             1511.17  1552.45  1585.27  1599.92  1636.90
                             1669.69  1699.43  1745.14  1844.18  1863.17
                             1892.00  1893.46  1946.59  1966.41  1970.44
                             2006.43  2026.69  2029.98  2042.58  2123.09
                             2152.92  2169.09  2179.62  2185.77  2192.77
                             2212.14  2410.51  4333.67  4338.87  4350.67
                             4402.24  4403.22  4434.19  4446.89  4453.05
                             4455.11  4488.45  4494.97  4590.54  4622.90
                             4996.67  5125.68

 Zero-point correction=                           0.227013 (Hartree/Particle)
 Thermal correction to Energy=                    0.238539
 Thermal correction to Enthalpy=                  0.239483
 Thermal correction to Gibbs Free Energy=         0.190710
 Sum of electronic and zero-point Energies=           -878.940976
 Sum of electronic and thermal Energies=              -878.929450
 Sum of electronic and thermal Enthalpies=            -878.928506
 Sum of electronic and thermal Free Energies=         -878.977279

                     E (Thermal)             CV                S
                      KCal/Mol        Cal/Mol-Kelvin    Cal/Mol-Kelvin
 Total                  149.685             45.537            102.651
 Electronic               0.000              0.000              0.000
 Translational            0.889              2.981             41.421
 Rotational               0.889              2.981             30.195
 Vibrational            147.908             39.576             31.035
 Vibration     1          0.597              1.971              4.292
 Vibration     2          0.611              1.927              2.998
 Vibration     3          0.626              1.877              2.415
 Vibration     4          0.630              1.863              2.300
 Vibration     5          0.648              1.809              1.948
 Vibration     6          0.664              1.759              1.714
 Vibration     7          0.673              1.731              1.605
 Vibration     8          0.680              1.711              1.535
 Vibration     9          0.691              1.677              1.428
 Vibration    10          0.716              1.606              1.236
 Vibration    11          0.724              1.585              1.188
 Vibration    12          0.739              1.542              1.095
 Vibration    13          0.764              1.475              0.971
 Vibration    14          0.813              1.351              0.782
 Vibration    15          0.822              1.328              0.752
 Vibration    16          0.845              1.274              0.686
 Vibration    17          0.849              1.264              0.675
 Vibration    18          0.929              1.090              0.499
 Vibration    19          0.943              1.061              0.474

 Optimization completed.
    -- Stationary point found.
 Normal termination of Gaussian 16 at Tue Dec  8 19:44:29 2020.

 ----------------------------------------------------------------------
 # B3LYP/6-311++G(d,p) empiricaldispersion=gd3bj scf=xqc pop=npa geom=c
 heck
 ----------------------------------------------------------------------

 --------------------------------------
 CID_62472906_JID_1302_Energie_neutraal
 --------------------------------------
 Structure from the checkpoint file:  "JID_1302.chk"
 Charge =  0 Multiplicity = 1

 SCF Done:  E(RB3LYP) =  -879.340247860     A.U. after   16 cycles
 Normal termination of Gaussian 16 at Tue Dec  8 19:47:19 2020.

 ----------------------------------------------------------------------
 # B3LYP/6-311++G(d,p) empiricaldispersion=gd3bj scf=xqc pop=npa geom=c
 heck
 ----------------------------------------------------------------------

 ------------------------------------
 CID_62472906_JID_1302_Energie_kation
 ------------------------------------
 Structure from the checkpoint file:  "JID_1302.chk"
 Charge =  1 Multiplicity = 2

 SCF Done:  E(UB3LYP) =  -879.003302115     A.U. after   23 cycles
 Normal termination of Gaussian 16 at Tue Dec  8 19:53:30 2020.
 Gaussian 16:  ES64L-G16RevA.03 25-Dec-2016

 ----------------------------------------------------------------------
 # B3LYP/6-311++G(d,p) empiricaldispersion=gd3bj scf=xqc pop=npa geom=c
 heck
 ----------------------------------------------------------------------

 -----------------------------------
 CID_62472906_JID_1302_Energie_anion
 -----------------------------------
 Structure from the checkpoint file:  "JID_1302.chk"
 Charge = -1 Multiplicity = 2

                         Standard orientation:
 ---------------------------------------------------------------------
 Center     Atomic      Atomic             Coordinates (Angstroms)
 Number     Number       Type             X           Y           Z
 ---------------------------------------------------------------------
      1          6           0        2.321629   -0.559726    1.161922
      2         16           0        1.243293   -0.426942   -0.283764
      3          8           0        2.015446    0.225364   -1.361114
      4          8           0        0.642806   -1.754650   -0.520655
      5          6           0       -0.062445    0.817055    0.210348
      6          6           0       -0.860185    0.352793    1.437329
      7          6           0       -1.845173   -0.790547    1.159084
      8          6           0       -2.773851   -0.451777   -0.013562
      9          6           0       -1.973052   -0.110634   -1.275904
     10          6           0       -0.982038    1.031603   -1.010328
     11          7           0        0.737225    1.985338    0.564408
     12          1           0        3.200548   -1.108139    0.816564
     13          1           0        1.809323   -1.119037    1.945544
     14          1           0        2.583653    0.445502    1.489866
     15          1           0       -0.177227    0.106306    2.257348
     16          1           0       -1.428702    1.233890    1.773215
     17          1           0       -2.429833   -0.979866    2.067279
     18          1           0       -1.290372   -1.705208    0.930364
     19          1           0       -3.408305    0.405158    0.259923
     20          1           0       -3.448830   -1.292688   -0.210861
     21          1           0       -2.648252    0.186350   -2.087320
     22          1           0       -1.428934   -0.997078   -1.614650
     23          1           0       -1.540524    1.954126   -0.792792
     24          1           0       -0.363262    1.234604   -1.891443
     25          1           0        1.170598    2.369768   -0.273908
     26          1           0        0.131544    2.701706    0.961062
 ---------------------------------------------------------------------

 SCF Done:  E(UB3LYP) =  -879.328422235     A.U. after   26 cycles

 The electronic state is 2-A.
 Alpha  occ. eigenvalues --  -88.93426 -19.00943 -19.00806 -14.20249 -10.14155
 Alpha  occ. eigenvalues --  -10.10298 -10.07206 -10.07052 -10.06045 -10.05955
 Alpha  occ. eigenvalues --  -10.05860  -8.00022  -5.96289  -5.96172  -5.96083
 Alpha  occ. eigenvalues --   -0.99922  -0.89654  -0.81274  -0.71825  -0.67421
 Alpha  occ. eigenvalues --   -0.64655  -0.62983  -0.54997  -0.51998  -0.48395
 Alpha  occ. eigenvalues --   -0.45149  -0.40447  -0.39425  -0.37901  -0.37637
 Alpha  occ. eigenvalues --   -0.35999  -0.34902  -0.33426  -0.32864  -0.32490
 Alpha  occ. eigenvalues --   -0.30955  -0.29213  -0.28439  -0.28061  -0.24713
 Alpha  occ. eigenvalues --   -0.23561  -0.22451  -0.22263  -0.21163  -0.20876
 Alpha  occ. eigenvalues --   -0.19885  -0.18220  -0.15264   0.04622
 Alpha virt. eigenvalues --    0.07013   0.07641   0.08315   0.09801   0.09937
 Alpha virt. eigenvalues --    0.10628   0.11293   0.11563   0.12566   0.12796
 Alpha virt. eigenvalues --    0.13204   0.13733   0.14653   0.14793   0.15309

  Beta  occ. eigenvalues --  -88.93421 -19.00937 -19.00800 -14.20199 -10.14157
  Beta  occ. eigenvalues --  -10.10270 -10.07165 -10.07023 -10.06038 -10.05936
  Beta  occ. eigenvalues --  -10.05845  -8.00017  -5.96286  -5.96169  -5.96066
  Beta  occ. eigenvalues --   -0.99906  -0.89643  -0.81218  -0.71776  -0.67383
  Beta  occ. eigenvalues --   -0.64607  -0.62925  -0.54940  -0.51939  -0.48345
  Beta  occ. eigenvalues --   -0.45083  -0.40383  -0.39353  -0.37858  -0.37598
  Beta  occ. eigenvalues --   -0.35961  -0.34870  -0.33389  -0.32835  -0.32461
  Beta  occ. eigenvalues --   -0.30914  -0.29161  -0.28404  -0.28014  -0.24664
  Beta  occ. eigenvalues --   -0.23525  -0.22420  -0.22233  -0.21129  -0.20847
  Beta  occ. eigenvalues --   -0.19875  -0.18178  -0.15216
  Beta virt. eigenvalues --    0.07171   0.07729   0.08671   0.09089   0.10321
  Beta virt. eigenvalues --    0.10394   0.11105   0.11890   0.12116   0.12949
  Beta virt. eigenvalues --    0.13102   0.13553   0.14139   0.15039   0.15296

 Mulliken charges and spin densities:
               1          2
     1  C   -0.133544  -0.446694
     2  S    0.711785  -0.549037
     3  O   -0.208412   0.041605
     4  O   -0.103879   0.000743
     5  C    0.530047  -1.055517
     6  C    0.807583  -1.008590
     7  C   -0.174829  -0.029486
     8  C    0.841418  -1.368824
     9  C   -0.587809   0.362719
    10  C   -0.178013  -0.158221
    11  N   -0.456663   0.269594
    12  H    0.165410   0.057552
    13  H   -0.152334   0.338076
    14  H   -0.023320   0.257279
    15  H   -0.453323   0.643388
    16  H   -0.406268   0.588049
    17  H   -0.429255   0.614308
    18  H    0.186702  -0.030290
    19  H   -0.174996   0.305731
    20  H   -0.044932   0.202816
    21  H   -0.102746   0.273957
    22  H    0.135381   0.023919
    23  H   -0.461876   0.655627
    24  H    0.073383   0.110949
    25  H    0.020860   0.247453
    26  H   -0.380372   0.652893
 Sum of Mulliken charges =  -1.00000   1.00000

 Dipole moment (field-independent basis, Debye):
    X=              3.0797    Y=             -4.3217    Z=             -2.7587  Tot=              5.9809
 Quadrupole moment (field-independent basis, Debye-Ang):
   XX=           -120.0269   YY=           -121.3735   ZZ=           -118.3132
   XY=              4.4050   XZ=              8.2697   YZ=             -6.1234

 Summary of Natural Population Analysis:

                                       Natural Population
                Natural  -----------------------------------------------
    Atom  No    Charge         Core      Valence    Rydberg      Total
 -----------------------------------------------------------------------
      C    1   -0.39404      0.99960     2.38670    0.00774     3.39404
      S    2    1.01702      4.99917     1.89207    0.09175     6.98298
      O    3   -0.47805      0.99991     3.47252    0.00561     4.47805
      O    4   -0.47440      0.99991     3.46869    0.00580     4.47440
      C    5   -0.00845      0.99953     1.98770    0.02122     3.00845
      C    6   -0.20714      0.99956     2.19268    0.01491     3.20714
      C    7   -0.19358      0.99962     2.18493    0.00903     3.19358
      C    8   -0.18808      0.99963     2.18025    0.00820     3.18808
      C    9   -0.19453      0.99962     2.18635    0.00856     3.19453
      C   10   -0.21161      0.99956     2.19921    0.01284     3.21161
      N   11   -0.43414      0.99973     2.92169    0.01272     3.93414
      H   12    0.11443      0.00000     0.38457    0.00100     0.38557
      H   13    0.11527      0.00000     0.38348    0.00125     0.38473
      H   14    0.12697      0.00000     0.37166    0.00137     0.37303
      H   15    0.10763      0.00000     0.39029    0.00209     0.39237
      H   16    0.10943      0.00000     0.38569    0.00488     0.39057
      H   17    0.10080      0.00000     0.39796    0.00124     0.39920
      H   18    0.10489      0.00000     0.39358    0.00153     0.39511
      H   19    0.09519      0.00000     0.40320    0.00161     0.40481
      H   20    0.09720      0.00000     0.40192    0.00088     0.40280
      H   21    0.09783      0.00000     0.40126    0.00091     0.40217
      H   22    0.10562      0.00000     0.39302    0.00136     0.39438
      H   23    0.10792      0.00000     0.38959    0.00250     0.39208
      H   24    0.10980      0.00000     0.38896    0.00124     0.39020
      H   25    0.18494      0.00000     0.31282    0.00225     0.31506
      H   26    0.18911      0.00000     0.30366    0.00723     0.31089
 =======================================================================
   * Total *    0.00000     14.99584    32.77445    0.22971    48.00000

 Normal termination of Gaussian 16 at Tue Dec  8 19:59:56 2020.
