 Gaussian 16, Revision A.03,

 -----------------------------------------------------------
 # opt freq B3LYP/6-31G(d) empiricaldispersion=gd3bj scf=xqc
 -----------------------------------------------------------

 ------------------------------
 CID_79303980_JID_7321_neutraal
 ------------------------------
 Symbolic Z-matrix:
 Charge =  0 Multiplicity = 1

 SCF Done:  E(RB3LYP) =  -767.206213577     A.U. after   14 cycles
 SCF Done:  E(RB3LYP) =  -767.212197753     A.U. after   12 cycles
 SCF Done:  E(RB3LYP) =  -767.211071156     A.U. after   12 cycles
 SCF Done:  E(RB3LYP) =  -767.213352111     A.U. after   12 cycles
 SCF Done:  E(RB3LYP) =  -767.213699112     A.U. after   11 cycles
 SCF Done:  E(RB3LYP) =  -767.213774453     A.U. after   11 cycles
 SCF Done:  E(RB3LYP) =  -767.213972030     A.U. after   11 cycles
 SCF Done:  E(RB3LYP) =  -767.214082368     A.U. after   11 cycles
 SCF Done:  E(RB3LYP) =  -767.214265197     A.U. after   12 cycles
 SCF Done:  E(RB3LYP) =  -767.214158710     A.U. after   12 cycles
 SCF Done:  E(RB3LYP) =  -767.216182338     A.U. after    8 cycles
 SCF Done:  E(RB3LYP) =  -767.216184818     A.U. after    9 cycles
 SCF Done:  E(RB3LYP) =  -767.216185798     A.U. after    9 cycles
 SCF Done:  E(RB3LYP) =  -767.216186066     A.U. after    7 cycles
 SCF Done:  E(RB3LYP) =  -767.216186117     A.U. after    7 cycles
 Optimization completed.
    -- Stationary point found.
 Normal termination of Gaussian 16 at Mon Dec 14 17:08:00 2020.

 --------------------------------------------------------------------
 #N Geom=AllCheck Guess=TCheck SCRF=Check GenChk RB3LYP/6-31G(d) Freq
 --------------------------------------------------------------------

 Structure from the checkpoint file:  "JID_7321.chk"
 ------------------------------
 CID_79303980_JID_7321_neutraal
 ------------------------------
 Charge =  0 Multiplicity = 1

 SCF Done:  E(RB3LYP) =  -767.216186117     A.U. after    1 cycles

  Exact polarizability: 159.440  -1.950 165.778   3.472  -7.653 135.252
 Approx polarizability: 217.406  -6.123 222.164   9.648 -12.691 205.053

                      1                      2                      3
                      A                      A                      A
 Frequencies --     29.5001                36.8335                44.8187
 Red. masses --      3.5664                 4.3046                 3.0634
 Frc consts  --      0.0018                 0.0034                 0.0036
 IR Inten    --      0.7631                 2.2481                 0.1172

                      4                      5                      6
                      A                      A                      A
 Frequencies --     57.8879                64.8371                92.2180
 Red. masses --      4.2647                 3.1223                 3.2140
 Frc consts  --      0.0084                 0.0077                 0.0161
 IR Inten    --      0.1970                 0.8354                 1.3964

                      7                      8                      9
                      A                      A                      A
 Frequencies --    100.4373               126.7899               134.2548
 Red. masses --      1.3508                 3.4111                 3.4479
 Frc consts  --      0.0080                 0.0323                 0.0366
 IR Inten    --      1.0547                 4.2868                 5.3160

                     10                     11                     12
                      A                      A                      A
 Frequencies --    143.2349               163.2527               212.1413
 Red. masses --      2.5967                 2.8054                 2.2776
 Frc consts  --      0.0314                 0.0441                 0.0604
 IR Inten    --      0.6517                 1.5505                 8.9611

                     13                     14                     15
                      A                      A                      A
 Frequencies --    221.4994               240.5550               243.4408
 Red. masses --      1.5010                 1.2906                 1.9551
 Frc consts  --      0.0434                 0.0440                 0.0683
 IR Inten    --      6.3216                 3.2202                 8.3537

                     16                     17                     18
                      A                      A                      A
 Frequencies --    259.3143               266.3914               313.8259
 Red. masses --      1.6539                 1.7544                 1.8031
 Frc consts  --      0.0655                 0.0734                 0.1046
 IR Inten    --      3.8651                 2.7334                14.3767

                     19                     20                     21
                      A                      A                      A
 Frequencies --    327.8060               333.9072               357.0894
 Red. masses --      2.1736                 2.5193                 3.0652
 Frc consts  --      0.1376                 0.1655                 0.2303
 IR Inten    --      6.5653                 3.4097                 8.1518

                     22                     23                     24
                      A                      A                      A
 Frequencies --    394.0649               414.0252               431.9059
 Red. masses --      2.3307                 2.1509                 3.0158
 Frc consts  --      0.2132                 0.2172                 0.3315
 IR Inten    --      1.4262                 0.4783                 4.7665

                     25                     26                     27
                      A                      A                      A
 Frequencies --    485.8794               487.9794               548.6208
 Red. masses --      1.5263                 1.8240                 2.2687
 Frc consts  --      0.2123                 0.2559                 0.4023
 IR Inten    --     27.6916                 5.1475                 5.3116

                     28                     29                     30
                      A                      A                      A
 Frequencies --    577.9244               580.3188               583.2599
 Red. masses --      2.8541                 3.1441                 3.4232
 Frc consts  --      0.5616                 0.6238                 0.6861
 IR Inten    --      4.5720                14.4786                17.6638

                     31                     32                     33
                      A                      A                      A
 Frequencies --    614.5024               648.9098               692.6243
 Red. masses --      1.9003                 3.0642                 3.0782
 Frc consts  --      0.4228                 0.7602                 0.8701
 IR Inten    --     39.7717                40.4605                 7.2575

                     34                     35                     36
                      A                      A                      A
 Frequencies --    760.1364               823.2030               846.8514
 Red. masses --      2.9336                 2.3133                 2.5251
 Frc consts  --      0.9987                 0.9236                 1.0670
 IR Inten    --      4.1396                 6.7121                20.2107

                     37                     38                     39
                      A                      A                      A
 Frequencies --    858.5874               885.8934               895.8055
 Red. masses --      3.0187                 2.2233                 1.8705
 Frc consts  --      1.3111                 1.0280                 0.8844
 IR Inten    --     16.6776                32.8758                17.5653

                     40                     41                     42
                      A                      A                      A
 Frequencies --    919.2252               938.7249               944.0916
 Red. masses --      1.8405                 2.4469                 1.7234
 Frc consts  --      0.9163                 1.2704                 0.9050
 IR Inten    --     81.9772                 2.2737                99.2834

                     43                     44                     45
                      A                      A                      A
 Frequencies --    960.2954               984.5416               995.5574
 Red. masses --      2.2422                 1.8881                 2.4236
 Frc consts  --      1.2182                 1.0783                 1.4153
 IR Inten    --     19.2550                10.0446                14.3241

                     46                     47                     48
                      A                      A                      A
 Frequencies --   1014.9104              1046.9899              1063.6860
 Red. masses --      1.8809                 1.9444                 1.7942
 Frc consts  --      1.1415                 1.2558                 1.1961
 IR Inten    --     10.3373                22.6229                51.6401

                     49                     50                     51
                      A                      A                      A
 Frequencies --   1069.9637              1102.1656              1106.8719
 Red. masses --      1.8136                 2.1587                 2.0965
 Frc consts  --      1.2233                 1.5450                 1.5134
 IR Inten    --     21.9573                 7.5911                 9.5664

                     52                     53                     54
                      A                      A                      A
 Frequencies --   1116.5947              1123.8351              1146.2086
 Red. masses --      1.7585                 2.3981                 1.4838
 Frc consts  --      1.2918                 1.7845                 1.1486
 IR Inten    --      6.6047                 0.0034                24.8114

                     55                     56                     57
                      A                      A                      A
 Frequencies --   1158.9392              1159.5005              1175.5016
 Red. masses --      1.5959                 1.3323                 1.5321
 Frc consts  --      1.2630                 1.0553                 1.2474
 IR Inten    --     13.8013                 3.3622                 3.7219

                     58                     59                     60
                      A                      A                      A
 Frequencies --   1190.5607              1207.1049              1214.4675
 Red. masses --      1.8577                 2.2866                 1.4128
 Frc consts  --      1.5514                 1.9630                 1.2278
 IR Inten    --     12.2453                 6.2872                 7.4223

                     61                     62                     63
                      A                      A                      A
 Frequencies --   1223.7492              1235.2687              1248.5418
 Red. masses --      1.3245                 1.4061                 2.1418
 Frc consts  --      1.1687                 1.2641                 1.9671
 IR Inten    --      9.2486                16.8095                23.3992

                     64                     65                     66
                      A                      A                      A
 Frequencies --   1259.9934              1265.5594              1287.2415
 Red. masses --      1.7550                 1.9245                 1.4356
 Frc consts  --      1.6416                 1.8160                 1.4016
 IR Inten    --      3.4499                21.1784                 1.9980

                     67                     68                     69
                      A                      A                      A
 Frequencies --   1307.7240              1334.1114              1346.9134
 Red. masses --      1.4671                 1.4583                 1.5845
 Frc consts  --      1.4782                 1.5292                 1.6937
 IR Inten    --     97.4189                 3.0010                 9.3481

                     70                     71                     72
                      A                      A                      A
 Frequencies --   1358.2577              1365.6255              1376.8002
 Red. masses --      1.3171                 1.4157                 1.3809
 Frc consts  --      1.4316                 1.5556                 1.5422
 IR Inten    --      0.8028                27.3900                17.0753

                     73                     74                     75
                      A                      A                      A
 Frequencies --   1380.4163              1386.0163              1404.0171
 Red. masses --      1.4152                 1.3642                 1.3173
 Frc consts  --      1.5889                 1.5440                 1.5300
 IR Inten    --      2.9825                 9.9472                 6.9178

                     76                     77                     78
                      A                      A                      A
 Frequencies --   1410.3599              1414.2769              1424.4409
 Red. masses --      1.4496                 1.3918                 1.2993
 Frc consts  --      1.6989                 1.6402                 1.5533
 IR Inten    --     15.5981                15.9565                22.2620

                     79                     80                     81
                      A                      A                      A
 Frequencies --   1447.9478              1477.7287              1485.6836
 Red. masses --      1.5169                 1.6114                 1.1903
 Frc consts  --      1.8738                 2.0732                 1.5479
 IR Inten    --     56.3853                30.4806                 0.7752

                     82                     83                     84
                      A                      A                      A
 Frequencies --   1489.3666              1499.7305              1508.0885
 Red. masses --      1.1542                 1.2932                 1.1000
 Frc consts  --      1.5084                 1.7138                 1.4740
 IR Inten    --      9.6212                34.2611                 7.2273

                     85                     86                     87
                      A                      A                      A
 Frequencies --   1513.1435              1518.3204              1522.0604
 Red. masses --      1.1112                 1.0607                 1.0749
 Frc consts  --      1.4991                 1.4407                 1.4672
 IR Inten    --     26.7069                 9.3689                 2.8864

                     88                     89                     90
                      A                      A                      A
 Frequencies --   1524.7263              1529.2081              1531.3248
 Red. masses --      1.1017                 1.0734                 1.0591
 Frc consts  --      1.5090                 1.4789                 1.4633
 IR Inten    --      9.2847                 7.8496                 7.2676

                     91                     92                     93
                      A                      A                      A
 Frequencies --   1535.4458              1538.5388              1549.2476
 Red. masses --      1.0627                 1.0761                 1.0884
 Frc consts  --      1.4762                 1.5007                 1.5392
 IR Inten    --      8.7257                 0.6049                32.4954

                     94                     95                     96
                      A                      A                      A
 Frequencies --   1553.8248              1558.0905              1710.9184
 Red. masses --      1.0919                 1.0632                 1.0819
 Frc consts  --      1.5533                 1.5207                 1.8659
 IR Inten    --      5.3000                 5.1113                17.9373

                     97                     98                     99
                      A                      A                      A
 Frequencies --   1779.0739              2928.3453              2940.5731
 Red. masses --      7.8223                 1.0727                 1.0625
 Frc consts  --     14.5873                 5.4197                 5.4128
 IR Inten    --    274.5686                63.0262               124.5416

                    100                    101                    102
                      A                      A                      A
 Frequencies --   2953.8955              2960.6494              2975.4657
 Red. masses --      1.0614                 1.0825                 1.0817
 Frc consts  --      5.4563                 5.5907                 5.6426
 IR Inten    --     78.6475                88.6444                33.4421

                    103                    104                    105
                      A                      A                      A
 Frequencies --   3020.8487              3026.6018              3031.4319
 Red. masses --      1.0523                 1.0605                 1.0686
 Frc consts  --      5.6580                 5.7234                 5.7858
 IR Inten    --     45.1942                58.9614                19.7185

                    106                    107                    108
                      A                      A                      A
 Frequencies --   3057.4011              3063.2422              3068.3896
 Red. masses --      1.0850                 1.1040                 1.0712
 Frc consts  --      5.9755                 6.1036                 5.9419
 IR Inten    --     36.7621                15.6946                43.8332

                    109                    110                    111
                      A                      A                      A
 Frequencies --   3072.6678              3073.7264              3079.1078
 Red. masses --      1.0714                 1.0701                 1.0628
 Frc consts  --      5.9600                 5.9567                 5.9366
 IR Inten    --     37.6472                55.5586                35.3010

                    112                    113                    114
                      A                      A                      A
 Frequencies --   3082.0902              3099.2968              3106.4603
 Red. masses --      1.0898                 1.0734                 1.0828
 Frc consts  --      6.0996                 6.0748                 6.1562
 IR Inten    --     67.6546                32.6697                20.4690

                    115                    116                    117
                      A                      A                      A
 Frequencies --   3113.9904              3125.6178              3132.7134
 Red. masses --      1.1035                 1.1051                 1.0966
 Frc consts  --      6.3044                 6.3607                 6.3409
 IR Inten    --     27.3215                43.0313                19.4093

                    118                    119                    120
                      A                      A                      A
 Frequencies --   3141.9554              3146.5730              3147.8327
 Red. masses --      1.1012                 1.1042                 1.0967
 Frc consts  --      6.4049                 6.4410                 6.4025
 IR Inten    --     36.1650                17.1668                13.3354

                    121                    122                    123
                      A                      A                      A
 Frequencies --   3466.9091              3552.5990              3606.0046
 Red. masses --      1.0498                 1.0914                 1.0763
 Frc consts  --      7.4343                 8.1160                 8.2457
 IR Inten    --      1.8607                 1.4506                21.4495

 - Thermochemistry -
 -------------------
 Temperature   298.150 Kelvin.  Pressure   1.00000 Atm.
 Atom     1 has atomic number  6 and mass  12.00000

 Molecular mass:   242.21066 amu.
 Principal axes and moments of inertia in atomic units:
                           1         2         3
     Eigenvalues --  3547.592424514.200396362.43770
           X            0.99978  -0.01777  -0.01078
           Y            0.01763   0.99976  -0.01305
           Z            0.01101   0.01286   0.99986
 This molecule is an asymmetric top.
 Rotational symmetry number  1.
 Warning -- assumption of classical behavior for rotation
           may cause significant error
 Rotational temperatures (Kelvin)      0.02441     0.01919     0.01361
 Rotational constants (GHZ):           0.50872     0.39979     0.28366
 Zero-point vibrational energy    1030083.0 (Joules/Mol)
                                  246.19575 (Kcal/Mol)
 Warning -- explicit consideration of  31 degrees of freedom as
           vibrations may cause significant error
 Vibrational temperatures:     42.44    53.00    64.48    83.29    93.29
          (Kelvin)            132.68   144.51   182.42   193.16   206.08
                              234.88   305.22   318.69   346.11   350.26
                              373.10   383.28   451.53   471.64   480.42
                              513.77   566.97   595.69   621.42   699.07
                              702.09   789.34   831.50   834.95   839.18
                              884.13   933.64   996.53  1093.67  1184.41
                             1218.43  1235.32  1274.60  1288.86  1322.56
                             1350.62  1358.34  1381.65  1416.54  1432.39
                             1460.23  1506.38  1530.41  1539.44  1585.77
                             1592.54  1606.53  1616.95  1649.14  1667.45
                             1668.26  1691.28  1712.95  1736.75  1747.35
                             1760.70  1777.28  1796.37  1812.85  1820.86
                             1852.05  1881.52  1919.49  1937.91  1954.23
                             1964.83  1980.91  1986.11  1994.17  2020.07
                             2029.19  2034.83  2049.45  2083.27  2126.12
                             2137.57  2142.87  2157.78  2169.80  2177.08
                             2184.52  2189.91  2193.74  2200.19  2203.23
                             2209.16  2213.61  2229.02  2235.61  2241.74
                             2461.63  2559.69  4213.24  4230.83  4250.00
                             4259.71  4281.03  4346.33  4354.60  4361.55
                             4398.92  4407.32  4414.73  4420.88  4422.41
                             4430.15  4434.44  4459.20  4469.50  4480.34
                             4497.07  4507.28  4520.57  4527.22  4529.03
                             4988.11  5111.40  5188.24

 Zero-point correction=                           0.392338 (Hartree/Particle)
 Thermal correction to Energy=                    0.411760
 Thermal correction to Enthalpy=                  0.412704
 Thermal correction to Gibbs Free Energy=         0.343809
 Sum of electronic and zero-point Energies=           -766.823848
 Sum of electronic and thermal Energies=              -766.804427
 Sum of electronic and thermal Enthalpies=            -766.803482
 Sum of electronic and thermal Free Energies=         -766.872377

                     E (Thermal)             CV                S
                      KCal/Mol        Cal/Mol-Kelvin    Cal/Mol-Kelvin
 Total                  258.383             72.199            145.001
 Electronic               0.000              0.000              0.000
 Translational            0.889              2.981             42.355
 Rotational               0.889              2.981             32.988
 Vibrational            256.606             66.237             69.658
 Vibration     1          0.593              1.984              5.863
 Vibration     2          0.594              1.982              5.423
 Vibration     3          0.595              1.979              5.034
 Vibration     4          0.596              1.974              4.528
 Vibration     5          0.597              1.971              4.304
 Vibration     6          0.602              1.955              3.612
 Vibration     7          0.604              1.949              3.446
 Vibration     8          0.611              1.926              2.994
 Vibration     9          0.613              1.919              2.884
 Vibration    10          0.616              1.910              2.760
 Vibration    11          0.623              1.888              2.512
 Vibration    12          0.643              1.822              2.025
 Vibration    13          0.648              1.808              1.947
 Vibration    14          0.658              1.778              1.799
 Vibration    15          0.659              1.774              1.778
 Vibration    16          0.668              1.747              1.666
 Vibration    17          0.672              1.735              1.620
 Vibration    18          0.702              1.647              1.342
 Vibration    19          0.711              1.620              1.271
 Vibration    20          0.715              1.608              1.241
 Vibration    21          0.732              1.561              1.135
 Vibration    22          0.761              1.483              0.985
 Vibration    23          0.778              1.440              0.913
 Vibration    24          0.793              1.401              0.852
 Vibration    25          0.842              1.281              0.694
 Vibration    26          0.844              1.277              0.689
 Vibration    27          0.904              1.143              0.547
 Vibration    28          0.934              1.079              0.489
 Vibration    29          0.937              1.074              0.485
 Vibration    30          0.940              1.068              0.479
 Vibration    31          0.974              1.001              0.425

 Optimization completed.
    -- Stationary point found.
 Normal termination of Gaussian 16 at Mon Dec 14 17:31:29 2020.

 ----------------------------------------------------------------------
 # B3LYP/6-311++G(d,p) empiricaldispersion=gd3bj scf=xqc pop=npa geom=c
 heck
 ----------------------------------------------------------------------

 --------------------------------------
 CID_79303980_JID_7321_Energie_neutraal
 --------------------------------------
 Structure from the checkpoint file:  "JID_7321.chk"
 Charge =  0 Multiplicity = 1

 SCF Done:  E(RB3LYP) =  -767.443112301     A.U. after   15 cycles
 Normal termination of Gaussian 16 at Mon Dec 14 17:42:57 2020.

 ----------------------------------------------------------------------
 # B3LYP/6-311++G(d,p) empiricaldispersion=gd3bj scf=xqc pop=npa geom=c
 heck
 ----------------------------------------------------------------------

 ------------------------------------
 CID_79303980_JID_7321_Energie_kation
 ------------------------------------
 Structure from the checkpoint file:  "JID_7321.chk"
 Charge =  1 Multiplicity = 2

 SCF Done:  E(UB3LYP) =  -767.169391409     A.U. after   28 cycles
 Normal termination of Gaussian 16 at Mon Dec 14 18:12:18 2020.
 Gaussian 16:  ES64L-G16RevA.03 25-Dec-2016

 ----------------------------------------------------------------------
 # B3LYP/6-311++G(d,p) empiricaldispersion=gd3bj scf=xqc pop=npa geom=c
 heck
 ----------------------------------------------------------------------

 -----------------------------------
 CID_79303980_JID_7321_Energie_anion
 -----------------------------------
 Structure from the checkpoint file:  "JID_7321.chk"
 Charge = -1 Multiplicity = 2

                         Standard orientation:
 ---------------------------------------------------------------------
 Center     Atomic      Atomic             Coordinates (Angstroms)
 Number     Number       Type             X           Y           Z
 ---------------------------------------------------------------------
      1          6           0       -1.630059   -2.996193    0.839415
      2          7           0       -2.554815   -2.272050   -0.013452
      3          6           0       -2.479918   -0.948021   -0.364375
      4          8           0       -3.392584   -0.411442   -0.986771
      5          6           0       -1.206136   -0.235372    0.049326
      6          6           0       -1.126913    1.207300   -0.454917
      7          6           0       -2.004776    2.120576    0.427613
      8          7           0       -1.558753    2.281916    1.816560
      9          7           0        0.285429    1.656007   -0.459932
     10          6           0        0.426904    3.095073   -0.689591
     11          6           0        1.136402    0.905477   -1.403596
     12          6           0        2.276882    0.092091   -0.752784
     13          6           0        2.905559    0.764070    0.491230
     14          6           0        2.413313   -0.090332    1.669022
     15          6           0        2.365950   -1.484335    1.048267
     16          7           0        1.812095   -1.232017   -0.279885
     17          6           0        1.993561   -2.307833   -1.232132
     18          1           0       -1.732937   -2.733610    1.902584
     19          1           0       -0.596658   -2.802304    0.539348
     20          1           0       -1.817718   -4.067756    0.732985
     21          1           0       -3.447126   -2.697363   -0.229525
     22          1           0       -1.131736   -0.239621    1.146370
     23          1           0       -0.333126   -0.811465   -0.273099
     24          1           0       -1.547172    1.245390   -1.474816
     25          1           0       -2.083210    3.111652   -0.031638
     26          1           0       -3.015173    1.704767    0.420732
     27          1           0       -1.832800    1.470942    2.366608
     28          1           0       -0.539219    2.296795    1.835503
     29          1           0       -0.013866    3.672249    0.126388
     30          1           0        1.490531    3.346780   -0.725991
     31          1           0       -0.034090    3.433038   -1.636765
     32          1           0        0.528152    0.228238   -2.017561
     33          1           0        1.591624    1.611124   -2.110842
     34          1           0        3.049213   -0.050173   -1.528162
     35          1           0        2.614711    1.811011    0.589660
     36          1           0        3.998376    0.717252    0.426843
     37          1           0        1.404640    0.224014    1.955683
     38          1           0        3.063498   -0.035245    2.547189
     39          1           0        1.733231   -2.191573    1.599364
     40          1           0        3.384441   -1.917453    0.998843
     41          1           0        1.479405   -2.070784   -2.169873
     42          1           0        3.058573   -2.503671   -1.465023
     43          1           0        1.556803   -3.232703   -0.838539
 ---------------------------------------------------------------------

 SCF Done:  E(UB3LYP) =  -767.433971057     A.U. after   33 cycles
 SCF Done:  E(UB3LYP) =  -767.433971057     a.u. after    1 cycles

 The electronic state is 2-A.
 Alpha  occ. eigenvalues --  -18.99064 -14.23847 -14.21960 -14.21012 -14.20204
 Alpha  occ. eigenvalues --  -10.17549 -10.10712 -10.10709 -10.10615 -10.10488
 Alpha  occ. eigenvalues --  -10.10402 -10.09707 -10.09563 -10.09494 -10.07423
 Alpha  occ. eigenvalues --  -10.07237 -10.07194  -0.94084  -0.84845  -0.83281
 Alpha  occ. eigenvalues --   -0.82353  -0.78754  -0.69522  -0.68281  -0.66202
 Alpha  occ. eigenvalues --   -0.61279  -0.60238  -0.59470  -0.58161  -0.55130
 Alpha  occ. eigenvalues --   -0.50062  -0.49181  -0.47049  -0.45091  -0.42135
 Alpha  occ. eigenvalues --   -0.40572  -0.40195  -0.39943  -0.39201  -0.38275
 Alpha  occ. eigenvalues --   -0.36902  -0.36407  -0.35350  -0.35212  -0.33993
 Alpha  occ. eigenvalues --   -0.33091  -0.33059  -0.31857  -0.30916  -0.30345
 Alpha  occ. eigenvalues --   -0.29781  -0.29314  -0.28912  -0.28035  -0.27618
 Alpha  occ. eigenvalues --   -0.26551  -0.25869  -0.25368  -0.24800  -0.24502
 Alpha  occ. eigenvalues --   -0.23907  -0.23276  -0.16566  -0.15940  -0.15426
 Alpha  occ. eigenvalues --   -0.13669  -0.12067   0.03902
 Alpha virt. eigenvalues --    0.05751   0.06581   0.06752   0.07856   0.08194
 Alpha virt. eigenvalues --    0.08642   0.08959   0.09214   0.10421   0.10610
 Alpha virt. eigenvalues --    0.10854   0.11188   0.11341   0.11615   0.11887

  Beta  occ. eigenvalues --  -18.99064 -14.23834 -14.21953 -14.21005 -14.20192
  Beta  occ. eigenvalues --  -10.17550 -10.10712 -10.10700 -10.10609 -10.10429
  Beta  occ. eigenvalues --  -10.10395 -10.09705 -10.09539 -10.09464 -10.07410
  Beta  occ. eigenvalues --  -10.07225 -10.07184  -0.94079  -0.84831  -0.83267
  Beta  occ. eigenvalues --   -0.82327  -0.78733  -0.69498  -0.68264  -0.66179
  Beta  occ. eigenvalues --   -0.61212  -0.60209  -0.59427  -0.58112  -0.55103
  Beta  occ. eigenvalues --   -0.50036  -0.49133  -0.47016  -0.45063  -0.42120
  Beta  occ. eigenvalues --   -0.40527  -0.40172  -0.39900  -0.39146  -0.38245
  Beta  occ. eigenvalues --   -0.36877  -0.36390  -0.35324  -0.35187  -0.33971
  Beta  occ. eigenvalues --   -0.33067  -0.33035  -0.31832  -0.30894  -0.30300
  Beta  occ. eigenvalues --   -0.29746  -0.29295  -0.28891  -0.28018  -0.27601
  Beta  occ. eigenvalues --   -0.26525  -0.25845  -0.25353  -0.24771  -0.24485
  Beta  occ. eigenvalues --   -0.23886  -0.23250  -0.16558  -0.15919  -0.15413
  Beta  occ. eigenvalues --   -0.13633  -0.12020
  Beta virt. eigenvalues --    0.05966   0.06692   0.07021   0.07234   0.08428
  Beta virt. eigenvalues --    0.08571   0.09085   0.09149   0.09498   0.10670
  Beta virt. eigenvalues --    0.10893   0.11086   0.11468   0.11516   0.11698

 Mulliken charges and spin densities:
               1          2
     1  C    0.330936  -0.756899
     2  N   -0.302839   0.063481
     3  C   -0.916241   0.565477
     4  O   -0.320010   0.000470
     5  C   -0.074820   0.062102
     6  C    0.313124  -0.710602
     7  C   -0.676168  -0.119146
     8  N   -0.241971  -0.024782
     9  N    0.379224   0.033256
    10  C   -0.136552  -0.157157
    11  C    0.007142  -0.605646
    12  C   -0.542456   0.797700
    13  C    0.218640  -0.820652
    14  C   -0.191474  -0.095916
    15  C    0.397500  -0.721639
    16  N    0.113365  -0.028544
    17  C    0.434514  -0.749508
    18  H   -0.436752   0.614778
    19  H    1.111367  -0.931921
    20  H   -0.983352   1.163332
    21  H    0.110365   0.206620
    22  H    0.409315  -0.246675
    23  H    0.526997  -0.267378
    24  H    0.195047  -0.009898
    25  H    0.159034  -0.002068
    26  H    0.163261   0.022626
    27  H    0.034323   0.199432
    28  H    0.200769   0.014180
    29  H    0.104208   0.043264
    30  H    0.017667   0.120937
    31  H    0.127422   0.008378
    32  H    0.140452   0.031188
    33  H    0.012689   0.112739
    34  H   -0.200600   0.395574
    35  H    0.057779   0.032662
    36  H   -0.249870   0.410888
    37  H    0.025284   0.129642
    38  H   -0.233965   0.430549
    39  H   -0.360543   0.515082
    40  H   -0.033154   0.170902
    41  H    0.034047   0.098002
    42  H   -0.317074   0.451898
    43  H   -0.406629   0.553270
 Sum of Mulliken charges =  -1.00000   1.00000

 Dipole moment (field-independent basis, Debye):
    X=              0.3502    Y=              6.6201    Z=             -2.4751  Tot=              7.0764
 Quadrupole moment (field-independent basis, Debye-Ang):
   XX=           -180.0401   YY=           -175.8922   ZZ=           -150.1065
   XY=              0.9049   XZ=              0.1242   YZ=              0.8577

 Summary of Natural Population Analysis:

                                       Natural Population
                Natural  -----------------------------------------------
    Atom  No    Charge         Core      Valence    Rydberg      Total
 -----------------------------------------------------------------------
      C    1   -0.18155      0.99964     2.17369    0.00822     3.18155
      N    2   -0.31616      0.99968     2.80636    0.01011     3.81616
      C    3    0.34714      0.99966     1.63054    0.02266     2.65286
      O    4   -0.33385      0.99988     3.32874    0.00523     4.33385
      C    5   -0.26262      0.99954     2.25259    0.01049     3.26262
      C    6   -0.00284      0.99958     1.99155    0.01171     3.00284
      C    7   -0.09873      0.99960     2.08780    0.01132     3.09873
      N    8   -0.42396      0.99978     2.91490    0.00928     3.92396
      N    9   -0.29747      0.99971     2.78574    0.01203     3.79747
      C   10   -0.17639      0.99964     2.17035    0.00639     3.17639
      C   11   -0.08457      0.99958     2.07341    0.01158     3.08457
      C   12   -0.00246      0.99958     1.98929    0.01360     3.00246
      C   13   -0.19280      0.99961     2.18451    0.00867     3.19280
      C   14   -0.19406      0.99962     2.18578    0.00866     3.19406
      C   15   -0.07760      0.99961     2.06752    0.01047     3.07760
      N   16   -0.29811      0.99971     2.78388    0.01452     3.79811
      C   17   -0.17299      0.99964     2.16488    0.00848     3.17299
      H   18    0.09242      0.00000     0.40532    0.00225     0.40758
      H   19    0.10060      0.00000     0.39696    0.00244     0.39940
      H   20    0.10379      0.00000     0.39339    0.00281     0.39621
      H   21    0.19301      0.00000     0.30489    0.00210     0.30699
      H   22    0.10855      0.00000     0.38931    0.00214     0.39145
      H   23    0.13274      0.00000     0.36389    0.00337     0.36726
      H   24    0.09345      0.00000     0.40512    0.00144     0.40655
      H   25    0.08746      0.00000     0.41140    0.00114     0.41254
      H   26    0.10635      0.00000     0.39258    0.00108     0.39365
      H   27    0.17366      0.00000     0.32442    0.00192     0.32634
      H   28    0.17456      0.00000     0.32275    0.00268     0.32544
      H   29    0.09585      0.00000     0.40312    0.00103     0.40415
      H   30    0.09519      0.00000     0.40387    0.00093     0.40481
      H   31    0.08098      0.00000     0.41775    0.00127     0.41902
      H   32    0.09749      0.00000     0.40137    0.00114     0.40251
      H   33    0.09119      0.00000     0.40762    0.00119     0.40881
      H   34    0.08791      0.00000     0.41059    0.00150     0.41209
      H   35    0.10238      0.00000     0.39633    0.00129     0.39762
      H   36    0.09819      0.00000     0.40049    0.00132     0.40181
      H   37    0.09871      0.00000     0.39883    0.00246     0.40129
      H   38    0.09979      0.00000     0.39928    0.00093     0.40021
      H   39    0.09752      0.00000     0.40083    0.00164     0.40248
      H   40    0.08104      0.00000     0.41741    0.00155     0.41896
      H   41    0.09414      0.00000     0.40481    0.00105     0.40586
      H   42    0.08337      0.00000     0.41505    0.00158     0.41663
      H   43    0.09864      0.00000     0.40002    0.00134     0.40136
 =======================================================================
   * Total *    0.00000     16.99406    49.77894    0.22699    67.00000

 Normal termination of Gaussian 16 at Mon Dec 14 18:45:35 2020.
