 Gaussian 16, Revision A.03,

 -----------------------------------------------------------
 # opt freq B3LYP/6-31G(d) empiricaldispersion=gd3bj scf=xqc
 -----------------------------------------------------------

 ------------------------------
 CID_21549172_JID_7783_neutraal
 ------------------------------
 Symbolic Z-matrix:
 Charge =  0 Multiplicity = 1

 SCF Done:  E(RB3LYP) =  -770.046509313     A.U. after   15 cycles
 SCF Done:  E(RB3LYP) =  -770.049902966     A.U. after   12 cycles
 SCF Done:  E(RB3LYP) =  -770.050186267     A.U. after   11 cycles
 SCF Done:  E(RB3LYP) =  -770.049167144     A.U. after   13 cycles
 SCF Done:  E(RB3LYP) =  -770.050527048     A.U. after   11 cycles
 SCF Done:  E(RB3LYP) =  -770.050677644     A.U. after   12 cycles
 SCF Done:  E(RB3LYP) =  -770.050761001     A.U. after   12 cycles
 SCF Done:  E(RB3LYP) =  -770.050782446     A.U. after   10 cycles
 SCF Done:  E(RB3LYP) =  -770.050803611     A.U. after   11 cycles
 SCF Done:  E(RB3LYP) =  -770.050812874     A.U. after   10 cycles
 SCF Done:  E(RB3LYP) =  -770.050822527     A.U. after   10 cycles
 SCF Done:  E(RB3LYP) =  -770.050822896     A.U. after    8 cycles
 SCF Done:  E(RB3LYP) =  -770.050823205     A.U. after    9 cycles
 SCF Done:  E(RB3LYP) =  -770.050823292     A.U. after    8 cycles
 SCF Done:  E(RB3LYP) =  -770.050823325     A.U. after    7 cycles
 Optimization completed.
    -- Stationary point found.
 Normal termination of Gaussian 16 at Fri Dec 11 13:14:04 2020.

 --------------------------------------------------------------------
 #N Geom=AllCheck Guess=TCheck SCRF=Check GenChk RB3LYP/6-31G(d) Freq
 --------------------------------------------------------------------

 Structure from the checkpoint file:  "JID_7783.chk"
 ------------------------------
 CID_21549172_JID_7783_neutraal
 ------------------------------
 Charge =  0 Multiplicity = 1

 SCF Done:  E(RB3LYP) =  -770.050823325     A.U. after    1 cycles

  Exact polarizability: 230.981 -12.736 150.100   7.246   3.829  94.001
 Approx polarizability: 302.797 -17.839 236.434  18.573   7.104 156.314

                      1                      2                      3
                      A                      A                      A
 Frequencies --     14.3198                26.6339                34.8929
 Red. masses --      4.0091                 3.9525                 2.7072
 Frc consts  --      0.0005                 0.0017                 0.0019
 IR Inten    --      0.0550                 0.3781                 0.0848

                      4                      5                      6
                      A                      A                      A
 Frequencies --     58.3051                68.9796                84.7028
 Red. masses --      3.2646                 4.4156                 4.0595
 Frc consts  --      0.0065                 0.0124                 0.0172
 IR Inten    --      1.3301                 0.5680                 0.2365

                      7                      8                      9
                      A                      A                      A
 Frequencies --    100.4438               166.2006               203.5105
 Red. masses --      3.5884                 2.7903                 2.8866
 Frc consts  --      0.0213                 0.0454                 0.0704
 IR Inten    --      0.5541                 0.1199                 1.0763

                     10                     11                     12
                      A                      A                      A
 Frequencies --    216.1255               231.5919               233.5911
 Red. masses --      2.3894                 2.1772                 1.4609
 Frc consts  --      0.0658                 0.0688                 0.0470
 IR Inten    --      1.9553                 0.3002                 1.8346

                     13                     14                     15
                      A                      A                      A
 Frequencies --    257.1923               281.9712               290.0979
 Red. masses --      2.6126                 1.7930                 1.8351
 Frc consts  --      0.1018                 0.0840                 0.0910
 IR Inten    --      0.3625                 0.4813                 0.8524

                     16                     17                     18
                      A                      A                      A
 Frequencies --    294.7757               323.7485               332.8621
 Red. masses --      1.2111                 2.8296                 2.7258
 Frc consts  --      0.0620                 0.1747                 0.1779
 IR Inten    --      3.2735                 1.1553                 1.8567

                     19                     20                     21
                      A                      A                      A
 Frequencies --    359.4514               434.1309               446.4265
 Red. masses --      3.2990                 3.8462                 3.1978
 Frc consts  --      0.2511                 0.4271                 0.3755
 IR Inten    --     14.6415                 0.8984                 3.2456

                     22                     23                     24
                      A                      A                      A
 Frequencies --    455.3873               471.6050               485.2706
 Red. masses --      3.0505                 4.1377                 5.0760
 Frc consts  --      0.3727                 0.5422                 0.7043
 IR Inten    --      6.1505                 2.4674                 5.2181

                     25                     26                     27
                      A                      A                      A
 Frequencies --    548.2301               573.1745               595.8265
 Red. masses --      3.0920                 3.8300                 3.8335
 Frc consts  --      0.5475                 0.7413                 0.8018
 IR Inten    --      0.8507                 6.0980                 2.4299

                     28                     29                     30
                      A                      A                      A
 Frequencies --    641.7559               710.7192               735.0902
 Red. masses --      3.1418                 2.4579                 2.0725
 Frc consts  --      0.7624                 0.7315                 0.6598
 IR Inten    --      6.0951                 7.4992                 3.1596

                     31                     32                     33
                      A                      A                      A
 Frequencies --    750.6094               767.4284               784.2443
 Red. masses --      3.4600                 6.1764                 1.8614
 Frc consts  --      1.1486                 2.1432                 0.6745
 IR Inten    --      1.4866                 5.3871                 4.8568

                     34                     35                     36
                      A                      A                      A
 Frequencies --    812.2446               834.3519               876.1628
 Red. masses --      1.6404                 2.0000                 2.9477
 Frc consts  --      0.6376                 0.8203                 1.3332
 IR Inten    --     20.6117                 4.4462                14.5561

                     37                     38                     39
                      A                      A                      A
 Frequencies --    906.9611               909.0017               914.1314
 Red. masses --      2.0597                 1.4728                 1.6437
 Frc consts  --      0.9982                 0.7170                 0.8093
 IR Inten    --      0.3840                 2.6078                24.7150

                     40                     41                     42
                      A                      A                      A
 Frequencies --    923.4842               946.1268               967.4878
 Red. masses --      1.3886                 1.5308                 2.6589
 Frc consts  --      0.6977                 0.8074                 1.4664
 IR Inten    --     25.8740                 0.1266                 4.7957

                     43                     44                     45
                      A                      A                      A
 Frequencies --    970.7976              1004.3132              1022.6294
 Red. masses --      1.2862                 2.6113                 5.8179
 Frc consts  --      0.7142                 1.5518                 3.5847
 IR Inten    --      0.3588                59.5952                 0.0533

                     46                     47                     48
                      A                      A                      A
 Frequencies --   1036.1407              1036.9317              1049.3486
 Red. masses --      1.1228                 1.3077                 3.5651
 Frc consts  --      0.7102                 0.8284                 2.3129
 IR Inten    --     14.9262                 0.9038                13.1282

                     49                     50                     51
                      A                      A                      A
 Frequencies --   1056.0136              1125.8055              1132.2990
 Red. masses --      1.5247                 1.4885                 1.9475
 Frc consts  --      1.0018                 1.1116                 1.4711
 IR Inten    --      4.5621                 6.2354                17.3059

                     52                     53                     54
                      A                      A                      A
 Frequencies --   1177.4079              1192.3335              1204.0294
 Red. masses --      3.1548                 1.4530                 3.3019
 Frc consts  --      2.5768                 1.2170                 2.8202
 IR Inten    --    576.3967               117.7444                15.7979

                     55                     56                     57
                      A                      A                      A
 Frequencies --   1209.4357              1209.7909              1225.0547
 Red. masses --      1.3951                 1.8053                 2.4868
 Frc consts  --      1.2023                 1.5568                 2.1989
 IR Inten    --     69.9510                99.2248                11.2829

                     58                     59                     60
                      A                      A                      A
 Frequencies --   1296.5429              1315.1716              1321.7633
 Red. masses --      4.3239                 3.2980                 2.0589
 Frc consts  --      4.2826                 3.3610                 2.1193
 IR Inten    --     90.4129                89.3433                16.6718

                     61                     62                     63
                      A                      A                      A
 Frequencies --   1343.0171              1359.2136              1365.1103
 Red. masses --      1.1200                 1.3692                 2.8067
 Frc consts  --      1.1902                 1.4904                 3.0817
 IR Inten    --     12.0602                 0.9002                 0.6075

                     64                     65                     66
                      A                      A                      A
 Frequencies --   1417.1209              1418.6025              1439.0622
 Red. masses --      1.2566                 1.2428                 1.2445
 Frc consts  --      1.4868                 1.4736                 1.5185
 IR Inten    --      1.7508                 9.7749                12.6056

                     67                     68                     69
                      A                      A                      A
 Frequencies --   1445.5534              1453.7907              1492.0441
 Red. masses --      1.3102                 2.0601                 1.5842
 Frc consts  --      1.6131                 2.5653                 2.0779
 IR Inten    --      9.6608                13.5520                 4.8250

                     70                     71                     72
                      A                      A                      A
 Frequencies --   1513.6329              1516.0204              1517.4620
 Red. masses --      1.0498                 1.0510                 1.0482
 Frc consts  --      1.4172                 1.4232                 1.4221
 IR Inten    --      0.7054                 6.6436                 2.1041

                     73                     74                     75
                      A                      A                      A
 Frequencies --   1519.3905              1530.4021              1538.1108
 Red. masses --      1.0774                 1.0867                 1.0603
 Frc consts  --      1.4654                 1.4996                 1.4779
 IR Inten    --      3.2174                12.2338                 9.6694

                     76                     77                     78
                      A                      A                      A
 Frequencies --   1541.0421              1541.6573              1638.0490
 Red. masses --      1.0994                 2.1796                 5.4013
 Frc consts  --      1.5383                 3.0521                 8.5389
 IR Inten    --      2.5578                54.1096                55.5812

                     79                     80                     81
                      A                      A                      A
 Frequencies --   1658.8480              1716.9967              1844.2610
 Red. masses --      5.9156                 4.2492                11.9932
 Frc consts  --      9.5910                 7.3807                24.0343
 IR Inten    --     46.7361                 7.3944               190.7902

                     82                     83                     84
                      A                      A                      A
 Frequencies --   3061.8201              3067.4463              3070.5142
 Red. masses --      1.0361                 1.0348                 1.0360
 Frc consts  --      5.7231                 5.7367                 5.7549
 IR Inten    --     16.4522                14.5938                 4.3861

                     85                     86                     87
                      A                      A                      A
 Frequencies --   3095.0742              3127.6689              3140.3426
 Red. masses --      1.0589                 1.1018                 1.1037
 Frc consts  --      5.9766                 6.3505                 6.4130
 IR Inten    --     27.9218                26.7569                 7.5299

                     88                     89                     90
                      A                      A                      A
 Frequencies --   3140.7638              3141.8556              3153.8313
 Red. masses --      1.1041                 1.1026                 1.0848
 Frc consts  --      6.4171                 6.4126                 6.3571
 IR Inten    --     10.8690                21.6699                15.7160

                     91                     92                     93
                      A                      A                      A
 Frequencies --   3156.3497              3160.0666              3161.9258
 Red. masses --      1.1026                 1.1075                 1.1017
 Frc consts  --      6.4717                 6.5163                 6.4896
 IR Inten    --      0.3802                25.9574                38.9872

                     94                     95                     96
                      A                      A                      A
 Frequencies --   3173.5995              3190.5282              3208.2273
 Red. masses --      1.0644                 1.0868                 1.0904
 Frc consts  --      6.3165                 6.5184                 6.6126
 IR Inten    --      4.2038                10.0159                 9.7459

                     97                     98                     99
                      A                      A                      A
 Frequencies --   3211.7858              3225.1169              3250.9400
 Red. masses --      1.0918                 1.0940                 1.1157
 Frc consts  --      6.6359                 6.7045                 6.9470
 IR Inten    --     15.1955                 7.9100                15.6153

 - Thermochemistry -
 -------------------
 Temperature   298.150 Kelvin.  Pressure   1.00000 Atm.
 Atom     1 has atomic number  6 and mass  12.00000

 Molecular mass:   234.12559 amu.
 Principal axes and moments of inertia in atomic units:
                           1         2         3
     Eigenvalues --  1369.847229123.386749677.12613
           X            0.99998  -0.00572  -0.00103
           Y            0.00573   0.99992   0.01084
           Z            0.00097  -0.01084   0.99994
 This molecule is an asymmetric top.
 Rotational symmetry number  1.
 Warning -- assumption of classical behavior for rotation
           may cause significant error
 Rotational temperatures (Kelvin)      0.06323     0.00949     0.00895
 Rotational constants (GHZ):           1.31748     0.19781     0.18650
 Zero-point vibrational energy     772801.4 (Joules/Mol)
                                  184.70396 (Kcal/Mol)
 Warning -- explicit consideration of  27 degrees of freedom as
           vibrations may cause significant error
 Vibrational temperatures:     20.60    38.32    50.20    83.89    99.25
          (Kelvin)            121.87   144.52   239.13   292.81   310.96
                              333.21   336.09   370.04   405.69   417.39
                              424.12   465.80   478.91   517.17   624.62
                              642.31   655.20   678.53   698.20   788.78
                              824.67   857.26   923.34  1022.57  1057.63
                             1079.96  1104.16  1128.35  1168.64  1200.45
                             1260.60  1304.91  1307.85  1315.23  1328.69
                             1361.27  1392.00  1396.76  1444.98  1471.34
                             1490.78  1491.91  1509.78  1519.37  1619.78
                             1629.13  1694.03  1715.50  1732.33  1740.11
                             1740.62  1762.58  1865.44  1892.24  1901.72
                             1932.30  1955.61  1964.09  2038.92  2041.05
                             2070.49  2079.83  2091.68  2146.72  2177.78
                             2181.22  2183.29  2186.06  2201.91  2213.00
                             2217.22  2218.10  2356.79  2386.71  2470.38
                             2653.48  4405.28  4413.37  4417.79  4453.12
                             4500.02  4518.25  4518.86  4520.43  4537.66
                             4541.28  4546.63  4549.31  4566.10  4590.46
                             4615.92  4621.04  4640.22  4677.38

 Zero-point correction=                           0.294344 (Hartree/Particle)
 Thermal correction to Energy=                    0.312023
 Thermal correction to Enthalpy=                  0.312967
 Thermal correction to Gibbs Free Energy=         0.246503
 Sum of electronic and zero-point Energies=           -769.756479
 Sum of electronic and thermal Energies=              -769.738800
 Sum of electronic and thermal Enthalpies=            -769.737856
 Sum of electronic and thermal Free Energies=         -769.804320

                     E (Thermal)             CV                S
                      KCal/Mol        Cal/Mol-Kelvin    Cal/Mol-Kelvin
 Total                  195.797             65.898            139.886
 Electronic               0.000              0.000              0.000
 Translational            0.889              2.981             42.254
 Rotational               0.889              2.981             33.158
 Vibrational            194.020             59.937             64.474
 Vibration     1          0.593              1.986              7.298
 Vibration     2          0.593              1.984              6.066
 Vibration     3          0.594              1.983              5.530
 Vibration     4          0.596              1.974              4.514
 Vibration     5          0.598              1.969              4.182
 Vibration     6          0.601              1.960              3.779
 Vibration     7          0.604              1.949              3.446
 Vibration     8          0.624              1.884              2.478
 Vibration     9          0.639              1.835              2.101
 Vibration    10          0.645              1.816              1.991
 Vibration    11          0.653              1.793              1.867
 Vibration    12          0.654              1.790              1.851
 Vibration    13          0.667              1.751              1.681
 Vibration    14          0.681              1.707              1.522
 Vibration    15          0.686              1.692              1.473
 Vibration    16          0.689              1.683              1.446
 Vibration    17          0.708              1.628              1.291
 Vibration    18          0.715              1.610              1.246
 Vibration    19          0.734              1.556              1.124
 Vibration    20          0.795              1.396              0.845
 Vibration    21          0.806              1.369              0.807
 Vibration    22          0.814              1.349              0.780
 Vibration    23          0.829              1.313              0.733
 Vibration    24          0.841              1.283              0.696
 Vibration    25          0.903              1.144              0.548
 Vibration    26          0.929              1.089              0.498
 Vibration    27          0.954              1.041              0.457

                           ! Non-Optimized Parameters !
 Normal termination of Gaussian 16 at Fri Dec 11 13:26:01 2020.

 ----------------------------------------------------------------------
 # B3LYP/6-311++G(d,p) empiricaldispersion=gd3bj scf=xqc pop=npa geom=c
 heck
 ----------------------------------------------------------------------

 --------------------------------------
 CID_21549172_JID_7783_Energie_neutraal
 --------------------------------------
 Structure from the checkpoint file:  "JID_7783.chk"
 Charge =  0 Multiplicity = 1

 SCF Done:  E(RB3LYP) =  -770.265426655     A.U. after   15 cycles
 Normal termination of Gaussian 16 at Fri Dec 11 13:32:14 2020.

 ----------------------------------------------------------------------
 # B3LYP/6-311++G(d,p) empiricaldispersion=gd3bj scf=xqc pop=npa geom=c
 heck
 ----------------------------------------------------------------------

 ------------------------------------
 CID_21549172_JID_7783_Energie_kation
 ------------------------------------
 Structure from the checkpoint file:  "JID_7783.chk"
 Charge =  1 Multiplicity = 2

 SCF Done:  E(UB3LYP) =  -769.967353797     A.U. after   26 cycles
 Normal termination of Gaussian 16 at Fri Dec 11 13:47:20 2020.
 Gaussian 16:  ES64L-G16RevA.03 25-Dec-2016

 ----------------------------------------------------------------------
 # B3LYP/6-311++G(d,p) empiricaldispersion=gd3bj scf=xqc pop=npa geom=c
 heck
 ----------------------------------------------------------------------

 -----------------------------------
 CID_21549172_JID_7783_Energie_anion
 -----------------------------------
 Structure from the checkpoint file:  "JID_7783.chk"
 Charge = -1 Multiplicity = 2

                         Standard orientation:
 ---------------------------------------------------------------------
 Center     Atomic      Atomic             Coordinates (Angstroms)
 Number     Number       Type             X           Y           Z
 ---------------------------------------------------------------------
      1          6           0       -5.454315    0.498576   -0.197211
      2          6           0       -4.728698   -0.819009    0.020555
      3          8           0       -3.398234   -0.600054    0.545849
      4          6           0       -2.440882   -0.298425   -0.363562
      5          8           0       -2.630721   -0.230643   -1.553168
      6          6           0       -1.101871   -0.060029    0.352639
      7          6           0       -1.246881    1.132172    1.309040
      8          6           0       -0.690074   -1.330932    1.108165
      9          8           0       -0.192453    0.234151   -0.722384
     10          6           0        1.123703    0.500976   -0.413207
     11          6           0        1.540871    1.816301   -0.199798
     12          6           0        2.892279    2.075082    0.040171
     13          6           0        3.821289    1.040661    0.063809
     14          6           0        3.417170   -0.286364   -0.165552
     15          6           0        2.058387   -0.535788   -0.409069
     16          6           0        4.351851   -1.421797   -0.166844
     17          6           0        5.659383   -1.395370    0.116431
     18          1           0       -5.487814    1.080036    0.729871
     19          1           0       -6.483081    0.308940   -0.523454
     20          1           0       -4.951437    1.087420   -0.968799
     21          1           0       -5.220685   -1.430832    0.780078
     22          1           0       -4.649056   -1.386350   -0.909737
     23          1           0       -2.005709    0.917687    2.064683
     24          1           0       -0.295402    1.329484    1.810767
     25          1           0       -1.543251    2.029499    0.756775
     26          1           0       -0.596002   -2.173006    0.415406
     27          1           0        0.272614   -1.178305    1.604134
     28          1           0       -1.439474   -1.579019    1.862920
     29          1           0        0.812238    2.618296   -0.241906
     30          1           0        3.220938    3.097796    0.202535
     31          1           0        4.867369    1.265236    0.244797
     32          1           0        1.717433   -1.546054   -0.612110
     33          1           0        3.899903   -2.378875   -0.426033
     34          1           0        6.255828   -2.301585    0.083152
     35          1           0        6.183582   -0.484325    0.391155
 ---------------------------------------------------------------------

 SCF Done:  E(UB3LYP) =  -770.262286532     A.U. after   33 cycles
 SCF Done:  E(UB3LYP) =  -770.262286532     a.u. after    1 cycles

 The electronic state is 2-A.
 Alpha  occ. eigenvalues --  -19.07679 -19.02812 -19.02097 -10.20748 -10.15520
 Alpha  occ. eigenvalues --  -10.13885 -10.10642 -10.07715 -10.07435 -10.07394
 Alpha  occ. eigenvalues --  -10.06095 -10.05473 -10.05016 -10.04725 -10.04642
 Alpha  occ. eigenvalues --  -10.04635 -10.03286  -1.01797  -0.95025  -0.92858
 Alpha  occ. eigenvalues --   -0.74179  -0.71505  -0.67612  -0.66439  -0.62595
 Alpha  occ. eigenvalues --   -0.61001  -0.60279  -0.57984  -0.53657  -0.50288
 Alpha  occ. eigenvalues --   -0.48767  -0.46699  -0.43523  -0.41563  -0.39750
 Alpha  occ. eigenvalues --   -0.39290  -0.38535  -0.37207  -0.36781  -0.36436
 Alpha  occ. eigenvalues --   -0.34417  -0.33277  -0.32430  -0.31822  -0.31357
 Alpha  occ. eigenvalues --   -0.30529  -0.30051  -0.29332  -0.29197  -0.28839
 Alpha  occ. eigenvalues --   -0.27510  -0.27072  -0.25561  -0.25364  -0.24661
 Alpha  occ. eigenvalues --   -0.23253  -0.22452  -0.21735  -0.18505  -0.18243
 Alpha  occ. eigenvalues --   -0.17126  -0.13352  -0.11127   0.04116
 Alpha virt. eigenvalues --    0.05177   0.07484   0.07680   0.08190   0.08620
 Alpha virt. eigenvalues --    0.08954   0.09261   0.09917   0.10309   0.10421
 Alpha virt. eigenvalues --    0.10777   0.11182   0.12045   0.12418   0.12815

  Beta  occ. eigenvalues --  -19.07678 -19.02812 -19.02092 -10.20744 -10.15510
  Beta  occ. eigenvalues --  -10.13864 -10.10610 -10.07684 -10.07432 -10.07387
  Beta  occ. eigenvalues --  -10.06144 -10.05333 -10.04978 -10.04613 -10.04562
  Beta  occ. eigenvalues --  -10.04446 -10.03035  -1.01788  -0.95007  -0.92848
  Beta  occ. eigenvalues --   -0.73979  -0.71438  -0.67550  -0.66087  -0.62427
  Beta  occ. eigenvalues --   -0.60927  -0.59986  -0.57930  -0.53548  -0.49813
  Beta  occ. eigenvalues --   -0.48710  -0.46606  -0.43410  -0.41424  -0.39694
  Beta  occ. eigenvalues --   -0.39206  -0.38470  -0.37137  -0.36732  -0.36363
  Beta  occ. eigenvalues --   -0.34334  -0.33183  -0.32374  -0.31780  -0.31298
  Beta  occ. eigenvalues --   -0.30488  -0.30022  -0.29277  -0.29082  -0.28776
  Beta  occ. eigenvalues --   -0.27445  -0.26898  -0.25451  -0.25234  -0.24425
  Beta  occ. eigenvalues --   -0.22962  -0.22323  -0.21716  -0.18493  -0.17260
  Beta  occ. eigenvalues --   -0.17052  -0.12835  -0.09868
  Beta virt. eigenvalues --    0.06282   0.07613   0.07907   0.08103   0.08300
  Beta virt. eigenvalues --    0.08694   0.09070   0.09309   0.10103   0.10352
  Beta virt. eigenvalues --    0.10455   0.10879   0.11210   0.12046   0.12397

 Mulliken charges and spin densities:
               1          2
     1  C    0.414330  -0.797600
     2  C    0.199389  -0.315586
     3  O   -0.005341   0.030915
     4  C    0.177149   0.083404
     5  O   -0.232843  -0.000168
     6  C   -0.428948   0.064985
     7  C   -0.256490  -0.393626
     8  C   -0.508242  -0.083453
     9  O    0.084936  -0.000522
    10  C   -0.850106  -0.039277
    11  C    0.094134   0.152518
    12  C   -0.163790  -0.062060
    13  C   -1.311639   0.142336
    14  C    1.338770   0.136717
    15  C    0.376599   0.037942
    16  C   -0.016287  -0.043528
    17  C   -0.637808   0.308742
    18  H   -0.000528   0.142066
    19  H   -0.421610   0.572577
    20  H    0.006969   0.166515
    21  H   -0.595592   0.766747
    22  H    0.195900  -0.032842
    23  H    0.045449   0.108842
    24  H    0.167077  -0.003220
    25  H    0.163606   0.027227
    26  H    0.160762   0.024733
    27  H    0.181930  -0.016167
    28  H    0.085064   0.071318
    29  H    0.109296  -0.008893
    30  H    0.160933   0.002111
    31  H    0.035772  -0.005309
    32  H    0.123305  -0.011252
    33  H    0.094419  -0.000895
    34  H    0.112876  -0.011136
    35  H    0.100558  -0.014162
 Sum of Mulliken charges =  -1.00000   1.00000

 Dipole moment (field-independent basis, Debye):
    X=              0.8210    Y=              1.0653    Z=              1.4530  Tot=              1.9799
 Quadrupole moment (field-independent basis, Debye-Ang):
   XX=           -226.5850   YY=           -117.0058   ZZ=           -128.5252
   XY=              1.7785   XZ=              4.3193   YZ=              2.8744

 Summary of Natural Population Analysis:

                                       Natural Population
                Natural  -----------------------------------------------
    Atom  No    Charge         Core      Valence    Rydberg      Total
 -----------------------------------------------------------------------
      C    1   -0.29975      0.99966     2.29487    0.00522     3.29975
      C    2   -0.01679      0.99958     2.00489    0.01232     3.01679
      O    3   -0.28834      0.99986     3.27947    0.00902     4.28834
      C    4    0.40779      0.99961     1.56463    0.02797     2.59221
      O    5   -0.29253      0.99987     3.28757    0.00510     4.29253
      C    6    0.10060      0.99949     1.88567    0.01424     2.89940
      C    7   -0.30050      0.99962     2.29312    0.00776     3.30050
      C    8   -0.29879      0.99962     2.29341    0.00576     3.29879
      O    9   -0.29363      0.99985     3.28359    0.01020     4.29363
      C   10    0.14896      0.99936     1.83897    0.01271     2.85104
      C   11   -0.09599      0.99951     2.08780    0.00867     3.09599
      C   12   -0.11125      0.99958     2.10291    0.00876     3.11125
      C   13   -0.08040      0.99953     2.07256    0.00830     3.08040
      C   14   -0.01218      0.99950     2.00395    0.00873     3.01218
      C   15   -0.10474      0.99948     2.09761    0.00764     3.10474
      C   16   -0.08872      0.99956     2.07964    0.00952     3.08872
      C   17   -0.14476      0.99959     2.13745    0.00771     3.14476
      H   18    0.10079      0.00000     0.39805    0.00116     0.39921
      H   19    0.10412      0.00000     0.39445    0.00143     0.39588
      H   20    0.10483      0.00000     0.39416    0.00101     0.39517
      H   21    0.09252      0.00000     0.40551    0.00197     0.40748
      H   22    0.09374      0.00000     0.40505    0.00121     0.40626
      H   23    0.10801      0.00000     0.39104    0.00095     0.39199
      H   24    0.10881      0.00000     0.39030    0.00089     0.39119
      H   25    0.10371      0.00000     0.39545    0.00084     0.39629
      H   26    0.10349      0.00000     0.39557    0.00094     0.39651
      H   27    0.10915      0.00000     0.38990    0.00095     0.39085
      H   28    0.10742      0.00000     0.39160    0.00098     0.39258
      H   29    0.09723      0.00000     0.40150    0.00127     0.40277
      H   30    0.09282      0.00000     0.40615    0.00103     0.40718
      H   31    0.09436      0.00000     0.40427    0.00137     0.40564
      H   32    0.09780      0.00000     0.40087    0.00133     0.40220
      H   33    0.08569      0.00000     0.41273    0.00158     0.41431
      H   34    0.08418      0.00000     0.41477    0.00106     0.41582
      H   35    0.08235      0.00000     0.41661    0.00103     0.41765
 =======================================================================
   * Total *    0.00000     16.99328    45.81609    0.19063    63.00000

 Normal termination of Gaussian 16 at Fri Dec 11 14:05:43 2020.
