 Gaussian 16, Revision A.03,

 -----------------------------------------------------------
 # opt freq B3LYP/6-31G(d) empiricaldispersion=gd3bj scf=xqc
 -----------------------------------------------------------

 ------------------------------
 CID_66870987_JID_2588_neutraal
 ------------------------------
 Symbolic Z-matrix:
 Charge =  0 Multiplicity = 1

 SCF Done:  E(RB3LYP) =  -537.350333279     A.U. after   14 cycles
 SCF Done:  E(RB3LYP) =  -537.250815589     A.U. after   15 cycles
 SCF Done:  E(RB3LYP) =  -537.351985677     A.U. after   13 cycles
 SCF Done:  E(RB3LYP) =  -537.354856839     A.U. after   14 cycles
 SCF Done:  E(RB3LYP) =  -537.354925401     A.U. after   14 cycles
 SCF Done:  E(RB3LYP) =  -537.355238889     A.U. after   10 cycles
 SCF Done:  E(RB3LYP) =  -537.355357806     A.U. after   11 cycles
 SCF Done:  E(RB3LYP) =  -537.355553958     A.U. after   12 cycles
 SCF Done:  E(RB3LYP) =  -537.355660846     A.U. after   10 cycles
 SCF Done:  E(RB3LYP) =  -537.355718922     A.U. after   10 cycles
 SCF Done:  E(RB3LYP) =  -537.355914818     A.U. after    8 cycles
 SCF Done:  E(RB3LYP) =  -537.355914944     A.U. after    9 cycles
 SCF Done:  E(RB3LYP) =  -537.355914959     A.U. after    8 cycles
 SCF Done:  E(RB3LYP) =  -537.355914947     A.U. after    8 cycles
 SCF Done:  E(RB3LYP) =  -537.355914956     A.U. after    6 cycles
 Optimization completed.
    -- Stationary point found.
 Normal termination of Gaussian 16 at Wed Dec  9 18:21:46 2020.

 --------------------------------------------------------------------
 #N Geom=AllCheck Guess=TCheck SCRF=Check GenChk RB3LYP/6-31G(d) Freq
 --------------------------------------------------------------------

 Structure from the checkpoint file:  "JID_2588.chk"
 ------------------------------
 CID_66870987_JID_2588_neutraal
 ------------------------------
 Charge =  0 Multiplicity = 1

 SCF Done:  E(RB3LYP) =  -537.355914956     A.U. after    1 cycles

  Exact polarizability:  88.103  -4.804 128.423  -5.866   4.297 102.747
 Approx polarizability: 111.629  -8.503 195.216  -9.663   9.337 180.650

                      1                      2                      3
                      A                      A                      A
 Frequencies --     16.0042                39.3133                43.4257
 Red. masses --      2.7239                 3.1180                 3.6159
 Frc consts  --      0.0004                 0.0028                 0.0040
 IR Inten    --      0.0240                 0.0236                 0.0072

                      4                      5                      6
                      A                      A                      A
 Frequencies --     49.8708                76.2225                82.0812
 Red. masses --      4.2572                 3.1299                 4.1237
 Frc consts  --      0.0062                 0.0107                 0.0164
 IR Inten    --      0.4224                 0.4410                 0.0520

                      7                      8                      9
                      A                      A                      A
 Frequencies --    132.2941               170.5998               230.2867
 Red. masses --      3.3618                 1.1198                 1.0875
 Frc consts  --      0.0347                 0.0192                 0.0340
 IR Inten    --      5.3242                 0.0351                 0.2372

                     10                     11                     12
                      A                      A                      A
 Frequencies --    235.7186               246.3311               269.2313
 Red. masses --      2.7304                 3.2692                 1.0593
 Frc consts  --      0.0894                 0.1169                 0.0452
 IR Inten    --      2.2497                 4.2554                 0.0434

                     13                     14                     15
                      A                      A                      A
 Frequencies --    286.3735               367.6359               371.2181
 Red. masses --      1.0436                 2.0870                 2.1087
 Frc consts  --      0.0504                 0.1662                 0.1712
 IR Inten    --      0.0953                 0.0050                 0.0629

                     16                     17                     18
                      A                      A                      A
 Frequencies --    435.9300               437.2709               459.7151
 Red. masses --      1.9390                 4.4211                 5.1805
 Frc consts  --      0.2171                 0.4981                 0.6451
 IR Inten    --      0.2742                15.7131                 1.6895

                     19                     20                     21
                      A                      A                      A
 Frequencies --    549.0520               616.4142               652.8055
 Red. masses --      4.5141                 7.4128                 6.5342
 Frc consts  --      0.8018                 1.6595                 1.6406
 IR Inten    --      9.0604                 8.7993                 3.3256

                     22                     23                     24
                      A                      A                      A
 Frequencies --    769.5985               808.3797               854.0424
 Red. masses --      3.1967                 2.8051                 1.4667
 Frc consts  --      1.1155                 1.0800                 0.6303
 IR Inten    --      0.1895                 0.6797                28.3942

                     25                     26                     27
                      A                      A                      A
 Frequencies --    859.7377               934.2541               935.7176
 Red. masses --      6.3474                 1.3788                 1.2192
 Frc consts  --      2.7643                 0.7090                 0.6289
 IR Inten    --      4.5522                 1.3361                 1.5632

                     28                     29                     30
                      A                      A                      A
 Frequencies --    939.1867               966.8862               970.5579
 Red. masses --      1.2299                 1.3825                 1.2073
 Frc consts  --      0.6392                 0.7615                 0.6701
 IR Inten    --      1.3760                 0.1434                 0.0429

                     31                     32                     33
                      A                      A                      A
 Frequencies --    984.8507               988.3393              1024.7323
 Red. masses --      1.7599                 1.7447                 5.3122
 Frc consts  --      1.0057                 1.0041                 3.2866
 IR Inten    --      0.1229                 0.1176                16.1971

                     34                     35                     36
                      A                      A                      A
 Frequencies --   1054.4400              1097.1217              1186.0364
 Red. masses --      7.8705                 2.4077                 1.2646
 Frc consts  --      5.1558                 1.7075                 1.0481
 IR Inten    --     50.0618                18.8301                 0.1237

                     37                     38                     39
                      A                      A                      A
 Frequencies --   1194.8198              1207.8355              1209.3680
 Red. masses --      1.6630                 1.7178                 1.6888
 Frc consts  --      1.3988                 1.4765                 1.4553
 IR Inten    --     13.9909                 2.5338                 2.3933

                     40                     41                     42
                      A                      A                      A
 Frequencies --   1223.5160              1226.5223              1267.6523
 Red. masses --      1.4336                 1.9134                 5.7575
 Frc consts  --      1.2645                 1.6960                 5.4511
 IR Inten    --      0.2283                 1.8838                30.4063

                     43                     44                     45
                      A                      A                      A
 Frequencies --   1332.6394              1357.0269              1377.9427
 Red. masses --      1.4212                 3.0509                 1.4066
 Frc consts  --      1.4871                 3.3103                 1.5736
 IR Inten    --     30.3206               141.2063                 8.2904

                     46                     47                     48
                      A                      A                      A
 Frequencies --   1378.9266              1429.9710              1432.1416
 Red. masses --      1.4052                 1.2682                 1.2698
 Frc consts  --      1.5742                 1.5279                 1.5344
 IR Inten    --      5.7615                 7.2852                 2.5154

                     49                     50                     51
                      A                      A                      A
 Frequencies --   1447.6112              1459.4208              1494.4739
 Red. masses --      1.8673                 1.2469                 1.5124
 Frc consts  --      2.3055                 1.5648                 1.9902
 IR Inten    --    150.3857                12.3456                 1.6582

                     52                     53                     54
                      A                      A                      A
 Frequencies --   1510.1595              1516.7683              1519.4949
 Red. masses --      1.0513                 1.0500                 1.0445
 Frc consts  --      1.4127                 1.4232                 1.4209
 IR Inten    --      2.5754                 0.0529                 1.8535

                     55                     56                     57
                      A                      A                      A
 Frequencies --   1519.7070              1524.6743              1530.2033
 Red. masses --      1.0481                 1.0983                 1.9106
 Frc consts  --      1.4262                 1.5043                 2.6358
 IR Inten    --      0.3640                 1.7073                61.0273

                     58                     59                     60
                      A                      A                      A
 Frequencies --   1539.1304              1543.0249              1545.2835
 Red. masses --      1.0585                 1.0570                 1.0491
 Frc consts  --      1.4774                 1.4828                 1.4760
 IR Inten    --      3.9062                15.6130                18.7924

                     61                     62                     63
                      A                      A                      A
 Frequencies --   1598.6102              1637.9745              3013.5063
 Red. masses --      7.9058                 5.3739                 1.0836
 Frc consts  --     11.9037                 8.4949                 5.7977
 IR Inten    --     74.1738                41.3615                25.7795

                     64                     65                     66
                      A                      A                      A
 Frequencies --   3035.0668              3039.6539              3047.6404
 Red. masses --      1.0351                 1.0347                 1.0359
 Frc consts  --      5.6179                 5.6326                 5.6689
 IR Inten    --     33.2758                27.2769                 8.8234

                     67                     68                     69
                      A                      A                      A
 Frequencies --   3072.7835              3098.7567              3104.9538
 Red. masses --      1.0299                 1.1016                 1.1027
 Frc consts  --      5.7296                 6.2325                 6.2633
 IR Inten    --     38.9598                11.1545                14.6996

                     70                     71                     72
                      A                      A                      A
 Frequencies --   3108.5635              3109.6704              3112.0356
 Red. masses --      1.1024                 1.1020                 1.1015
 Frc consts  --      6.2762                 6.2783                 6.2854
 IR Inten    --     46.8924                30.4148                71.1196

                     73                     74                     75
                      A                      A                      A
 Frequencies --   3118.1303              3147.5754              3179.3794
 Red. masses --      1.1012                 1.1063                 1.1068
 Frc consts  --      6.3082                 6.4576                 6.5919
 IR Inten    --     50.6602                21.7102                23.0283

                     76                     77                     78
                      A                      A                      A
 Frequencies --   3182.2784              3194.8634              3207.3657
 Red. masses --      1.0888                 1.0908                 1.0969
 Frc consts  --      6.4966                 6.5601                 6.6486
 IR Inten    --      8.4684                17.5664                23.6130

 - Thermochemistry -
 -------------------
 Temperature   298.150 Kelvin.  Pressure   1.00000 Atm.
 Atom     1 has atomic number  6 and mass  12.00000

 Molecular mass:   168.12626 amu.
 Principal axes and moments of inertia in atomic units:
                           1         2         3
     Eigenvalues --  1690.998322897.351433754.36403
           X            0.99981   0.01581  -0.01108
           Y           -0.01582   0.99987  -0.00077
           Z            0.01106   0.00094   0.99994
 This molecule is an asymmetric top.
 Rotational symmetry number  1.
 Warning -- assumption of classical behavior for rotation
           may cause significant error
 Rotational temperatures (Kelvin)      0.05122     0.02989     0.02307
 Rotational constants (GHZ):           1.06726     0.62289     0.48070
 Zero-point vibrational energy     639636.1 (Joules/Mol)
                                  152.87669 (Kcal/Mol)
 Warning -- explicit consideration of  20 degrees of freedom as
           vibrations may cause significant error
 Vibrational temperatures:     23.03    56.56    62.48    71.75   109.67
          (Kelvin)            118.10   190.34   245.46   331.33   339.15
                              354.42   387.36   412.03   528.95   534.10
                              627.21   629.14   661.43   789.96   886.88
                              939.24  1107.28  1163.08  1228.78  1236.97
                             1344.18  1346.29  1351.28  1391.13  1396.42
                             1416.98  1422.00  1474.36  1517.10  1578.51
                             1706.44  1719.08  1737.81  1740.01  1760.37
                             1764.69  1823.87  1917.37  1952.46  1982.55
                             1983.97  2057.41  2060.53  2082.79  2099.78
                             2150.21  2172.78  2182.29  2186.21  2186.52
                             2193.67  2201.62  2214.47  2220.07  2223.32
                             2300.04  2356.68  4335.76  4366.78  4373.38
                             4384.87  4421.05  4458.42  4467.34  4472.53
                             4474.12  4477.53  4486.29  4528.66  4574.42
                             4578.59  4596.70  4614.68

 Zero-point correction=                           0.243625 (Hartree/Particle)
 Thermal correction to Energy=                    0.258014
 Thermal correction to Enthalpy=                  0.258959
 Thermal correction to Gibbs Free Energy=         0.199655
 Sum of electronic and zero-point Energies=           -537.112290
 Sum of electronic and thermal Energies=              -537.097901
 Sum of electronic and thermal Enthalpies=            -537.096956
 Sum of electronic and thermal Free Energies=         -537.156260

                     E (Thermal)             CV                S
                      KCal/Mol        Cal/Mol-Kelvin    Cal/Mol-Kelvin
 Total                  161.906             50.029            124.814
 Electronic               0.000              0.000              0.000
 Translational            0.889              2.981             41.267
 Rotational               0.889              2.981             31.287
 Vibrational            160.129             44.067             52.261
 Vibration     1          0.593              1.986              7.077
 Vibration     2          0.594              1.981              5.293
 Vibration     3          0.595              1.980              5.096
 Vibration     4          0.595              1.978              4.823
 Vibration     5          0.599              1.965              3.986
 Vibration     6          0.600              1.961              3.840
 Vibration     7          0.612              1.921              2.912
 Vibration     8          0.626              1.879              2.429
 Vibration     9          0.652              1.795              1.877
 Vibration    10          0.655              1.786              1.835
 Vibration    11          0.661              1.769              1.757
 Vibration    12          0.674              1.730              1.601
 Vibration    13          0.684              1.699              1.495
 Vibration    14          0.740              1.539              1.090
 Vibration    15          0.743              1.531              1.075
 Vibration    16          0.796              1.392              0.839
 Vibration    17          0.798              1.389              0.835
 Vibration    18          0.818              1.339              0.767
 Vibration    19          0.904              1.142              0.546
 Vibration    20          0.976              0.997              0.422

 Optimization completed.
    -- Stationary point found.
 Normal termination of Gaussian 16 at Wed Dec  9 18:28:01 2020.

 ----------------------------------------------------------------------
 # B3LYP/6-311++G(d,p) empiricaldispersion=gd3bj scf=xqc pop=npa geom=c
 heck
 ----------------------------------------------------------------------

 --------------------------------------
 CID_66870987_JID_2588_Energie_neutraal
 --------------------------------------
 Structure from the checkpoint file:  "JID_2588.chk"
 Charge =  0 Multiplicity = 1

 SCF Done:  E(RB3LYP) =  -537.505741781     A.U. after   14 cycles
 Normal termination of Gaussian 16 at Wed Dec  9 18:31:10 2020.

 ----------------------------------------------------------------------
 # B3LYP/6-311++G(d,p) empiricaldispersion=gd3bj scf=xqc pop=npa geom=c
 heck
 ----------------------------------------------------------------------

 ------------------------------------
 CID_66870987_JID_2588_Energie_kation
 ------------------------------------
 Structure from the checkpoint file:  "JID_2588.chk"
 Charge =  1 Multiplicity = 2

 SCF Done:  E(UB3LYP) =  -537.177816397     A.U. after   22 cycles
 Normal termination of Gaussian 16 at Wed Dec  9 18:37:02 2020.
 Gaussian 16:  ES64L-G16RevA.03 25-Dec-2016

 ----------------------------------------------------------------------
 # B3LYP/6-311++G(d,p) empiricaldispersion=gd3bj scf=xqc pop=npa geom=c
 heck
 ----------------------------------------------------------------------

 -----------------------------------
 CID_66870987_JID_2588_Energie_anion
 -----------------------------------
 Structure from the checkpoint file:  "JID_2588.chk"
 Charge = -1 Multiplicity = 2

                         Standard orientation:
 ---------------------------------------------------------------------
 Center     Atomic      Atomic             Coordinates (Angstroms)
 Number     Number       Type             X           Y           Z
 ---------------------------------------------------------------------
      1          6           0       -1.955027    1.115888   -0.598510
      2          6           0       -2.800085   -0.155651   -0.454874
      3          6           0       -1.908662   -1.394088   -0.307417
      4          6           0       -3.773234   -0.035964    0.723918
      5          6           0        1.349272    2.764344   -0.218477
      6          8           0        1.273688    1.737600    0.778024
      7          6           0        1.444123    0.470225    0.358931
      8          7           0        1.632350    0.203078   -0.926433
      9          6           0        1.789685   -1.094147   -1.241894
     10          6           0        1.758448   -2.097610   -0.283983
     11          7           0        1.569308   -1.818907    1.019875
     12          6           0        1.412583   -0.543533    1.341869
     13          1           0       -1.358523    1.290890    0.305330
     14          1           0       -2.586613    1.998145   -0.757889
     15          1           0       -1.260623    1.035520   -1.442833
     16          1           0       -3.393430   -0.272433   -1.374048
     17          1           0       -1.301132   -1.332380    0.603251
     18          1           0       -2.506608   -2.311030   -0.245876
     19          1           0       -1.222064   -1.494743   -1.155313
     20          1           0       -4.433341    0.832302    0.611445
     21          1           0       -4.402353   -0.929266    0.814636
     22          1           0       -3.224116    0.082196    1.667187
     23          1           0        1.214542    3.699821    0.325337
     24          1           0        0.561995    2.638680   -0.965860
     25          1           0        2.321501    2.746801   -0.719390
     26          1           0        1.944097   -1.323337   -2.293926
     27          1           0        1.885062   -3.142149   -0.554267
     28          1           0        1.257874   -0.285799    2.386550
 ---------------------------------------------------------------------

 SCF Done:  E(UB3LYP) =  -537.501137752     A.U. after   33 cycles
 SCF Done:  E(UB3LYP) =  -537.501137752     a.u. after    1 cycles

 The electronic state is 2-A.
 Alpha  occ. eigenvalues --  -19.03111 -14.15372 -14.14901 -10.11784 -10.10662
 Alpha  occ. eigenvalues --  -10.05519 -10.05384 -10.05316 -10.04372 -10.04364
 Alpha  occ. eigenvalues --  -10.03525 -10.02859  -0.95388  -0.81786  -0.74811
 Alpha  occ. eigenvalues --   -0.68407  -0.63448  -0.58280  -0.56710  -0.55970
 Alpha  occ. eigenvalues --   -0.50966  -0.48414  -0.44232  -0.40273  -0.38279
 Alpha  occ. eigenvalues --   -0.35605  -0.35462  -0.34599  -0.31541  -0.31274
 Alpha  occ. eigenvalues --   -0.31206  -0.30156  -0.28089  -0.26726  -0.26065
 Alpha  occ. eigenvalues --   -0.25656  -0.24557  -0.22808  -0.21659  -0.21140
 Alpha  occ. eigenvalues --   -0.20883  -0.20455  -0.17602  -0.15665  -0.10250
 Alpha  occ. eigenvalues --   -0.10148   0.05391
 Alpha virt. eigenvalues --    0.07214   0.08357   0.09133   0.09555   0.10340
 Alpha virt. eigenvalues --    0.11023   0.11466   0.11882   0.12251   0.12771
 Alpha virt. eigenvalues --    0.13216   0.13405   0.14498   0.15136   0.15569

  Beta  occ. eigenvalues --  -19.03105 -14.14935 -14.14376 -10.11835 -10.10661
  Beta  occ. eigenvalues --  -10.05510 -10.05422 -10.05188 -10.04349 -10.04150
  Beta  occ. eigenvalues --  -10.03514 -10.02844  -0.95359  -0.81158  -0.73939
  Beta  occ. eigenvalues --   -0.68385  -0.63233  -0.58085  -0.56668  -0.55938
  Beta  occ. eigenvalues --   -0.50355  -0.48206  -0.44184  -0.40133  -0.38063
  Beta  occ. eigenvalues --   -0.35403  -0.35359  -0.34559  -0.31502  -0.31226
  Beta  occ. eigenvalues --   -0.31102  -0.29990  -0.27328  -0.26506  -0.26010
  Beta  occ. eigenvalues --   -0.25506  -0.24527  -0.22734  -0.21420  -0.21111
  Beta  occ. eigenvalues --   -0.20466  -0.20332  -0.15306  -0.15036  -0.09614
  Beta  occ. eigenvalues --   -0.09297
  Beta virt. eigenvalues --    0.07585   0.08414   0.09276   0.09801   0.10500
  Beta virt. eigenvalues --    0.10937   0.11383   0.11476   0.12014   0.12280
  Beta virt. eigenvalues --    0.12907   0.13304   0.13601   0.14479   0.15185

 Mulliken charges and spin densities:
               1          2
     1  C    0.050899  -0.555307
     2  C   -0.686633   0.953947
     3  C    0.119275  -0.652279
     4  C    0.406186  -0.982754
     5  C   -0.187504  -0.058042
     6  O   -0.094029   0.003739
     7  C   -0.074996  -0.127343
     8  N   -0.071840   0.169802
     9  C   -0.197516   0.235074
    10  C   -0.181337  -0.108900
    11  N   -0.100309   0.220454
    12  C   -0.484365   0.289232
    13  H    0.167328  -0.029714
    14  H   -0.139090   0.277910
    15  H    0.117727  -0.001701
    16  H   -0.247174   0.380961
    17  H    0.233682  -0.084558
    18  H    0.086339   0.047517
    19  H   -0.032970   0.172189
    20  H   -0.227675   0.351146
    21  H   -0.127245   0.251007
    22  H   -0.024542   0.153784
    23  H    0.093587   0.034130
    24  H    0.150159   0.017925
    25  H    0.144278   0.010794
    26  H    0.096630   0.015871
    27  H    0.099233   0.008837
    28  H    0.111903   0.006280
 Sum of Mulliken charges =  -1.00000   1.00000

 Dipole moment (field-independent basis, Debye):
    X=              2.1245    Y=              2.3220    Z=             -0.8596  Tot=              3.2625
 Quadrupole moment (field-independent basis, Debye-Ang):
   XX=           -126.6131   YY=            -97.3227   ZZ=            -95.2997
   XY=              7.0239   XZ=             -3.1316   YZ=              3.1825

 Summary of Natural Population Analysis:

                                       Natural Population
                Natural  -----------------------------------------------
    Atom  No    Charge         Core      Valence    Rydberg      Total
 -----------------------------------------------------------------------
      C    1   -0.28902      0.99965     2.28219    0.00719     3.28902
      C    2   -0.11537      0.99964     2.10718    0.00855     3.11537
      C    3   -0.28785      0.99965     2.28118    0.00702     3.28785
      C    4   -0.28404      0.99965     2.27814    0.00625     3.28404
      C    5   -0.10216      0.99960     2.09430    0.00826     3.10216
      O    6   -0.27867      0.99985     3.26951    0.00931     4.27867
      C    7    0.23775      0.99947     1.74473    0.01805     2.76225
      N    8   -0.21278      0.99966     2.70156    0.01156     3.71278
      C    9    0.02853      0.99960     1.95644    0.01543     2.97147
      C   10   -0.04073      0.99959     2.02505    0.01609     3.04073
      N   11   -0.15480      0.99971     2.64284    0.01225     3.65480
      C   12    0.01895      0.99957     1.96633    0.01515     2.98105
      H   13    0.10154      0.00000     0.39694    0.00152     0.39846
      H   14    0.09241      0.00000     0.40670    0.00088     0.40759
      H   15    0.10201      0.00000     0.39661    0.00138     0.39799
      H   16    0.08573      0.00000     0.41226    0.00200     0.41427
      H   17    0.10531      0.00000     0.39342    0.00127     0.39469
      H   18    0.09177      0.00000     0.40740    0.00083     0.40823
      H   19    0.10411      0.00000     0.39488    0.00101     0.39589
      H   20    0.09603      0.00000     0.40288    0.00109     0.40397
      H   21    0.09562      0.00000     0.40349    0.00090     0.40438
      H   22    0.09601      0.00000     0.40301    0.00098     0.40399
      H   23    0.08269      0.00000     0.41642    0.00089     0.41731
      H   24    0.09108      0.00000     0.40753    0.00139     0.40892
      H   25    0.08674      0.00000     0.41209    0.00117     0.41326
      H   26    0.08150      0.00000     0.41746    0.00103     0.41850
      H   27    0.08369      0.00000     0.41526    0.00105     0.41631
      H   28    0.08396      0.00000     0.41458    0.00146     0.41604
 =======================================================================
   * Total *   -0.00000     11.99563    33.85039    0.15398    46.00000

 Normal termination of Gaussian 16 at Wed Dec  9 18:45:43 2020.
