 Gaussian 16, Revision A.03,

 -----------------------------------------------------------
 # opt freq B3LYP/6-31G(d) empiricaldispersion=gd3bj scf=xqc
 -----------------------------------------------------------

 -------------------------------
 CID_112681307_JID_3579_neutraal
 -------------------------------
 Symbolic Z-matrix:
 Charge =  0 Multiplicity = 1

 SCF Done:  E(RB3LYP) =  -587.736078202     A.U. after   13 cycles
 SCF Done:  E(RB3LYP) =  -587.742081643     A.U. after   12 cycles
 SCF Done:  E(RB3LYP) =  -587.743406483     A.U. after   12 cycles
 SCF Done:  E(RB3LYP) =  -587.744124751     A.U. after   11 cycles
 SCF Done:  E(RB3LYP) =  -587.744616404     A.U. after   12 cycles
 SCF Done:  E(RB3LYP) =  -587.744757611     A.U. after   12 cycles
 SCF Done:  E(RB3LYP) =  -587.744812491     A.U. after   10 cycles
 SCF Done:  E(RB3LYP) =  -587.744826206     A.U. after    9 cycles
 SCF Done:  E(RB3LYP) =  -587.744831026     A.U. after   10 cycles
 SCF Done:  E(RB3LYP) =  -587.744832314     A.U. after    8 cycles
 SCF Done:  E(RB3LYP) =  -587.744833184     A.U. after    8 cycles
 SCF Done:  E(RB3LYP) =  -587.744833844     A.U. after    8 cycles
 Optimization completed.
    -- Stationary point found.

 1\1\GINC-NODE107\FOpt\RB3LYP\6-31G(d)\C8H15N5\VSC10255\09-Dec-2020\0\\
 # opt freq B3LYP/6-31G(d) empiricaldispersion=gd3bj scf=xqc\\CID_11268
 1307_JID_3579_neutraal\\0,1\C,0.9789227432,-0.4871361467,-0.4488752292
 \C,0.5196741353,-1.7918974431,0.2064273522\C,1.0763742048,-2.043091623
 ,1.6329581383\C,0.5963364509,-0.9609434755,2.609807056\C,0.5771243487,
 -3.4220357077,2.1160124686\C,2.5993385802,-2.0959575704,1.5622175782\N
 ,3.3046360395,-1.2723043598,2.3403504066\C,4.6452683241,-1.3935337393,
 2.2181975607\N,5.2907621291,-2.2334724672,1.3985265341\C,4.4684068176,

 Normal termination of Gaussian 16 at Wed Dec  9 23:43:23 2020.

 --------------------------------------------------------------------
 #N Geom=AllCheck Guess=TCheck SCRF=Check GenChk RB3LYP/6-31G(d) Freq
 --------------------------------------------------------------------

 Structure from the checkpoint file:  "JID_3579.chk"
 -------------------------------
 CID_112681307_JID_3579_neutraal
 -------------------------------
 Charge =  0 Multiplicity = 1

 SCF Done:  E(RB3LYP) =  -587.744833844     A.U. after    1 cycles

  Exact polarizability: 135.551  -0.755 128.402  -5.208   1.806  80.816
 Approx polarizability: 187.821  -2.080 207.305  -9.608   3.159 111.663

                      1                      2                      3
                      A                      A                      A
 Frequencies --     23.1631                71.8453               121.8866
 Red. masses --      3.7351                 2.9167                 2.0426
 Frc consts  --      0.0012                 0.0089                 0.0179
 IR Inten    --      0.1457                 0.4901                 0.8675

                      4                      5                      6
                      A                      A                      A
 Frequencies --    173.1489               186.2093               192.7860
 Red. masses --      2.8363                 7.5144                 5.5078
 Frc consts  --      0.0501                 0.1535                 0.1206
 IR Inten    --      0.8239                 0.5408                 7.5647

                      7                      8                      9
                      A                      A                      A
 Frequencies --    214.3257               231.1594               254.7728
 Red. masses --      2.2053                 1.1596                 1.2326
 Frc consts  --      0.0597                 0.0365                 0.0471
 IR Inten    --      4.4861                 0.2839                 1.1035

                     10                     11                     12
                      A                      A                      A
 Frequencies --    278.6713               295.1036               312.7898
 Red. masses --      1.3863                 2.3731                 1.9084
 Frc consts  --      0.0634                 0.1218                 0.1100
 IR Inten    --      7.2446                 6.1398                62.3570

                     13                     14                     15
                      A                      A                      A
 Frequencies --    326.5879               337.8052               351.8429
 Red. masses --      1.3761                 1.2682                 2.3576
 Frc consts  --      0.0865                 0.0853                 0.1720
 IR Inten    --    327.5674               210.8122                 1.9987

                     16                     17                     18
                      A                      A                      A
 Frequencies --    361.7897               412.8759               470.3459
 Red. masses --      2.6719                 2.5358                 2.9129
 Frc consts  --      0.2061                 0.2547                 0.3797
 IR Inten    --     13.6136                 0.8831                 1.6731

                     19                     20                     21
                      A                      A                      A
 Frequencies --    522.4125               542.9885               553.2896
 Red. masses --      1.4219                 1.2347                 2.2241
 Frc consts  --      0.2286                 0.2145                 0.4012
 IR Inten    --      2.6371                12.3624                 0.1211

                     22                     23                     24
                      A                      A                      A
 Frequencies --    571.5460               606.7141               639.9937
 Red. masses --      1.9731                 6.0071                 5.3374
 Frc consts  --      0.3797                 1.3028                 1.2880
 IR Inten    --      0.9072                 8.7060                 3.8845

                     25                     26                     27
                      A                      A                      A
 Frequencies --    740.8434               745.7608               785.9082
 Red. masses --      5.7851                10.5530                 1.6113
 Frc consts  --      1.8707                 3.4580                 0.5864
 IR Inten    --      6.9272                 1.1283                 7.1116

                     28                     29                     30
                      A                      A                      A
 Frequencies --    824.3883               847.1685               928.8048
 Red. masses --      1.7412                 9.7911                 2.3485
 Frc consts  --      0.6972                 4.1402                 1.1937
 IR Inten    --      3.0395                38.2145                 5.9042

                     31                     32                     33
                      A                      A                      A
 Frequencies --    962.0402               974.8846              1003.0571
 Red. masses --      1.5501                 2.6062                 7.9441
 Frc consts  --      0.8453                 1.4594                 4.7092
 IR Inten    --      1.4304                16.2723                17.4466

                     34                     35                     36
                      A                      A                      A
 Frequencies --   1024.9142              1027.2990              1054.7463
 Red. masses --      1.4403                 1.4659                 2.8950
 Frc consts  --      0.8914                 0.9115                 1.8976
 IR Inten    --      0.9083                 6.8994                 4.7665

                     37                     38                     39
                      A                      A                      A
 Frequencies --   1080.0079              1092.8276              1100.5119
 Red. masses --      1.6106                 1.8119                 1.8167
 Frc consts  --      1.1069                 1.2749                 1.2963
 IR Inten    --      2.8513                 0.6179                 0.7409

                     40                     41                     42
                      A                      A                      A
 Frequencies --   1179.8959              1211.3309              1256.0792
 Red. masses --      2.5226                 2.5498                 2.7810
 Frc consts  --      2.0691                 2.2043                 2.5852
 IR Inten    --      1.1439                 4.8327                 7.9683

                     43                     44                     45
                      A                      A                      A
 Frequencies --   1259.2739              1300.1933              1340.2206
 Red. masses --      2.3724                 5.0639                 1.4457
 Frc consts  --      2.2166                 5.0438                 1.5299
 IR Inten    --     10.9308                13.9988                32.9161

                     46                     47                     48
                      A                      A                      A
 Frequencies --   1382.7353              1416.3950              1434.4634
 Red. masses --      1.4053                 1.3908                 1.9311
 Frc consts  --      1.5831                 1.6439                 2.3412
 IR Inten    --      3.5270                11.9428                19.1870

                     49                     50                     51
                      A                      A                      A
 Frequencies --   1442.7392              1456.3384              1474.6636
 Red. masses --      1.2489                 1.6836                 3.8164
 Frc consts  --      1.5317                 2.1039                 4.8898
 IR Inten    --      4.4613                32.3650               168.6517

                     52                     53                     54
                      A                      A                      A
 Frequencies --   1505.7377              1515.0689              1520.3133
 Red. masses --      1.0734                 1.0565                 1.0724
 Frc consts  --      1.4339                 1.4288                 1.4605
 IR Inten    --      2.4786                 8.5892                10.4272

                     55                     56                     57
                      A                      A                      A
 Frequencies --   1527.1023              1530.7691              1533.4093
 Red. masses --      1.0549                 1.7878                 1.0753
 Frc consts  --      1.4494                 2.4683                 1.4897
 IR Inten    --      5.4118                40.9062                 6.4567

                     58                     59                     60
                      A                      A                      A
 Frequencies --   1536.3069              1548.2654              1609.3592
 Red. masses --      1.0749                 1.1062                 6.3290
 Frc consts  --      1.4948                 1.5624                 9.6581
 IR Inten    --      1.7275                 5.1370               437.0082

                     61                     62                     63
                      A                      A                      A
 Frequencies --   1612.2512              1655.1464              1683.1296
 Red. masses --      4.4838                 1.6891                 1.9718
 Frc consts  --      6.8668                 2.7264                 3.2911
 IR Inten    --    310.0215               804.1645               228.6488

                     64                     65                     66
                      A                      A                      A
 Frequencies --   3040.1240              3048.1076              3052.3825
 Red. masses --      1.0644                 1.0373                 1.0355
 Frc consts  --      5.7962                 5.6780                 5.6842
 IR Inten    --     20.0812                29.5813                28.6805

                     67                     68                     69
                      A                      A                      A
 Frequencies --   3059.2401              3095.6722              3111.1816
 Red. masses --      1.0407                 1.0967                 1.1025
 Frc consts  --      5.7388                 6.1921                 6.2874
 IR Inten    --     36.8980                 2.8902                17.1197

                     70                     71                     72
                      A                      A                      A
 Frequencies --   3115.1439              3124.7759              3127.4412
 Red. masses --      1.1015                 1.1022                 1.0986
 Frc consts  --      6.2978                 6.3411                 6.3309
 IR Inten    --     43.5286                51.3060                38.4284

                     73                     74                     75
                      A                      A                      A
 Frequencies --   3141.2741              3149.2191              3607.4679
 Red. masses --      1.1010                 1.1004                 1.0448
 Frc consts  --      6.4007                 6.4300                 8.0112
 IR Inten    --     24.3370                24.6525                96.3145

                     76                     77                     78
                      A                      A                      A
 Frequencies --   3609.0017              3733.6836              3735.1465
 Red. masses --      1.0450                 1.1044                 1.1046
 Frc consts  --      8.0197                 9.0712                 9.0798
 IR Inten    --     42.8987                37.4338                46.4579

 - Thermochemistry -
 -------------------
 Temperature   298.150 Kelvin.  Pressure   1.00000 Atm.
 Atom     1 has atomic number  6 and mass  12.00000

 Molecular mass:   181.13275 amu.
 Principal axes and moments of inertia in atomic units:
                           1         2         3
     Eigenvalues --  1598.188242950.979913550.78661
           X            1.00000   0.00306   0.00071
           Y           -0.00307   0.99997   0.00767
           Z           -0.00068  -0.00767   0.99997
 This molecule is an asymmetric top.
 Rotational symmetry number  1.
 Warning -- assumption of classical behavior for rotation
           may cause significant error
 Rotational temperatures (Kelvin)      0.05420     0.02935     0.02439
 Rotational constants (GHZ):           1.12924     0.61157     0.50827
 Zero-point vibrational energy     633591.7 (Joules/Mol)
                                  151.43206 (Kcal/Mol)
 Warning -- explicit consideration of  23 degrees of freedom as
           vibrations may cause significant error
 Vibrational temperatures:     33.33   103.37   175.37   249.12   267.91
          (Kelvin)            277.38   308.37   332.59   366.56   400.95
                              424.59   450.03   469.89   486.03   506.22
                              520.53   594.04   676.72   751.64   781.24
                              796.06   822.33   872.93   920.81  1065.91
                             1072.98  1130.75  1186.11  1218.89  1336.34
                             1384.16  1402.64  1443.18  1474.62  1478.05
                             1517.54  1553.89  1572.34  1583.39  1697.61
                             1742.84  1807.22  1811.81  1870.69  1928.28
                             1989.45  2037.88  2063.87  2075.78  2095.35
                             2121.71  2166.42  2179.85  2187.39  2197.16
                             2202.44  2206.23  2210.40  2227.61  2315.51
                             2319.67  2381.39  2421.65  4374.06  4385.55
                             4391.70  4401.56  4453.98  4476.30  4482.00
                             4495.86  4499.69  4519.59  4531.02  5190.34
                             5192.55  5371.94  5374.04

 Zero-point correction=                           0.241322 (Hartree/Particle)
 Thermal correction to Energy=                    0.255098
 Thermal correction to Enthalpy=                  0.256042
 Thermal correction to Gibbs Free Energy=         0.201501
 Sum of electronic and zero-point Energies=           -587.503511
 Sum of electronic and thermal Energies=              -587.489736
 Sum of electronic and thermal Enthalpies=            -587.488792
 Sum of electronic and thermal Free Energies=         -587.543333

                     E (Thermal)             CV                S
                      KCal/Mol        Cal/Mol-Kelvin    Cal/Mol-Kelvin
 Total                  160.076             52.726            114.791
 Electronic               0.000              0.000              0.000
 Translational            0.889              2.981             41.489
 Rotational               0.889              2.981             31.194
 Vibrational            158.299             46.764             42.108
 Vibration     1          0.593              1.985              6.343
 Vibration     2          0.598              1.967              4.102
 Vibration     3          0.609              1.931              3.070
 Vibration     4          0.627              1.876              2.401
 Vibration     5          0.632              1.859              2.265
 Vibration     6          0.635              1.850              2.201
 Vibration     7          0.644              1.819              2.007
 Vibration     8          0.653              1.793              1.870
 Vibration     9          0.665              1.755              1.697
 Vibration    10          0.679              1.713              1.542
 Vibration    11          0.689              1.683              1.445
 Vibration    12          0.701              1.649              1.348
 Vibration    13          0.710              1.622              1.277
 Vibration    14          0.718              1.600              1.222
 Vibration    15          0.728              1.571              1.158
 Vibration    16          0.736              1.551              1.114
 Vibration    17          0.777              1.442              0.917
 Vibration    18          0.827              1.316              0.737
 Vibration    19          0.877              1.200              0.604
 Vibration    20          0.898              1.155              0.559
 Vibration    21          0.909              1.132              0.537
 Vibration    22          0.928              1.093              0.501
 Vibration    23          0.965              1.018              0.438

 Optimization completed.
    -- Stationary point found.

 1\1\GINC-NODE107\Freq\RB3LYP\6-31G(d)\C8H15N5\VSC10255\09-Dec-2020\0\\
 #N Geom=AllCheck Guess=TCheck SCRF=Check GenChk RB3LYP/6-31G(d) Freq\\
 CID_112681307_JID_3579_neutraal\\0,1\C,0.9789227432,-0.4871361467,-0.4
 488752292\C,0.5196741353,-1.7918974431,0.2064273522\C,1.0763742048,-2.
 043091623,1.6329581383\C,0.5963364509,-0.9609434755,2.609807056\C,0.57
 71243487,-3.4220357077,2.1160124686\C,2.5993385802,-2.0959575704,1.562
 2175782\N,3.3046360395,-1.2723043598,2.3403504066\C,4.6452683241,-1.39
 35337393,2.2181975607\N,5.2907621291,-2.2334724672,1.3985265341\C,4.46

 Normal termination of Gaussian 16 at Wed Dec  9 23:51:22 2020.

 ----------------------------------------------------------------------
 # B3LYP/6-311++G(d,p) empiricaldispersion=gd3bj scf=xqc pop=npa geom=c
 heck
 ----------------------------------------------------------------------

 ---------------------------------------
 CID_112681307_JID_3579_Energie_neutraal
 ---------------------------------------
 Structure from the checkpoint file:  "JID_3579.chk"
 Charge =  0 Multiplicity = 1

 SCF Done:  E(RB3LYP) =  -587.919213900     A.U. after   13 cycles
 Normal termination of Gaussian 16 at Wed Dec  9 23:54:32 2020.

 ----------------------------------------------------------------------
 # B3LYP/6-311++G(d,p) empiricaldispersion=gd3bj scf=xqc pop=npa geom=c
 heck
 ----------------------------------------------------------------------

 -------------------------------------
 CID_112681307_JID_3579_Energie_kation
 -------------------------------------
 Structure from the checkpoint file:  "JID_3579.chk"
 Charge =  1 Multiplicity = 2

 SCF Done:  E(UB3LYP) =  -587.600376337     A.U. after   27 cycles
 Normal termination of Gaussian 16 at Thu Dec 10 00:03:51 2020.
 Gaussian 16:  ES64L-G16RevA.03 25-Dec-2016

 ------------------------------------
 CID_112681307_JID_3579_Energie_anion
 ------------------------------------
 Structure from the checkpoint file:  "JID_3579.chk"
 Charge = -1 Multiplicity = 2

                         Standard orientation:
 ---------------------------------------------------------------------
 Center     Atomic      Atomic             Coordinates (Angstroms)
 Number     Number       Type             X           Y           Z
 ---------------------------------------------------------------------
      1          6           0        2.095723   -0.348266    2.094021
      2          6           0        2.367498   -0.781016    0.651246
      3          6           0        1.704620    0.104475   -0.437103
      4          6           0        2.245351    1.539907   -0.383642
      5          6           0        2.017745   -0.505833   -1.820416
      6          6           0        0.191955    0.069747   -0.242531
      7          7           0       -0.460630    1.224730   -0.095945
      8          6           0       -1.797086    1.099420    0.062478
      9          7           0       -2.483961   -0.049970    0.096009
     10          6           0       -1.711773   -1.138078   -0.056628
     11          7           0       -0.377819   -1.143786   -0.235742
     12          7           0       -2.329193   -2.347776    0.002433
     13          7           0       -2.504717    2.253553    0.173339
     14          1           0        2.481979    0.655100    2.301543
     15          1           0        2.572774   -1.038673    2.798466
     16          1           0        1.021434   -0.345189    2.309818
     17          1           0        3.449694   -0.784852    0.463560
     18          1           0        2.013184   -1.807610    0.512315
     19          1           0        3.335976    1.524114   -0.494685
     20          1           0        1.823231    2.146934   -1.189383
     21          1           0        1.996753    2.036333    0.557003
     22          1           0        1.625859   -1.523994   -1.891498
     23          1           0        1.570601    0.092745   -2.622402
     24          1           0        3.101755   -0.532505   -1.981086
     25          1           0       -3.334793   -2.366030   -0.073087
     26          1           0       -1.802419   -3.150976   -0.305151
     27          1           0       -3.460794    2.193599    0.488702
     28          1           0       -1.985186    3.101608    0.340676
 ---------------------------------------------------------------------

 SCF Done:  E(UB3LYP) =  -587.904450352     A.U. after   33 cycles
 SCF Done:  E(UB3LYP) =  -587.904450352     a.u. after    1 cycles

 The electronic state is 2-A.
 Alpha  occ. eigenvalues --  -14.22460 -14.22361 -14.19664 -14.19529 -14.19355
 Alpha  occ. eigenvalues --  -10.17536 -10.17484 -10.14413 -10.08987 -10.06903
 Alpha  occ. eigenvalues --  -10.06370 -10.06206 -10.05652  -0.92290  -0.84987
 Alpha  occ. eigenvalues --   -0.82051  -0.76719  -0.74859  -0.72026  -0.64164
 Alpha  occ. eigenvalues --   -0.58994  -0.57072  -0.55132  -0.52897  -0.47693
 Alpha  occ. eigenvalues --   -0.47341  -0.42969  -0.39859  -0.38673  -0.36675
 Alpha  occ. eigenvalues --   -0.36134  -0.35833  -0.34412  -0.33160  -0.32041
 Alpha  occ. eigenvalues --   -0.29302  -0.28687  -0.27686  -0.27067  -0.26584
 Alpha  occ. eigenvalues --   -0.25794  -0.24259  -0.23728  -0.22574  -0.21183
 Alpha  occ. eigenvalues --   -0.16122  -0.16042  -0.15420  -0.14306   0.04522
 Alpha virt. eigenvalues --    0.06375   0.06584   0.07551   0.08116   0.08880
 Alpha virt. eigenvalues --    0.09159   0.09853   0.10072   0.10727   0.11056
 Alpha virt. eigenvalues --    0.11871   0.12241   0.12440   0.13632   0.14336

  Beta  occ. eigenvalues --  -14.22400 -14.22301 -14.19640 -14.19519 -14.19345
  Beta  occ. eigenvalues --  -10.17530 -10.17478 -10.14412 -10.08986 -10.06896
  Beta  occ. eigenvalues --  -10.06360 -10.06193 -10.05640  -0.92269  -0.84935
  Beta  occ. eigenvalues --   -0.82013  -0.76659  -0.74812  -0.72015  -0.64147
  Beta  occ. eigenvalues --   -0.58968  -0.57040  -0.55048  -0.52862  -0.47662
  Beta  occ. eigenvalues --   -0.47271  -0.42900  -0.39808  -0.38618  -0.36645
  Beta  occ. eigenvalues --   -0.36108  -0.35782  -0.34387  -0.33143  -0.32021
  Beta  occ. eigenvalues --   -0.29285  -0.28671  -0.27641  -0.27025  -0.26563
  Beta  occ. eigenvalues --   -0.25777  -0.24238  -0.23710  -0.22559  -0.21163
  Beta  occ. eigenvalues --   -0.16102  -0.16001  -0.15367  -0.14263
  Beta virt. eigenvalues --    0.06507   0.07520   0.07699   0.08066   0.08167
  Beta virt. eigenvalues --    0.09280   0.09710   0.09918   0.10528   0.11059
  Beta virt. eigenvalues --    0.11738   0.11945   0.12588   0.12644   0.13874

 Mulliken charges and spin densities:
               1          2
     1  C   -0.264255  -0.389567
     2  C   -0.695136   0.361875
     3  C    1.085913   0.018925
     4  C    0.228335  -0.934579
     5  C   -0.370181  -0.203420
     6  C    0.570926  -1.855752
     7  N   -0.096236   0.081714
     8  C    0.301664  -0.047350
     9  N   -0.021779  -0.220805
    10  C    0.296055  -0.093008
    11  N   -0.078663   0.093388
    12  N   -0.515243   0.236455
    13  N   -0.511327   0.222800
    14  H    0.063014   0.071277
    15  H   -0.118059   0.254114
    16  H    0.046875   0.137804
    17  H    0.014680   0.123207
    18  H    0.147252   0.016437
    19  H    0.074683   0.064708
    20  H    0.081955   0.080956
    21  H    0.016160   0.139163
    22  H    0.026774   0.130281
    23  H    0.083163   0.066271
    24  H    0.014031   0.131982
    25  H   -0.426261   0.713203
    26  H   -0.271190   0.549543
    27  H   -0.432753   0.720856
    28  H   -0.250396   0.529524
 Sum of Mulliken charges =  -1.00000   1.00000

 Dipole moment (field-independent basis, Debye):
    X=              6.6975    Y=              0.1363    Z=             -0.8619  Tot=              6.7541
 Quadrupole moment (field-independent basis, Debye-Ang):
   XX=           -140.5355   YY=           -137.6203   ZZ=           -105.4247
   XY=             -0.1430   XZ=              0.9213   YZ=             -3.7539

 Summary of Natural Population Analysis:

                                       Natural Population
                Natural  -----------------------------------------------
    Atom  No    Charge         Core      Valence    Rydberg      Total
 -----------------------------------------------------------------------
      C    1   -0.28663      0.99966     2.28248    0.00448     3.28663
      C    2   -0.18394      0.99960     2.17626    0.00808     3.18394
      C    3   -0.06305      0.99953     2.05045    0.01307     3.06305
      C    4   -0.28448      0.99964     2.27838    0.00646     3.28448
      C    5   -0.27823      0.99963     2.27284    0.00576     3.27823
      C    6    0.25279      0.99955     1.72568    0.02197     2.74721
      N    7   -0.30497      0.99963     2.79462    0.01071     3.80497
      C    8    0.31177      0.99961     1.66943    0.01919     2.68823
      N    9   -0.30275      0.99964     2.79250    0.01062     3.80275
      C   10    0.31086      0.99961     1.67036    0.01917     2.68914
      N   11   -0.31009      0.99963     2.79950    0.01096     3.81009
      N   12   -0.38025      0.99969     2.87167    0.00888     3.88025
      N   13   -0.37946      0.99969     2.87089    0.00887     3.87946
      H   14    0.09539      0.00000     0.40346    0.00115     0.40461
      H   15    0.09685      0.00000     0.40226    0.00089     0.40315
      H   16    0.10155      0.00000     0.39730    0.00115     0.39845
      H   17    0.09212      0.00000     0.40680    0.00108     0.40788
      H   18    0.10685      0.00000     0.39169    0.00146     0.39315
      H   19    0.09346      0.00000     0.40566    0.00088     0.40654
      H   20    0.10550      0.00000     0.39338    0.00112     0.39450
      H   21    0.10674      0.00000     0.39197    0.00129     0.39326
      H   22    0.10913      0.00000     0.38971    0.00116     0.39087
      H   23    0.09944      0.00000     0.39973    0.00082     0.40056
      H   24    0.09552      0.00000     0.40360    0.00087     0.40448
      H   25    0.19869      0.00000     0.29573    0.00558     0.30131
      H   26    0.19888      0.00000     0.29537    0.00576     0.30112
      H   27    0.19902      0.00000     0.29520    0.00578     0.30098
      H   28    0.19928      0.00000     0.29518    0.00554     0.30072
 =======================================================================
   * Total *    0.00000     12.99513    35.82211    0.18276    49.00000

 Normal termination of Gaussian 16 at Thu Dec 10 00:15:23 2020.
