 Gaussian 16, Revision A.03,

 -----------------------------------------------------------
 # opt freq B3LYP/6-31G(d) empiricaldispersion=gd3bj scf=xqc
 -----------------------------------------------------------

 --------------------------------
 CID_122699978_JID_10989_neutraal
 --------------------------------
 Symbolic Z-matrix:
 Charge =  0 Multiplicity = 1

 SCF Done:  E(RB3LYP) =  -1243.30033764     A.U. after   16 cycles
 SCF Done:  E(RB3LYP) =  -1243.31018830     A.U. after   14 cycles
 SCF Done:  E(RB3LYP) =  -1243.31114666     A.U. after   15 cycles
 SCF Done:  E(RB3LYP) =  -1243.31350458     A.U. after   15 cycles
 SCF Done:  E(RB3LYP) =  -1243.30373906     A.U. after   14 cycles
 SCF Done:  E(RB3LYP) =  -1243.31286453     A.U. after   13 cycles
 SCF Done:  E(RB3LYP) =  -1243.31600615     A.U. after   11 cycles
 SCF Done:  E(RB3LYP) =  -1243.31780416     A.U. after   13 cycles
 SCF Done:  E(RB3LYP) =  -1243.31806911     A.U. after   13 cycles
 SCF Done:  E(RB3LYP) =  -1243.31843298     A.U. after   13 cycles
 SCF Done:  E(RB3LYP) =  -1243.31863673     A.U. after   12 cycles
 SCF Done:  E(RB3LYP) =  -1243.31863869     A.U. after    9 cycles
 SCF Done:  E(RB3LYP) =  -1243.31863908     A.U. after    9 cycles
 SCF Done:  E(RB3LYP) =  -1243.31863930     A.U. after    9 cycles
 SCF Done:  E(RB3LYP) =  -1243.31863930     A.U. after    7 cycles
 SCF Done:  E(RB3LYP) =  -1243.31863926     A.U. after    7 cycles
 Optimization completed.
    -- Stationary point found.
 Normal termination of Gaussian 16 at Sun Dec 13 13:42:27 2020.

 --------------------------------------------------------------------
 #N Geom=AllCheck Guess=TCheck SCRF=Check GenChk RB3LYP/6-31G(d) Freq
 --------------------------------------------------------------------

 Structure from the checkpoint file:  "JID_10989.chk"
 --------------------------------
 CID_122699978_JID_10989_neutraal
 --------------------------------
 Charge =  0 Multiplicity = 1

 SCF Done:  E(RB3LYP) =  -1243.31863926     A.U. after    1 cycles

  Exact polarizability: 288.375 -29.465 149.245  29.907  33.160 156.691
 Approx polarizability: 417.774 -35.936 241.591  73.274  88.922 294.711

                      1                      2                      3
                      A                      A                      A
 Frequencies --     17.7290                30.3684                36.9057
 Red. masses --      5.3649                 4.7728                 4.0618
 Frc consts  --      0.0010                 0.0026                 0.0033
 IR Inten    --      0.0254                 0.0913                 0.5180

                      4                      5                      6
                      A                      A                      A
 Frequencies --     58.0450                65.4790                75.4672
 Red. masses --      4.4502                 6.3764                 4.5415
 Frc consts  --      0.0088                 0.0161                 0.0152
 IR Inten    --      0.3774                 1.2066                 1.6962

                      7                      8                      9
                      A                      A                      A
 Frequencies --     89.4933               126.9826               130.7335
 Red. masses --      6.4343                 5.4586                 5.1824
 Frc consts  --      0.0304                 0.0519                 0.0522
 IR Inten    --      0.3948                 0.0940                 1.4356

                     10                     11                     12
                      A                      A                      A
 Frequencies --    188.1092               190.1190               233.9358
 Red. masses --      3.7733                 6.1530                 3.4608
 Frc consts  --      0.0787                 0.1310                 0.1116
 IR Inten    --      0.7132                 7.3785                 0.9453

                     13                     14                     15
                      A                      A                      A
 Frequencies --    247.2556               261.7758               285.1745
 Red. masses --      2.8265                 1.7698                 3.3671
 Frc consts  --      0.1018                 0.0715                 0.1613
 IR Inten    --      4.1000                 1.3760                 7.6905

                     16                     17                     18
                      A                      A                      A
 Frequencies --    323.3247               359.5123               380.0237
 Red. masses --      2.1483                 4.5417                 3.3357
 Frc consts  --      0.1323                 0.3459                 0.2838
 IR Inten    --      6.3588                 5.5876                10.4239

                     19                     20                     21
                      A                      A                      A
 Frequencies --    383.1950               401.1898               437.5595
 Red. masses --      3.6897                 3.2953                 5.4838
 Frc consts  --      0.3192                 0.3125                 0.6186
 IR Inten    --      0.4267                 0.2189                 8.0905

                     22                     23                     24
                      A                      A                      A
 Frequencies --    466.7995               485.4103               493.3750
 Red. masses --      2.7038                 2.8350                 3.7940
 Frc consts  --      0.3471                 0.3936                 0.5441
 IR Inten    --      5.9670                 6.3030                 5.8991

                     25                     26                     27
                      A                      A                      A
 Frequencies --    514.7865               530.0151               606.4446
 Red. masses --      8.0490                 6.9779                 3.9136
 Frc consts  --      1.2567                 1.1549                 0.8480
 IR Inten    --      0.3598                 0.3422                 2.3887

                     28                     29                     30
                      A                      A                      A
 Frequencies --    613.5466               630.8156               657.7965
 Red. masses --      4.6027                 6.7418                 7.0758
 Frc consts  --      1.0208                 1.5806                 1.8039
 IR Inten    --      7.6056                 8.0269                 8.8542

                     31                     32                     33
                      A                      A                      A
 Frequencies --    679.6480               700.1821               735.1646
 Red. masses --      4.9886                 3.1738                 3.0498
 Frc consts  --      1.3577                 0.9168                 0.9712
 IR Inten    --      2.7643                 6.1258                 5.0781

                     34                     35                     36
                      A                      A                      A
 Frequencies --    768.6624               782.9308               788.6976
 Red. masses --      1.4147                 3.0956                 4.7101
 Frc consts  --      0.4925                 1.1180                 1.7262
 IR Inten    --     34.4832                 1.0113                 6.8265

                     37                     38                     39
                      A                      A                      A
 Frequencies --    795.3697               844.1586               854.9077
 Red. masses --      1.4323                 1.4153                 5.0013
 Frc consts  --      0.5339                 0.5942                 2.1536
 IR Inten    --      6.2138                22.1579                98.0225

                     40                     41                     42
                      A                      A                      A
 Frequencies --    859.8011               874.7497               884.7497
 Red. masses --      2.2526                 2.5491                 1.5524
 Frc consts  --      0.9811                 1.1492                 0.7160
 IR Inten    --     10.1564                 1.3579                17.6186

                     43                     44                     45
                      A                      A                      A
 Frequencies --    920.1557               926.6128               947.7315
 Red. masses --      2.0455                 2.9421                 2.4688
 Frc consts  --      1.0204                 1.4884                 1.3065
 IR Inten    --     30.2160                48.7535                11.3763

                     46                     47                     48
                      A                      A                      A
 Frequencies --    962.5120               985.4626               988.1738
 Red. masses --      1.3600                 2.2292                 1.3135
 Frc consts  --      0.7423                 1.2755                 0.7557
 IR Inten    --      4.0526                 2.7498                 0.0380

                     49                     50                     51
                      A                      A                      A
 Frequencies --    993.4956               997.3682              1028.9157
 Red. masses --      3.2976                 1.3049                 2.6862
 Frc consts  --      1.9177                 0.7648                 1.6755
 IR Inten    --     37.2926                 1.2017                13.5401

                     52                     53                     54
                      A                      A                      A
 Frequencies --   1054.2705              1073.1364              1136.9646
 Red. masses --      2.2845                 3.8068                 1.9731
 Frc consts  --      1.4960                 2.5829                 1.5028
 IR Inten    --      2.5398                36.3130                23.6111

                     55                     56                     57
                      A                      A                      A
 Frequencies --   1154.9256              1171.2443              1184.6533
 Red. masses --      1.7561                 1.4232                 1.2078
 Frc consts  --      1.3801                 1.1503                 0.9987
 IR Inten    --     53.7017                97.4414                 7.4472

                     58                     59                     60
                      A                      A                      A
 Frequencies --   1191.8802              1210.0607              1210.6530
 Red. masses --      1.1521                 1.7111                 1.7013
 Frc consts  --      0.9643                 1.4762                 1.4691
 IR Inten    --      1.7817                43.4323               120.3810

                     61                     62                     63
                      A                      A                      A
 Frequencies --   1232.2710              1256.6971              1290.3253
 Red. masses --      1.2885                 2.7992                 1.7458
 Frc consts  --      1.1528                 2.6046                 1.7126
 IR Inten    --     50.8648                32.9785                18.9762

                     64                     65                     66
                      A                      A                      A
 Frequencies --   1293.3119              1306.2982              1337.0828
 Red. masses --      1.7826                 1.8329                 1.2338
 Frc consts  --      1.7568                 1.8428                 1.2996
 IR Inten    --    156.9039                21.2457                12.1811

                     67                     68                     69
                      A                      A                      A
 Frequencies --   1348.0450              1390.5898              1396.4372
 Red. masses --      1.1441                 1.4729                 1.9789
 Frc consts  --      1.2250                 1.6781                 2.2736
 IR Inten    --     13.0070                50.2254                 8.6649

                     70                     71                     72
                      A                      A                      A
 Frequencies --   1417.9537              1424.9256              1432.8594
 Red. masses --      4.4932                 1.3254                 5.5053
 Frc consts  --      5.3227                 1.5856                 6.6594
 IR Inten    --      7.9861                 8.2256                 4.7943

                     73                     74                     75
                      A                      A                      A
 Frequencies --   1449.1337              1482.4518              1486.4701
 Red. masses --      1.3149                 1.0956                 2.4477
 Frc consts  --      1.6269                 1.4186                 3.1865
 IR Inten    --      4.8764                29.8506                 0.4976

                     76                     77                     78
                      A                      A                      A
 Frequencies --   1500.0260              1516.7930              1517.8170
 Red. masses --      1.1055                 2.2253                 1.0896
 Frc consts  --      1.4656                 3.0164                 1.4790
 IR Inten    --      9.8819                14.8283                 3.6234

                     79                     80                     81
                      A                      A                      A
 Frequencies --   1520.6442              1538.1041              1560.8223
 Red. masses --      1.0438                 1.0588                 3.3593
 Frc consts  --      1.4221                 1.4758                 4.8218
 IR Inten    --      9.5122                28.9627                 0.6227

                     82                     83                     84
                      A                      A                      A
 Frequencies --   1628.8808              1660.8684              1687.2930
 Red. masses --      6.7159                 5.2599                 6.0759
 Frc consts  --     10.4987                 8.5487                10.1915
 IR Inten    --      2.4240                 9.0568                19.1854

                     85                     86                     87
                      A                      A                      A
 Frequencies --   1750.5879              1829.7405              3063.7352
 Red. masses --     12.0032                10.7690                 1.0385
 Frc consts  --     21.6728                21.2425                 5.7432
 IR Inten    --    173.8776               219.9224                14.4800

                     88                     89                     90
                      A                      A                      A
 Frequencies --   3078.1120              3092.6170              3096.8896
 Red. masses --      1.0600                 1.0588                 1.0592
 Frc consts  --      5.9174                 5.9663                 5.9852
 IR Inten    --     11.3635                34.1946                18.8843

                     91                     92                     93
                      A                      A                      A
 Frequencies --   3129.8258              3134.2553              3144.4530
 Red. masses --      1.1010                 1.1051                 1.1048
 Frc consts  --      6.3545                 6.3962                 6.4359
 IR Inten    --     25.3474                 8.0302                13.3195

                     94                     95                     96
                      A                      A                      A
 Frequencies --   3156.7267              3167.7980              3183.8486
 Red. masses --      1.1063                 1.1048                 1.0860
 Frc consts  --      6.4955                 6.5321                 6.4858
 IR Inten    --      0.6733                13.0093                 1.4825

                     97                     98                     99
                      A                      A                      A
 Frequencies --   3187.9586              3190.6120              3201.1919
 Red. masses --      1.0888                 1.0892                 1.0931
 Frc consts  --      6.5199                 6.5326                 6.5996
 IR Inten    --      2.1759                 9.3456                21.0715

                    100                    101                    102
                      A                      A                      A
 Frequencies --   3202.9785              3213.8817              3233.9176
 Red. masses --      1.0905                 1.0973                 1.0926
 Frc consts  --      6.5913                 6.6776                 6.7326
 IR Inten    --     11.3728                29.3813                 3.8189

 - Thermochemistry -
 -------------------
 Temperature   298.150 Kelvin.  Pressure   1.00000 Atm.
 Atom     1 has atomic number  6 and mass  12.00000

 Molecular mass:   288.08202 amu.
 Principal axes and moments of inertia in atomic units:
                           1         2         3
     Eigenvalues --  2824.72865********************
           X            0.99999  -0.00362  -0.00038
           Y            0.00363   0.99968   0.02518
           Z            0.00029  -0.02518   0.99968
 This molecule is an asymmetric top.
 Rotational symmetry number  1.
 Warning -- assumption of classical behavior for rotation
           may cause significant error
 Rotational temperatures (Kelvin)      0.03066     0.00806     0.00762
 Rotational constants (GHZ):           0.63891     0.16791     0.15874
 Zero-point vibrational energy     758216.1 (Joules/Mol)
                                  181.21800 (Kcal/Mol)
 Warning -- explicit consideration of  28 degrees of freedom as
           vibrations may cause significant error
 Vibrational temperatures:     25.51    43.69    53.10    83.51    94.21
          (Kelvin)            108.58   128.76   182.70   188.10   270.65
                              273.54   336.58   355.75   376.64   410.30
                              465.19   517.26   546.77   551.33   577.22
                              629.55   671.62   698.40   709.86   740.66
                              762.57   872.54   882.76   907.60   946.42
                              977.86  1007.41  1057.74  1105.93  1126.46
                             1134.76  1144.36  1214.56  1230.02  1237.06
                             1258.57  1272.96  1323.90  1333.19  1363.57
                             1384.84  1417.86  1421.76  1429.42  1434.99
                             1480.38  1516.86  1544.00  1635.84  1661.68
                             1685.16  1704.45  1714.85  1741.01  1741.86
                             1772.96  1808.11  1856.49  1860.79  1879.47
                             1923.76  1939.54  2000.75  2009.16  2040.12
                             2050.15  2061.57  2084.98  2132.92  2138.70
                             2158.20  2182.33  2183.80  2187.87  2212.99
                             2245.68  2343.60  2389.62  2427.64  2518.71
                             2632.59  4408.03  4428.72  4449.59  4455.73
                             4503.12  4509.49  4524.17  4541.83  4557.75
                             4580.85  4586.76  4590.58  4605.80  4608.37
                             4624.06  4652.89

 Zero-point correction=                           0.288789 (Hartree/Particle)
 Thermal correction to Energy=                    0.307248
 Thermal correction to Enthalpy=                  0.308193
 Thermal correction to Gibbs Free Energy=         0.239560
 Sum of electronic and zero-point Energies=          -1243.029850
 Sum of electronic and thermal Energies=             -1243.011391
 Sum of electronic and thermal Enthalpies=           -1243.010447
 Sum of electronic and thermal Free Energies=        -1243.079079

                     E (Thermal)             CV                S
                      KCal/Mol        Cal/Mol-Kelvin    Cal/Mol-Kelvin
 Total                  192.801             69.761            144.449
 Electronic               0.000              0.000              0.000
 Translational            0.889              2.981             42.872
 Rotational               0.889              2.981             34.200
 Vibrational            191.024             63.799             67.377
 Vibration     1          0.593              1.986              6.874
 Vibration     2          0.594              1.984              5.805
 Vibration     3          0.594              1.982              5.419
 Vibration     4          0.596              1.974              4.523
 Vibration     5          0.597              1.971              4.285
 Vibration     6          0.599              1.965              4.005
 Vibration     7          0.602              1.957              3.671
 Vibration     8          0.611              1.926              2.991
 Vibration     9          0.612              1.923              2.935
 Vibration    10          0.633              1.856              2.246
 Vibration    11          0.633              1.853              2.227
 Vibration    12          0.654              1.789              1.849
 Vibration    13          0.661              1.767              1.750
 Vibration    14          0.669              1.743              1.650
 Vibration    15          0.683              1.701              1.502
 Vibration    16          0.708              1.629              1.293
 Vibration    17          0.734              1.556              1.124
 Vibration    18          0.750              1.513              1.039
 Vibration    19          0.752              1.506              1.027
 Vibration    20          0.767              1.468              0.958
 Vibration    21          0.798              1.388              0.834
 Vibration    22          0.824              1.324              0.747
 Vibration    23          0.841              1.282              0.696
 Vibration    24          0.849              1.265              0.675
 Vibration    25          0.870              1.217              0.622
 Vibration    26          0.885              1.184              0.587
 Vibration    27          0.965              1.018              0.439
 Vibration    28          0.973              1.003              0.427

 Optimization completed.
    -- Stationary point found.
 Normal termination of Gaussian 16 at Sun Dec 13 13:59:59 2020.

 ----------------------------------------------------------------------
 # B3LYP/6-311++G(d,p) empiricaldispersion=gd3bj scf=xqc pop=npa geom=c
 heck
 ----------------------------------------------------------------------

 ----------------------------------------
 CID_122699978_JID_10989_Energie_neutraal
 ----------------------------------------
 Structure from the checkpoint file:  "JID_10989.chk"
 Charge =  0 Multiplicity = 1

 SCF Done:  E(RB3LYP) =  -1243.57359071     A.U. after   16 cycles
 Normal termination of Gaussian 16 at Sun Dec 13 14:07:15 2020.

 ----------------------------------------------------------------------
 # B3LYP/6-311++G(d,p) empiricaldispersion=gd3bj scf=xqc pop=npa geom=c
 heck
 ----------------------------------------------------------------------

 --------------------------------------
 CID_122699978_JID_10989_Energie_kation
 --------------------------------------
 Structure from the checkpoint file:  "JID_10989.chk"
 Charge =  1 Multiplicity = 2

 SCF Done:  E(UB3LYP) =  -1243.27753940     A.U. after   26 cycles
 Normal termination of Gaussian 16 at Sun Dec 13 14:23:24 2020.
 Gaussian 16:  ES64L-G16RevA.03 25-Dec-2016

 ----------------------------------------------------------------------
 # B3LYP/6-311++G(d,p) empiricaldispersion=gd3bj scf=xqc pop=npa geom=c
 heck
 ----------------------------------------------------------------------

 -------------------------------------
 CID_122699978_JID_10989_Energie_anion
 -------------------------------------
 Structure from the checkpoint file:  "JID_10989.chk"
 Charge = -1 Multiplicity = 2

                         Standard orientation:
 ---------------------------------------------------------------------
 Center     Atomic      Atomic             Coordinates (Angstroms)
 Number     Number       Type             X           Y           Z
 ---------------------------------------------------------------------
      1          6           0        1.277537    2.560505   -0.314344
      2          6           0        2.388745    2.289507   -1.313783
      3          8           0        2.736230    0.882782   -1.351161
      4          6           0        3.699284    0.479222   -0.494003
      5          8           0        4.269958    1.205560    0.289092
      6          6           0        3.987141   -1.003749   -0.647169
      7          6           0        3.215572   -1.875493    0.355965
      8         16           0        1.429826   -2.039396   -0.010649
      9          6           0        0.811576   -0.660020    0.981684
     10          8           0        1.535429   -0.054637    1.749607
     11          6           0       -0.629791   -0.336593    0.816610
     12          6           0       -1.389036   -0.806788   -0.238035
     13          6           0       -2.753884   -0.452318   -0.367315
     14          6           0       -3.551447   -0.921559   -1.444563
     15          6           0       -4.875419   -0.561808   -1.545903
     16          6           0       -5.459977    0.286363   -0.574063
     17          6           0       -4.711664    0.759950    0.480382
     18          6           0       -3.344780    0.407723    0.614205
     19          6           0       -2.537461    0.881809    1.684219
     20          6           0       -1.216890    0.526768    1.783809
     21          1           0        0.382491    1.981174   -0.559523
     22          1           0        1.015828    3.624727   -0.335630
     23          1           0        1.595974    2.296884    0.696677
     24          1           0        2.075013    2.516480   -2.335738
     25          1           0        3.287516    2.861144   -1.072203
     26          1           0        3.770600   -1.322943   -1.669864
     27          1           0        5.056734   -1.135179   -0.452528
     28          1           0        3.611141   -2.894050    0.344222
     29          1           0        3.298919   -1.472102    1.367867
     30          1           0       -0.943377   -1.440289   -0.999053
     31          1           0       -3.096070   -1.572342   -2.186426
     32          1           0       -5.478181   -0.926981   -2.372128
     33          1           0       -6.506189    0.563659   -0.665311
     34          1           0       -5.159118    1.412045    1.225884
     35          1           0       -2.986238    1.537362    2.425905
     36          1           0       -0.592234    0.889989    2.591760
 ---------------------------------------------------------------------

 SCF Done:  E(UB3LYP) =  -1243.60184570     A.U. after   26 cycles

 The electronic state is 2-A.
 Alpha  occ. eigenvalues --  -88.71962 -19.06459 -19.00875 -18.95692 -10.20020
 Alpha  occ. eigenvalues --  -10.12752 -10.11385 -10.09684 -10.08905 -10.05297
 Alpha  occ. eigenvalues --  -10.04972 -10.04937 -10.04832 -10.04358 -10.04219
 Alpha  occ. eigenvalues --  -10.04156 -10.04043 -10.03887 -10.03346 -10.02379
 Alpha  occ. eigenvalues --   -7.80669  -5.77031  -5.76627  -5.76128  -1.00347
 Alpha  occ. eigenvalues --   -0.91866  -0.90074  -0.74298  -0.70995  -0.69323
 Alpha  occ. eigenvalues --   -0.66762  -0.64560  -0.62633  -0.61198  -0.59186
 Alpha  occ. eigenvalues --   -0.55561  -0.52376  -0.50202  -0.48352  -0.46731
 Alpha  occ. eigenvalues --   -0.45460  -0.41846  -0.41014  -0.38743  -0.38523
 Alpha  occ. eigenvalues --   -0.37382  -0.37136  -0.36006  -0.34233  -0.32747
 Alpha  occ. eigenvalues --   -0.32282  -0.31511  -0.31462  -0.30547  -0.29598
 Alpha  occ. eigenvalues --   -0.29128  -0.28850  -0.28003  -0.27673  -0.26974
 Alpha  occ. eigenvalues --   -0.26482  -0.25909  -0.25251  -0.24114  -0.23744
 Alpha  occ. eigenvalues --   -0.21702  -0.21281  -0.20353  -0.20020  -0.19835
 Alpha  occ. eigenvalues --   -0.17852  -0.16275  -0.12693  -0.12059  -0.11708
 Alpha  occ. eigenvalues --   -0.09640   0.02579
 Alpha virt. eigenvalues --    0.07281   0.07873   0.08184   0.08903   0.09244
 Alpha virt. eigenvalues --    0.09893   0.10169   0.10407   0.10791   0.11404
 Alpha virt. eigenvalues --    0.11584   0.11873   0.12234   0.12538   0.13416

  Beta  occ. eigenvalues --  -88.71960 -19.06458 -19.00875 -18.95265 -10.20020
  Beta  occ. eigenvalues --  -10.12752 -10.11091 -10.09685 -10.08898 -10.05297
  Beta  occ. eigenvalues --  -10.05059 -10.04918 -10.04841 -10.04331 -10.04246
  Beta  occ. eigenvalues --  -10.03936 -10.03817 -10.03810 -10.03223 -10.01997
  Beta  occ. eigenvalues --   -7.80667  -5.77035  -5.76635  -5.76105  -1.00346
  Beta  occ. eigenvalues --   -0.91866  -0.89300  -0.74037  -0.70964  -0.69005
  Beta  occ. eigenvalues --   -0.66740  -0.64171  -0.62397  -0.61022  -0.58864
  Beta  occ. eigenvalues --   -0.55481  -0.52082  -0.49776  -0.48235  -0.46497
  Beta  occ. eigenvalues --   -0.45444  -0.41448  -0.40978  -0.38681  -0.38360
  Beta  occ. eigenvalues --   -0.37288  -0.37071  -0.35890  -0.34095  -0.32643
  Beta  occ. eigenvalues --   -0.32187  -0.31414  -0.31209  -0.30507  -0.29452
  Beta  occ. eigenvalues --   -0.28969  -0.28540  -0.27808  -0.27311  -0.26454
  Beta  occ. eigenvalues --   -0.26317  -0.25609  -0.24275  -0.24049  -0.23501
  Beta  occ. eigenvalues --   -0.21565  -0.21109  -0.20334  -0.19912  -0.18946
  Beta  occ. eigenvalues --   -0.17848  -0.15106  -0.11939  -0.11668  -0.11154
  Beta  occ. eigenvalues --   -0.08296
  Beta virt. eigenvalues --    0.07240   0.07833   0.08140   0.08357   0.09214
  Beta virt. eigenvalues --    0.09456   0.09907   0.10141   0.10415   0.10774
  Beta virt. eigenvalues --    0.11381   0.11590   0.11860   0.12283   0.12872

 Mulliken charges and spin densities:
               1          2
     1  C   -0.440216  -0.002068
     2  C   -0.162740  -0.001694
     3  O    0.095323  -0.002161
     4  C   -0.420545   0.017261
     5  O   -0.226463  -0.002994
     6  C   -0.144044  -0.043469
     7  C   -0.079931   0.021123
     8  S   -0.236441   0.022239
     9  C    0.224025   0.150690
    10  O   -0.250065   0.143010
    11  C    0.814071   0.064813
    12  C   -0.542395   0.329394
    13  C   -0.365114  -0.073335
    14  C   -0.238516   0.178766
    15  C   -0.373865  -0.059000
    16  C   -0.340215   0.185217
    17  C   -0.193639  -0.008000
    18  C    0.301831   0.036654
    19  C   -0.336631   0.078304
    20  C   -0.361296  -0.009807
    21  H    0.161089  -0.002959
    22  H    0.114372   0.000430
    23  H    0.202156   0.006535
    24  H    0.147387   0.003140
    25  H    0.144914   0.000545
    26  H    0.151794   0.005061
    27  H    0.124732   0.009266
    28  H    0.204063   0.000229
    29  H    0.216156  -0.001113
    30  H    0.114410  -0.019430
    31  H    0.098650  -0.012800
    32  H    0.116859   0.004468
    33  H    0.111093  -0.013668
    34  H    0.087037  -0.003121
    35  H    0.111143  -0.002938
    36  H    0.171013   0.001413
 Sum of Mulliken charges =  -1.00000   1.00000

 Dipole moment (field-independent basis, Debye):
    X=              3.1788    Y=              0.6844    Z=             -2.9843  Tot=              4.4135
 Quadrupole moment (field-independent basis, Debye-Ang):
   XX=           -182.4134   YY=           -136.5508   ZZ=           -138.9070
   XY=             -8.3344   XZ=             -9.9971   YZ=             -0.0002

 Summary of Natural Population Analysis:

                                       Natural Population
                Natural  -----------------------------------------------
    Atom  No    Charge         Core      Valence    Rydberg      Total
 -----------------------------------------------------------------------
      C    1   -0.30448      0.99966     2.29979    0.00503     3.30448
      C    2   -0.01573      0.99959     2.00675    0.00940     3.01573
      O    3   -0.28041      0.99986     3.27052    0.01003     4.28041
      C    4    0.41159      0.99970     1.56247    0.02625     2.58841
      O    5   -0.30924      0.99987     3.30296    0.00641     4.30924
      C    6   -0.23561      0.99957     2.22805    0.00799     3.23561
      C    7   -0.25457      0.99959     2.24534    0.00964     3.25457
      S    8    0.06885      4.99955     2.91481    0.01679     7.93115
      C    9    0.24350      0.99961     1.73260    0.02429     2.75650
      O   10   -0.26389      0.99987     3.25583    0.00819     4.26389
      C   11   -0.06687      0.99945     2.05513    0.01228     3.06687
      C   12    0.00589      0.99944     1.98744    0.00723     2.99411
      C   13   -0.04609      0.99950     2.03829    0.00830     3.04609
      C   14   -0.04238      0.99954     2.03413    0.00872     3.04238
      C   15   -0.13637      0.99958     2.12695    0.00984     3.13637
      C   16   -0.06608      0.99957     2.05685    0.00965     3.06608
      C   17   -0.10026      0.99954     2.09181    0.00891     3.10026
      C   18   -0.00948      0.99949     2.00206    0.00793     3.00948
      C   19   -0.09583      0.99954     2.08724    0.00906     3.09583
      C   20   -0.08695      0.99954     2.07860    0.00881     3.08695
      H   21    0.11176      0.00000     0.38722    0.00102     0.38824
      H   22    0.09340      0.00000     0.40575    0.00084     0.40660
      H   23    0.11720      0.00000     0.38167    0.00113     0.38280
      H   24    0.08440      0.00000     0.41455    0.00104     0.41560
      H   25    0.09038      0.00000     0.40817    0.00145     0.40962
      H   26    0.10698      0.00000     0.39168    0.00134     0.39302
      H   27    0.10453      0.00000     0.39410    0.00137     0.39547
      H   28    0.09915      0.00000     0.39959    0.00126     0.40085
      H   29    0.12126      0.00000     0.37686    0.00187     0.37874
      H   30    0.09490      0.00000     0.40358    0.00153     0.40510
      H   31    0.09028      0.00000     0.40815    0.00158     0.40972
      H   32    0.09302      0.00000     0.40634    0.00064     0.40698
      H   33    0.08811      0.00000     0.41081    0.00108     0.41189
      H   34    0.09037      0.00000     0.40799    0.00164     0.40963
      H   35    0.09355      0.00000     0.40564    0.00082     0.40645
      H   36    0.10516      0.00000     0.39338    0.00145     0.39484
 =======================================================================
   * Total *    0.00002     23.99205    51.77309    0.23484    75.99998

 Normal termination of Gaussian 16 at Sun Dec 13 14:39:23 2020.
