 Gaussian 16, Revision A.03,

 -----------------------------------------------------------
 # opt freq B3LYP/6-31G(d) empiricaldispersion=gd3bj scf=xqc
 -----------------------------------------------------------

 -------------------------------
 CID_105764972_JID_5748_neutraal
 -------------------------------
 Symbolic Z-matrix:
 Charge =  0 Multiplicity = 1

 SCF Done:  E(RB3LYP) =  -725.931202097     A.U. after   15 cycles
 SCF Done:  E(RB3LYP) =  -725.937182228     A.U. after   13 cycles
 SCF Done:  E(RB3LYP) =  -725.934862694     A.U. after   12 cycles
 SCF Done:  E(RB3LYP) =  -725.936446168     A.U. after   13 cycles
 SCF Done:  E(RB3LYP) =  -725.938586968     A.U. after   10 cycles
 SCF Done:  E(RB3LYP) =  -725.939170913     A.U. after   12 cycles
 SCF Done:  E(RB3LYP) =  -725.939277204     A.U. after   12 cycles
 SCF Done:  E(RB3LYP) =  -725.939391786     A.U. after   10 cycles
 SCF Done:  E(RB3LYP) =  -725.939444087     A.U. after   11 cycles
 SCF Done:  E(RB3LYP) =  -725.939477746     A.U. after   11 cycles
 SCF Done:  E(RB3LYP) =  -725.939494922     A.U. after   10 cycles
 SCF Done:  E(RB3LYP) =  -725.939502519     A.U. after   10 cycles
 SCF Done:  E(RB3LYP) =  -725.939506366     A.U. after    9 cycles
 SCF Done:  E(RB3LYP) =  -725.939508948     A.U. after    9 cycles
 SCF Done:  E(RB3LYP) =  -725.939510130     A.U. after    9 cycles
 SCF Done:  E(RB3LYP) =  -725.939510600     A.U. after    8 cycles
 Optimization completed.
    -- Stationary point found.
 Normal termination of Gaussian 16 at Thu Dec 10 16:50:20 2020.

 --------------------------------------------------------------------
 #N Geom=AllCheck Guess=TCheck SCRF=Check GenChk RB3LYP/6-31G(d) Freq
 --------------------------------------------------------------------

 Structure from the checkpoint file:  "JID_5748.chk"
 -------------------------------
 CID_105764972_JID_5748_neutraal
 -------------------------------
 Charge =  0 Multiplicity = 1

 SCF Done:  E(RB3LYP) =  -725.939510600     A.U. after    1 cycles

  Exact polarizability: 124.900   2.087 130.208  -6.368  -4.316  97.661
 Approx polarizability: 162.606   4.129 205.310  -9.476  -9.613 146.368

                      1                      2                      3
                      A                      A                      A
 Frequencies --     28.8730                49.7522                79.7442
 Red. masses --      4.2376                 5.2474                 5.1796
 Frc consts  --      0.0021                 0.0077                 0.0194
 IR Inten    --      0.7799                 0.9251                 4.3222

                      4                      5                      6
                      A                      A                      A
 Frequencies --    118.8709               147.6027               191.6564
 Red. masses --      3.8171                 3.0427                 3.9000
 Frc consts  --      0.0318                 0.0391                 0.0844
 IR Inten    --      3.3745                 6.8045                 0.8609

                      7                      8                      9
                      A                      A                      A
 Frequencies --    209.2059               233.7691               277.5017
 Red. masses --      4.9000                 2.8285                 3.0295
 Frc consts  --      0.1264                 0.0911                 0.1375
 IR Inten    --      1.9910                 5.6130                10.2345

                     10                     11                     12
                      A                      A                      A
 Frequencies --    310.3527               334.2699               380.2353
 Red. masses --      2.3111                 1.2877                 2.5406
 Frc consts  --      0.1312                 0.0848                 0.2164
 IR Inten    --      2.8014                 0.2253                 1.3451

                     13                     14                     15
                      A                      A                      A
 Frequencies --    395.7825               422.5282               437.7205
 Red. masses --      2.5216                 3.5279                 4.0177
 Frc consts  --      0.2327                 0.3711                 0.4535
 IR Inten    --      2.3510                 5.2109                10.2141

                     16                     17                     18
                      A                      A                      A
 Frequencies --    442.8242               456.4235               514.5979
 Red. masses --      6.3139                 2.8233                 1.3739
 Frc consts  --      0.7295                 0.3465                 0.2144
 IR Inten    --      1.4157                10.2573                63.3393

                     19                     20                     21
                      A                      A                      A
 Frequencies --    530.2232               556.1795               593.9858
 Red. masses --      2.4326                 3.1115                 3.3383
 Frc consts  --      0.4029                 0.5671                 0.6940
 IR Inten    --      1.0429                 7.8682                 2.6008

                     22                     23                     24
                      A                      A                      A
 Frequencies --    615.6042               647.0376               695.1211
 Red. masses --      2.8910                 3.0703                 3.9054
 Frc consts  --      0.6455                 0.7574                 1.1118
 IR Inten    --     11.7899                52.8122                 2.8040

                     25                     26                     27
                      A                      A                      A
 Frequencies --    758.6408               780.6590               816.8409
 Red. masses --      2.4219                 3.5234                 4.1094
 Frc consts  --      0.8213                 1.2651                 1.6155
 IR Inten    --      1.6799                 3.1102                 0.6704

                     28                     29                     30
                      A                      A                      A
 Frequencies --    852.9377               859.4038               872.5819
 Red. masses --      3.2005                 2.7888                 2.1907
 Frc consts  --      1.3718                 1.2135                 0.9827
 IR Inten    --      5.9815                 2.5153                 6.1063

                     31                     32                     33
                      A                      A                      A
 Frequencies --    896.0554               947.9860               978.0526
 Red. masses --      2.5984                 1.9800                 2.7309
 Frc consts  --      1.2292                 1.0484                 1.5391
 IR Inten    --      5.0064                 2.0504                 3.2144

                     34                     35                     36
                      A                      A                      A
 Frequencies --   1000.7318              1007.2810              1050.0300
 Red. masses --      2.0132                 2.1210                 1.8010
 Frc consts  --      1.1879                 1.2679                 1.1700
 IR Inten    --      6.8022                 4.1671                14.6050

                     37                     38                     39
                      A                      A                      A
 Frequencies --   1057.2826              1087.5475              1091.6314
 Red. masses --      2.1072                 2.7421                 1.6796
 Frc consts  --      1.3879                 1.9109                 1.1792
 IR Inten    --      7.1801                29.5677                30.4457

                     40                     41                     42
                      A                      A                      A
 Frequencies --   1106.7411              1118.2921              1156.9677
 Red. masses --      2.1231                 1.7790                 2.2776
 Frc consts  --      1.5322                 1.3108                 1.7962
 IR Inten    --     64.5633                 4.0437                11.6857

                     43                     44                     45
                      A                      A                      A
 Frequencies --   1170.8196              1206.9261              1240.6190
 Red. masses --      2.5846                 2.9054                 1.5544
 Frc consts  --      2.0874                 2.4935                 1.4096
 IR Inten    --     29.4660                46.1534                46.2452

                     46                     47                     48
                      A                      A                      A
 Frequencies --   1260.1390              1268.2734              1280.8466
 Red. masses --      1.2352                 1.1592                 1.4732
 Frc consts  --      1.1556                 1.0986                 1.4240
 IR Inten    --     17.2239                 6.1526                 8.5365

                     49                     50                     51
                      A                      A                      A
 Frequencies --   1307.5264              1320.5797              1345.5405
 Red. masses --      1.7508                 1.3231                 1.4914
 Frc consts  --      1.7636                 1.3595                 1.5909
 IR Inten    --     59.1356                13.5792                53.6663

                     52                     53                     54
                      A                      A                      A
 Frequencies --   1351.7098              1373.8030              1384.8060
 Red. masses --      1.9566                 1.4677                 1.3128
 Frc consts  --      2.1063                 1.6320                 1.4832
 IR Inten    --     72.3408                44.6330                 1.4951

                     55                     56                     57
                      A                      A                      A
 Frequencies --   1398.7244              1403.3245              1408.2086
 Red. masses --      1.3362                 1.7619                 1.3846
 Frc consts  --      1.5403                 2.0443                 1.6178
 IR Inten    --      5.9843                45.6576                38.6226

                     58                     59                     60
                      A                      A                      A
 Frequencies --   1411.8695              1434.5113              1438.3716
 Red. masses --      1.4068                 1.4575                 1.3917
 Frc consts  --      1.6522                 1.7671                 1.6964
 IR Inten    --      8.3688                21.5946                16.4639

                     61                     62                     63
                      A                      A                      A
 Frequencies --   1445.5018              1486.9347              1510.7349
 Red. masses --      1.6788                 1.8323                 1.0885
 Frc consts  --      2.0667                 2.3868                 1.4637
 IR Inten    --     42.2858                16.5530                17.5868

                     64                     65                     66
                      A                      A                      A
 Frequencies --   1513.3316              1523.3887              1530.3119
 Red. masses --      1.0901                 1.1629                 1.1031
 Frc consts  --      1.4709                 1.5900                 1.5220
 IR Inten    --      7.4902                19.7166                17.2192

                     67                     68                     69
                      A                      A                      A
 Frequencies --   1535.0588              1538.4124              1552.2000
 Red. masses --      1.1297                 1.0785                 1.0872
 Frc consts  --      1.5684                 1.5040                 1.5434
 IR Inten    --      3.4778                 4.1963                 2.0871

                     70                     71                     72
                      A                      A                      A
 Frequencies --   1778.8345              1821.9768              2995.3521
 Red. masses --     10.9853                 8.8897                 1.0754
 Frc consts  --     20.4802                17.3869                 5.6849
 IR Inten    --    281.8520               342.6141                36.8564

                     73                     74                     75
                      A                      A                      A
 Frequencies --   3010.5569              3019.3864              3031.1420
 Red. masses --      1.0730                 1.0699                 1.0838
 Frc consts  --      5.7301                 5.7470                 5.8667
 IR Inten    --     32.4040                41.8638                16.4610

                     76                     77                     78
                      A                      A                      A
 Frequencies --   3056.1346              3062.3822              3066.5551
 Red. masses --      1.0787                 1.0465                 1.0663
 Frc consts  --      5.9361                 5.7823                 5.9081
 IR Inten    --     18.1083                 6.1848                31.0574

                     79                     80                     81
                      A                      A                      A
 Frequencies --   3073.7892              3101.8382              3111.4704
 Red. masses --      1.0691                 1.1008                 1.0952
 Frc consts  --      5.9512                 6.2404                 6.2473
 IR Inten    --     53.0436                28.0873                46.5162

                     82                     83                     84
                      A                      A                      A
 Frequencies --   3127.8312              3132.5135              3149.6050
 Red. masses --      1.1008                 1.0905                 1.1006
 Frc consts  --      6.3454                 6.3048                 6.4329
 IR Inten    --     23.0113                 6.1370                32.0743

                     85                     86                     87
                      A                      A                      A
 Frequencies --   3169.1358              3255.2906              3604.6677
 Red. masses --      1.0921                 1.0862                 1.0769
 Frc consts  --      6.4622                 6.7816                 8.2446
 IR Inten    --      4.7035                 2.2220                28.4181

 - Thermochemistry -
 -------------------
 Temperature   298.150 Kelvin.  Pressure   1.00000 Atm.
 Atom     1 has atomic number  6 and mass  12.00000

 Molecular mass:   212.11609 amu.
 Principal axes and moments of inertia in atomic units:
                           1         2         3
     Eigenvalues --  2031.975373490.224994698.73825
           X            0.99978   0.02060  -0.00499
           Y           -0.02064   0.99975  -0.00866
           Z            0.00481   0.00876   0.99995
 This molecule is an asymmetric top.
 Rotational symmetry number  1.
 Warning -- assumption of classical behavior for rotation
           may cause significant error
 Rotational temperatures (Kelvin)      0.04263     0.02482     0.01843
 Rotational constants (GHZ):           0.88817     0.51708     0.38409
 Zero-point vibrational energy     701732.2 (Joules/Mol)
                                  167.71802 (Kcal/Mol)
 Warning -- explicit consideration of  22 degrees of freedom as
           vibrations may cause significant error
 Vibrational temperatures:     41.54    71.58   114.73   171.03   212.37
          (Kelvin)            275.75   301.00   336.34   399.26   446.53
                              480.94   547.07   569.44   607.92   629.78
                              637.13   656.69   740.39   762.87   800.22
                              854.61   885.72   930.94  1000.12  1091.51
                             1123.19  1175.25  1227.19  1236.49  1255.45
                             1289.22  1363.94  1407.20  1439.83  1449.25
                             1510.76  1521.19  1564.74  1570.61  1592.35
                             1608.97  1664.62  1684.55  1736.50  1784.97
                             1813.06  1824.76  1842.85  1881.24  1900.02
                             1935.93  1944.81  1976.60  1992.43  2012.45
                             2019.07  2026.10  2031.37  2063.94  2069.50
                             2079.75  2139.37  2173.61  2177.35  2191.82
                             2201.78  2208.61  2213.43  2233.27  2559.35
                             2621.42  4309.64  4331.52  4344.22  4361.14
                             4397.10  4406.08  4412.09  4422.50  4462.85
                             4476.71  4500.25  4506.99  4531.58  4559.68
                             4683.64  5186.31

 Zero-point correction=                           0.267276 (Hartree/Particle)
 Thermal correction to Energy=                    0.280768
 Thermal correction to Enthalpy=                  0.281712
 Thermal correction to Gibbs Free Energy=         0.226650
 Sum of electronic and zero-point Energies=           -725.672235
 Sum of electronic and thermal Energies=              -725.658743
 Sum of electronic and thermal Enthalpies=            -725.657798
 Sum of electronic and thermal Free Energies=         -725.712861

                     E (Thermal)             CV                S
                      KCal/Mol        Cal/Mol-Kelvin    Cal/Mol-Kelvin
 Total                  176.185             52.969            115.888
 Electronic               0.000              0.000              0.000
 Translational            0.889              2.981             41.959
 Rotational               0.889              2.981             31.877
 Vibrational            174.407             47.008             42.052
 Vibration     1          0.593              1.984              5.905
 Vibration     2          0.595              1.978              4.827
 Vibration     3          0.600              1.963              3.897
 Vibration     4          0.609              1.934              3.119
 Vibration     5          0.617              1.905              2.703
 Vibration     6          0.634              1.851              2.212
 Vibration     7          0.642              1.827              2.051
 Vibration     8          0.654              1.789              1.850
 Vibration     9          0.678              1.715              1.549
 Vibration    10          0.699              1.654              1.360
 Vibration    11          0.716              1.607              1.239
 Vibration    12          0.750              1.512              1.038
 Vibration    13          0.763              1.479              0.978
 Vibration    14          0.785              1.421              0.883
 Vibration    15          0.798              1.388              0.834
 Vibration    16          0.802              1.377              0.818
 Vibration    17          0.815              1.347              0.777
 Vibration    18          0.870              1.218              0.623
 Vibration    19          0.885              1.183              0.587
 Vibration    20          0.912              1.126              0.532
 Vibration    21          0.952              1.045              0.460
 Vibration    22          0.975              0.999              0.424

 Optimization completed.
    -- Stationary point found.
 Normal termination of Gaussian 16 at Thu Dec 10 17:01:30 2020.

 ----------------------------------------------------------------------
 # B3LYP/6-311++G(d,p) empiricaldispersion=gd3bj scf=xqc pop=npa geom=c
 heck
 ----------------------------------------------------------------------

 ---------------------------------------
 CID_105764972_JID_5748_Energie_neutraal
 ---------------------------------------
 Structure from the checkpoint file:  "JID_5748.chk"
 Charge =  0 Multiplicity = 1

 SCF Done:  E(RB3LYP) =  -726.151679202     A.U. after   14 cycles
 Normal termination of Gaussian 16 at Thu Dec 10 17:06:52 2020.

 ----------------------------------------------------------------------
 # B3LYP/6-311++G(d,p) empiricaldispersion=gd3bj scf=xqc pop=npa geom=c
 heck
 ----------------------------------------------------------------------

 -------------------------------------
 CID_105764972_JID_5748_Energie_kation
 -------------------------------------
 Structure from the checkpoint file:  "JID_5748.chk"
 Charge =  1 Multiplicity = 2

 SCF Done:  E(UB3LYP) =  -725.835446903     A.U. after   24 cycles
 Normal termination of Gaussian 16 at Thu Dec 10 17:20:06 2020.
 Gaussian 16:  ES64L-G16RevA.03 25-Dec-2016

 ----------------------------------------------------------------------
 # B3LYP/6-311++G(d,p) empiricaldispersion=gd3bj scf=xqc pop=npa geom=c
 heck
 ----------------------------------------------------------------------

 ------------------------------------
 CID_105764972_JID_5748_Energie_anion
 ------------------------------------
 Structure from the checkpoint file:  "JID_5748.chk"
 Charge = -1 Multiplicity = 2

                         Standard orientation:
 ---------------------------------------------------------------------
 Center     Atomic      Atomic             Coordinates (Angstroms)
 Number     Number       Type             X           Y           Z
 ---------------------------------------------------------------------
      1          6           0       -1.518090   -2.127802   -0.459471
      2          6           0       -2.415976   -1.098005    0.233602
      3          6           0       -1.773043   -0.259436    1.362090
      4          6           0       -0.872780    0.901711    0.899123
      5          6           0       -1.643699    1.671532   -0.193262
      6          6           0       -2.174741    0.737433   -1.271492
      7          8           0       -3.047545   -0.246404   -0.724487
      8          7           0        0.477347    0.484178    0.424279
      9          6           0        1.099323   -0.743238    0.940031
     10          6           0        2.131574   -1.325077   -0.020758
     11          8           0        2.287590   -2.528106   -0.160815
     12          7           0        2.840572   -0.375039   -0.686641
     13          6           0        2.752132    1.033592   -0.352930
     14          6           0        1.348574    1.482657    0.062160
     15          8           0        1.082993    2.677329    0.053140
     16          1           0       -1.141919   -2.871399    0.251976
     17          1           0       -0.657562   -1.677238   -0.960069
     18          1           0       -2.108284   -2.653770   -1.216035
     19          1           0       -3.249564   -1.646588    0.686941
     20          1           0       -2.597541    0.223704    1.898837
     21          1           0       -1.281947   -0.909564    2.093442
     22          1           0       -0.714831    1.577435    1.750225
     23          1           0       -1.020725    2.455493   -0.622456
     24          1           0       -2.496975    2.157316    0.295702
     25          1           0       -1.342332    0.267028   -1.815927
     26          1           0       -2.775926    1.289685   -1.999250
     27          1           0        1.580339   -0.567626    1.916509
     28          1           0        0.355139   -1.515357    1.081337
     29          1           0        3.578487   -0.704769   -1.295963
     30          1           0        3.020283    1.636081   -1.223381
     31          1           0        3.443964    1.312841    0.457377
 ---------------------------------------------------------------------

 SCF Done:  E(UB3LYP) =  -726.143752208     A.U. after   29 cycles

 The electronic state is 2-A.
 Alpha  occ. eigenvalues --  -19.02885 -19.00139 -18.99926 -14.25752 -14.24901
 Alpha  occ. eigenvalues --  -10.18458 -10.18428 -10.13260 -10.12558 -10.12496
 Alpha  occ. eigenvalues --  -10.12310 -10.12149 -10.08275 -10.07181 -10.06895
 Alpha  occ. eigenvalues --   -0.95775  -0.94795  -0.94377  -0.86159  -0.83166
 Alpha  occ. eigenvalues --   -0.71145  -0.69204  -0.65529  -0.62785  -0.61566
 Alpha  occ. eigenvalues --   -0.55527  -0.54860  -0.51399  -0.46647  -0.44148
 Alpha  occ. eigenvalues --   -0.43010  -0.42530  -0.40824  -0.39720  -0.38104
 Alpha  occ. eigenvalues --   -0.37678  -0.36006  -0.35100  -0.33953  -0.33476
 Alpha  occ. eigenvalues --   -0.32832  -0.32090  -0.31475  -0.31025  -0.30152
 Alpha  occ. eigenvalues --   -0.29198  -0.27796  -0.27243  -0.26352  -0.25891
 Alpha  occ. eigenvalues --   -0.23958  -0.20711  -0.18418  -0.18114  -0.16711
 Alpha  occ. eigenvalues --   -0.16346  -0.14912   0.04000
 Alpha virt. eigenvalues --    0.05896   0.07288   0.07816   0.08401   0.08725
 Alpha virt. eigenvalues --    0.09431   0.09933   0.09956   0.10293   0.10958
 Alpha virt. eigenvalues --    0.11684   0.11957   0.12466   0.13262   0.13654

  Beta  occ. eigenvalues --  -19.02884 -19.00119 -18.99923 -14.25754 -14.24864
  Beta  occ. eigenvalues --  -10.18457 -10.18413 -10.13252 -10.12515 -10.12487
  Beta  occ. eigenvalues --  -10.12269 -10.12142 -10.08247 -10.07175 -10.06881
  Beta  occ. eigenvalues --   -0.95747  -0.94778  -0.94370  -0.86136  -0.83125
  Beta  occ. eigenvalues --   -0.71109  -0.69182  -0.65463  -0.62724  -0.61522
  Beta  occ. eigenvalues --   -0.55483  -0.54828  -0.51351  -0.46593  -0.44106
  Beta  occ. eigenvalues --   -0.42937  -0.42480  -0.40781  -0.39671  -0.38059
  Beta  occ. eigenvalues --   -0.37635  -0.35982  -0.35039  -0.33928  -0.33444
  Beta  occ. eigenvalues --   -0.32795  -0.32064  -0.31443  -0.30991  -0.30122
  Beta  occ. eigenvalues --   -0.29168  -0.27766  -0.27211  -0.26311  -0.25854
  Beta  occ. eigenvalues --   -0.23931  -0.20691  -0.18400  -0.18082  -0.16698
  Beta  occ. eigenvalues --   -0.16317  -0.14888
  Beta virt. eigenvalues --    0.06369   0.07323   0.07912   0.08074   0.08968
  Beta virt. eigenvalues --    0.09233   0.09917   0.10143   0.10185   0.10613
  Beta virt. eigenvalues --    0.11015   0.12088   0.12353   0.12981   0.13350

 Mulliken charges and spin densities:
               1          2
     1  C    0.108221  -0.585384
     2  C   -0.480904   0.225288
     3  C    0.192291  -0.694496
     4  C    0.420195  -0.125880
     5  C   -0.220092  -0.121746
     6  C   -0.145038  -0.213283
     7  O   -0.093150   0.003008
     8  N    0.280867   0.002086
     9  C    0.740279  -1.203152
    10  C   -0.119431   0.145627
    11  O   -0.338643   0.013657
    12  N   -0.353160   0.148414
    13  C    1.257102  -1.819976
    14  C   -0.426689   0.463807
    15  O   -0.324849   0.031994
    16  H   -0.046007   0.192092
    17  H    0.144056   0.025036
    18  H    0.153964   0.020686
    19  H   -0.165840   0.376481
    20  H   -0.270057   0.461330
    21  H   -0.375868   0.550493
    22  H   -0.187298   0.447930
    23  H    0.182180   0.020378
    24  H    0.072125   0.095582
    25  H    0.076364   0.076590
    26  H    0.102215   0.082500
    27  H   -0.647634   0.877125
    28  H    0.537857  -0.361744
    29  H   -0.332562   0.669603
    30  H   -0.538891   0.764030
    31  H   -0.201604   0.431926
 Sum of Mulliken charges =  -1.00000   1.00000

 Dipole moment (field-independent basis, Debye):
    X=             -4.5113    Y=              0.1524    Z=             -1.7207  Tot=              4.8307
 Quadrupole moment (field-independent basis, Debye-Ang):
   XX=           -158.7632   YY=           -136.3024   ZZ=           -130.0233
   XY=             -1.1654   XZ=              8.6373   YZ=              0.1238

 Summary of Natural Population Analysis:

                                       Natural Population
                Natural  -----------------------------------------------
    Atom  No    Charge         Core      Valence    Rydberg      Total
 -----------------------------------------------------------------------
      C    1   -0.30288      0.99963     2.29826    0.00499     3.30288
      C    2    0.06451      0.99955     1.92009    0.01585     2.93549
      C    3   -0.21089      0.99959     2.20055    0.01074     3.21089
      C    4   -0.00365      0.99956     1.98882    0.01527     3.00365
      C    5   -0.20956      0.99959     2.20246    0.00750     3.20956
      C    6   -0.01281      0.99956     2.00191    0.01134     3.01281
      O    7   -0.30675      0.99989     3.29764    0.00922     4.30675
      N    8   -0.26607      0.99962     2.75389    0.01256     3.76607
      C    9   -0.13009      0.99955     2.11989    0.01064     3.13009
      C   10    0.34111      0.99967     1.63659    0.02263     2.65889
      O   11   -0.31826      0.99988     3.31264    0.00575     4.31826
      N   12   -0.31350      0.99967     2.80331    0.01052     3.81350
      C   13   -0.12688      0.99958     2.11555    0.01174     3.12688
      C   14    0.35296      0.99964     1.62511    0.02229     2.64704
      O   15   -0.31798      0.99988     3.31251    0.00559     4.31798
      H   16    0.10364      0.00000     0.39548    0.00088     0.39636
      H   17    0.10135      0.00000     0.39729    0.00136     0.39865
      H   18    0.10348      0.00000     0.39562    0.00091     0.39652
      H   19    0.09133      0.00000     0.40728    0.00139     0.40867
      H   20    0.11024      0.00000     0.38820    0.00156     0.38976
      H   21    0.10736      0.00000     0.39089    0.00176     0.39264
      H   22    0.10379      0.00000     0.39453    0.00168     0.39621
      H   23    0.11986      0.00000     0.37907    0.00107     0.38014
      H   24    0.09987      0.00000     0.39902    0.00111     0.40013
      H   25    0.08073      0.00000     0.41783    0.00144     0.41927
      H   26    0.09039      0.00000     0.40858    0.00103     0.40961
      H   27    0.10634      0.00000     0.39129    0.00237     0.39366
      H   28    0.11721      0.00000     0.38081    0.00199     0.38279
      H   29    0.20229      0.00000     0.29103    0.00668     0.29771
      H   30    0.11768      0.00000     0.37948    0.00284     0.38232
      H   31    0.10520      0.00000     0.39299    0.00181     0.39480
 =======================================================================
   * Total *   -0.00000     14.99487    41.79862    0.20651    57.00000

 Normal termination of Gaussian 16 at Thu Dec 10 17:32:51 2020.
