 Gaussian 16, Revision A.03,

 -----------------------------------------------------------
 # opt freq B3LYP/6-31G(d) empiricaldispersion=gd3bj scf=xqc
 -----------------------------------------------------------

 --------------------------------
 CID_106984676_JID_10403_neutraal
 --------------------------------
 Symbolic Z-matrix:
 Charge =  0 Multiplicity = 1

 SCF Done:  E(RB3LYP) =  -939.954793177     A.U. after   14 cycles
 SCF Done:  E(RB3LYP) =  -939.959507173     A.U. after   13 cycles
 SCF Done:  E(RB3LYP) =  -939.958865455     A.U. after   13 cycles
 SCF Done:  E(RB3LYP) =  -939.960463595     A.U. after   12 cycles
 SCF Done:  E(RB3LYP) =  -939.961059539     A.U. after   12 cycles
 SCF Done:  E(RB3LYP) =  -939.961308055     A.U. after   12 cycles
 SCF Done:  E(RB3LYP) =  -939.961382498     A.U. after   13 cycles
 SCF Done:  E(RB3LYP) =  -939.962100074     A.U. after   12 cycles
 SCF Done:  E(RB3LYP) =  -939.961497951     A.U. after   12 cycles
 SCF Done:  E(RB3LYP) =  -939.962474353     A.U. after   12 cycles
 SCF Done:  E(RB3LYP) =  -939.962893853     A.U. after   10 cycles
 SCF Done:  E(RB3LYP) =  -939.962905902     A.U. after   10 cycles
 SCF Done:  E(RB3LYP) =  -939.962910177     A.U. after    8 cycles
 SCF Done:  E(RB3LYP) =  -939.962911561     A.U. after    8 cycles
 SCF Done:  E(RB3LYP) =  -939.962911647     A.U. after    7 cycles
 Optimization completed.
    -- Stationary point found.
 Normal termination of Gaussian 16 at Sun Dec 13 20:55:24 2020.

 --------------------------------------------------------------------
 #N Geom=AllCheck Guess=TCheck SCRF=Check GenChk RB3LYP/6-31G(d) Freq
 --------------------------------------------------------------------

 Structure from the checkpoint file:  "JID_10403.chk"
 --------------------------------
 CID_106984676_JID_10403_neutraal
 --------------------------------
 Charge =  0 Multiplicity = 1

 SCF Done:  E(RB3LYP) =  -939.962911647     A.U. after    1 cycles

  Exact polarizability: 179.661  26.065 162.198  -5.802   8.113 149.988
 Approx polarizability: 241.297  53.810 255.956 -23.800  20.066 271.483

                      1                      2                      3
                      A                      A                      A
 Frequencies --     35.4167                54.7774                73.5454
 Red. masses --      5.3223                 6.2296                 4.6809
 Frc consts  --      0.0039                 0.0110                 0.0149
 IR Inten    --      0.0854                 0.2638                 0.0492

                      4                      5                      6
                      A                      A                      A
 Frequencies --     83.2732                96.1807               105.0454
 Red. masses --      4.1390                 2.7582                10.8119
 Frc consts  --      0.0169                 0.0150                 0.0703
 IR Inten    --      0.2841                 0.3622                 2.0719

                      7                      8                      9
                      A                      A                      A
 Frequencies --    131.6854               160.6025               180.6705
 Red. masses --      4.0878                 4.8500                 4.5992
 Frc consts  --      0.0418                 0.0737                 0.0885
 IR Inten    --      1.7450                 0.6706                 1.5592

                     10                     11                     12
                      A                      A                      A
 Frequencies --    219.2159               228.1501               232.5801
 Red. masses --      1.2308                 1.8635                 2.2558
 Frc consts  --      0.0348                 0.0571                 0.0719
 IR Inten    --      1.0901                 5.8192                 4.5326

                     13                     14                     15
                      A                      A                      A
 Frequencies --    250.5132               263.9758               289.6903
 Red. masses --      3.3535                 2.2558                 2.9594
 Frc consts  --      0.1240                 0.0926                 0.1463
 IR Inten    --      1.9404                 1.4372                 0.3771

                     16                     17                     18
                      A                      A                      A
 Frequencies --    322.0685               336.8816               345.9343
 Red. masses --      2.0718                 3.4420                 1.5397
 Frc consts  --      0.1266                 0.2302                 0.1086
 IR Inten    --     20.6325                18.1337               120.6797

                     19                     20                     21
                      A                      A                      A
 Frequencies --    356.7493               363.3963               367.2024
 Red. masses --      1.1389                 2.9656                 3.1384
 Frc consts  --      0.0854                 0.2307                 0.2493
 IR Inten    --     71.1461                 3.0609                 6.1678

                     22                     23                     24
                      A                      A                      A
 Frequencies --    381.8821               421.8325               434.0221
 Red. masses --      2.9684                 2.8466                 2.5775
 Frc consts  --      0.2551                 0.2984                 0.2861
 IR Inten    --     14.0864                 4.5252                 2.1561

                     25                     26                     27
                      A                      A                      A
 Frequencies --    456.8418               468.3536               506.5974
 Red. masses --      2.3064                 3.1941                 3.9417
 Frc consts  --      0.2836                 0.4128                 0.5960
 IR Inten    --      5.7496                 1.9693                 4.4760

                     28                     29                     30
                      A                      A                      A
 Frequencies --    511.5948               532.7018               558.5675
 Red. masses --      3.5844                 2.0845                 3.0431
 Frc consts  --      0.5527                 0.3485                 0.5594
 IR Inten    --     13.8519                18.5906                30.0584

                     31                     32                     33
                      A                      A                      A
 Frequencies --    574.0395               586.8514               633.1563
 Red. masses --      5.0459                 1.5910                 3.0103
 Frc consts  --      0.9796                 0.3228                 0.7110
 IR Inten    --      0.6819                65.0708                20.4678

                     34                     35                     36
                      A                      A                      A
 Frequencies --    642.9194               656.9533               705.8018
 Red. masses --      3.6134                 3.7963                 3.7318
 Frc consts  --      0.8800                 0.9653                 1.0953
 IR Inten    --      1.2207                42.7400                 6.8438

                     37                     38                     39
                      A                      A                      A
 Frequencies --    726.8004               757.6717               764.3833
 Red. masses --      3.2066                 4.9228                 2.4842
 Frc consts  --      0.9980                 1.6650                 0.8552
 IR Inten    --     14.2361                 8.3903                52.0286

                     40                     41                     42
                      A                      A                      A
 Frequencies --    777.7703               807.1116               819.2184
 Red. masses --      2.6910                 3.4909                 2.7622
 Frc consts  --      0.9591                 1.3399                 1.0922
 IR Inten    --      5.2291                 9.6228                10.0578

                     43                     44                     45
                      A                      A                      A
 Frequencies --    855.5097               859.7442               896.8926
 Red. masses --      2.5268                 1.4978                 2.4052
 Frc consts  --      1.0896                 0.6523                 1.1399
 IR Inten    --      8.0453                19.2101                 6.4693

                     46                     47                     48
                      A                      A                      A
 Frequencies --    919.4263               924.7464               942.8099
 Red. masses --      2.0915                 1.3380                 1.9566
 Frc consts  --      1.0417                 0.6742                 1.0247
 IR Inten    --      3.1550                 7.4711                 1.0733

                     49                     50                     51
                      A                      A                      A
 Frequencies --    948.1622               968.0515               977.8524
 Red. masses --      1.2459                 2.2620                 1.4559
 Frc consts  --      0.6599                 1.2490                 0.8202
 IR Inten    --      0.7287                 5.9648                 0.3941

                     52                     53                     54
                      A                      A                      A
 Frequencies --   1001.1500              1009.7989              1028.8057
 Red. masses --      3.0367                 1.9077                 2.8762
 Frc consts  --      1.7933                 1.1461                 1.7936
 IR Inten    --     54.9976                21.4400                10.5176

                     55                     56                     57
                      A                      A                      A
 Frequencies --   1055.2900              1100.7626              1111.9776
 Red. masses --      3.0423                 2.3210                 2.1717
 Frc consts  --      1.9961                 1.6569                 1.5821
 IR Inten    --     14.3515                49.8920                18.8189

                     58                     59                     60
                      A                      A                      A
 Frequencies --   1130.2874              1139.5994              1160.4237
 Red. masses --      1.9082                 2.6187                 2.2790
 Frc consts  --      1.4364                 2.0037                 1.8081
 IR Inten    --     21.0396                76.9263                69.2914

                     61                     62                     63
                      A                      A                      A
 Frequencies --   1172.8798              1176.9888              1200.0288
 Red. masses --      1.7147                 1.5083                 1.6434
 Frc consts  --      1.3898                 1.2311                 1.3944
 IR Inten    --     24.3422               164.3326                41.7823

                     64                     65                     66
                      A                      A                      A
 Frequencies --   1207.6793              1229.9510              1240.4167
 Red. masses --      1.8568                 2.3373                 1.4890
 Frc consts  --      1.5956                 2.0832                 1.3499
 IR Inten    --      7.1025                49.9001                17.0024

                     67                     68                     69
                      A                      A                      A
 Frequencies --   1243.7102              1261.9555              1265.3173
 Red. masses --      1.5653                 1.4068                 1.7887
 Frc consts  --      1.4266                 1.3200                 1.6873
 IR Inten    --     19.8711                23.3448                10.5714

                     70                     71                     72
                      A                      A                      A
 Frequencies --   1310.8733              1326.0659              1347.5439
 Red. masses --      2.1954                 1.4476                 1.9071
 Frc consts  --      2.2228                 1.4998                 2.0404
 IR Inten    --     13.9481                 4.1638                80.2088

                     73                     74                     75
                      A                      A                      A
 Frequencies --   1349.5101              1357.0206              1362.0678
 Red. masses --      1.5784                 1.5249                 1.5577
 Frc consts  --      1.6936                 1.6545                 1.7027
 IR Inten    --     34.2807                54.9695                24.0375

                     76                     77                     78
                      A                      A                      A
 Frequencies --   1371.4857              1374.5282              1382.0007
 Red. masses --      1.4331                 1.5208                 1.4972
 Frc consts  --      1.5883                 1.6929                 1.6848
 IR Inten    --     15.5234                19.6268                 3.6950

                     79                     80                     81
                      A                      A                      A
 Frequencies --   1391.7214              1405.5335              1411.1347
 Red. masses --      1.3298                 2.0683                 1.6705
 Frc consts  --      1.5175                 2.4074                 1.9599
 IR Inten    --      2.9933                64.0158                12.5491

                     82                     83                     84
                      A                      A                      A
 Frequencies --   1435.2438              1455.2051              1506.8997
 Red. masses --      1.2432                 1.2202                 1.6347
 Frc consts  --      1.5089                 1.5224                 2.1871
 IR Inten    --      6.3091                10.2746                49.9453

                     85                     86                     87
                      A                      A                      A
 Frequencies --   1516.2584              1518.5236              1526.9121
 Red. masses --      1.0501                 1.0674                 1.3808
 Frc consts  --      1.4224                 1.4502                 1.8967
 IR Inten    --      0.5963                 0.2489                22.4791

                     88                     89                     90
                      A                      A                      A
 Frequencies --   1531.9467              1535.3859              1542.0437
 Red. masses --      1.1756                 1.0871                 1.0616
 Frc consts  --      1.6255                 1.5099                 1.4874
 IR Inten    --     10.4559                 5.0888                 2.6266

                     91                     92                     93
                      A                      A                      A
 Frequencies --   1551.4722              1552.6308              1556.9274
 Red. masses --      1.1142                 1.0850                 2.7977
 Frc consts  --      1.5801                 1.5410                 3.9956
 IR Inten    --     10.4757                16.8544                65.1030

                     94                     95                     96
                      A                      A                      A
 Frequencies --   1650.0942              1691.5800              1834.9322
 Red. masses --      5.8630                 6.2497                 9.9067
 Frc consts  --      9.4056                10.5365                19.6525
 IR Inten    --     67.3715               137.5131               175.0226

                     97                     98                     99
                      A                      A                      A
 Frequencies --   3022.2231              3035.2000              3040.4701
 Red. masses --      1.0661                 1.0698                 1.0837
 Frc consts  --      5.7375                 5.8065                 5.9023
 IR Inten    --     44.5499                59.5676                10.5854

                    100                    101                    102
                      A                      A                      A
 Frequencies --   3052.1887              3056.8556              3064.4683
 Red. masses --      1.0370                 1.0402                 1.0687
 Frc consts  --      5.6917                 5.7267                 5.9133
 IR Inten    --     18.5155                16.1006                61.1033

                    103                    104                    105
                      A                      A                      A
 Frequencies --   3073.1859              3091.5210              3100.1267
 Red. masses --      1.0968                 1.0943                 1.0699
 Frc consts  --      6.1033                 6.1623                 6.0581
 IR Inten    --     22.1561                63.0953                26.8968

                    106                    107                    108
                      A                      A                      A
 Frequencies --   3113.3043              3120.1396              3130.7377
 Red. masses --      1.1021                 1.1005                 1.1003
 Frc consts  --      6.2940                 6.3122                 6.3541
 IR Inten    --      0.6962                65.5290                27.3111

                    109                    110                    111
                      A                      A                      A
 Frequencies --   3132.4453              3160.1515              3164.5078
 Red. masses --      1.1006                 1.0925                 1.0971
 Frc consts  --      6.3629                 6.4279                 6.4733
 IR Inten    --     31.6872                10.8437                 8.4829

                    112                    113                    114
                      A                      A                      A
 Frequencies --   3167.3936              3187.3262              3235.9073
 Red. masses --      1.0874                 1.0936                 1.0917
 Frc consts  --      6.4275                 6.5458                 6.7349
 IR Inten    --     13.4959                15.0405                 0.7895

                    115                    116                    117
                      A                      A                      A
 Frequencies --   3693.8389              3754.7566              3774.7995
 Red. masses --      1.0639                 1.0659                 1.0651
 Frc consts  --      8.5529                 8.8539                 8.9416
 IR Inten    --     34.7730                43.9678                37.8184

 - Thermochemistry -
 -------------------
 Temperature   298.150 Kelvin.  Pressure   1.00000 Atm.
 Atom     1 has atomic number  6 and mass  12.00000

 Molecular mass:   279.14706 amu.
 Principal axes and moments of inertia in atomic units:
                           1         2         3
     Eigenvalues --  3179.603246351.957927569.01087
           X            0.99992  -0.00327   0.01237
           Y            0.00327   0.99999  -0.00004
           Z           -0.01237   0.00008   0.99992
 This molecule is an asymmetric top.
 Rotational symmetry number  1.
 Warning -- assumption of classical behavior for rotation
           may cause significant error
 Rotational temperatures (Kelvin)      0.02724     0.01364     0.01144
 Rotational constants (GHZ):           0.56760     0.28412     0.23844
 Zero-point vibrational energy     916458.7 (Joules/Mol)
                                  219.03889 (Kcal/Mol)
 Warning -- explicit consideration of  32 degrees of freedom as
           vibrations may cause significant error
 Vibrational temperatures:     50.96    78.81   105.82   119.81   138.38
          (Kelvin)            151.14   189.47   231.07   259.94   315.40
                              328.26   334.63   360.43   379.80   416.80
                              463.38   484.70   497.72   513.28   522.85
                              528.32   549.44   606.92   624.46   657.29
                              673.86   728.88   736.07   766.44   803.65
                              825.91   844.35   910.97   925.02   945.21
                             1015.49  1045.70  1090.12  1099.78  1119.04
                             1161.25  1178.67  1230.89  1236.98  1290.43
                             1322.85  1330.50  1356.49  1364.19  1392.81
                             1406.91  1440.43  1452.88  1480.22  1518.33
                             1583.75  1599.89  1626.23  1639.63  1669.59
                             1687.51  1693.42  1726.57  1737.58  1769.63
                             1784.68  1789.42  1815.67  1820.51  1886.05
                             1907.91  1938.82  1941.64  1952.45  1959.71
                             1973.26  1977.64  1988.39  2002.38  2022.25
                             2030.31  2065.00  2093.72  2168.09  2181.56
                             2184.82  2196.89  2204.13  2209.08  2218.66
                             2232.22  2233.89  2240.07  2374.12  2433.81
                             2640.06  4348.30  4366.98  4374.56  4391.42
                             4398.13  4409.09  4421.63  4448.01  4460.39
                             4479.35  4489.18  4504.43  4506.89  4546.75
                             4553.02  4557.17  4585.85  4655.75  5314.61
                             5402.26  5431.09

 Zero-point correction=                           0.349061 (Hartree/Particle)
 Thermal correction to Energy=                    0.368228
 Thermal correction to Enthalpy=                  0.369172
 Thermal correction to Gibbs Free Energy=         0.302927
 Sum of electronic and zero-point Energies=           -939.613851
 Sum of electronic and thermal Energies=              -939.594684
 Sum of electronic and thermal Enthalpies=            -939.593739
 Sum of electronic and thermal Free Energies=         -939.659985

                     E (Thermal)             CV                S
                      KCal/Mol        Cal/Mol-Kelvin    Cal/Mol-Kelvin
 Total                  231.067             76.248            139.426
 Electronic               0.000              0.000              0.000
 Translational            0.889              2.981             42.778
 Rotational               0.889              2.981             33.391
 Vibrational            229.289             70.286             63.257
 Vibration     1          0.594              1.982              5.500
 Vibration     2          0.596              1.976              4.637
 Vibration     3          0.599              1.966              4.056
 Vibration     4          0.600              1.961              3.812
 Vibration     5          0.603              1.952              3.530
 Vibration     6          0.605              1.945              3.358
 Vibration     7          0.612              1.922              2.921
 Vibration     8          0.622              1.891              2.543
 Vibration     9          0.630              1.866              2.321
 Vibration    10          0.647              1.812              1.966
 Vibration    11          0.651              1.798              1.893
 Vibration    12          0.653              1.791              1.859
 Vibration    13          0.663              1.762              1.727
 Vibration    14          0.671              1.739              1.635
 Vibration    15          0.686              1.693              1.476
 Vibration    16          0.707              1.631              1.300
 Vibration    17          0.718              1.602              1.227
 Vibration    18          0.724              1.584              1.185
 Vibration    19          0.732              1.561              1.136
 Vibration    20          0.737              1.548              1.108
 Vibration    21          0.740              1.540              1.091
 Vibration    22          0.751              1.509              1.032
 Vibration    23          0.784              1.423              0.886
 Vibration    24          0.795              1.396              0.846
 Vibration    25          0.815              1.346              0.775
 Vibration    26          0.826              1.320              0.742
 Vibration    27          0.862              1.235              0.642
 Vibration    28          0.867              1.224              0.630
 Vibration    29          0.888              1.178              0.581
 Vibration    30          0.914              1.121              0.527
 Vibration    31          0.930              1.087              0.497
 Vibration    32          0.944              1.060              0.473

                           ! Non-Optimized Parameters !
 Normal termination of Gaussian 16 at Sun Dec 13 21:20:33 2020.

 ----------------------------------------------------------------------
 # B3LYP/6-311++G(d,p) empiricaldispersion=gd3bj scf=xqc pop=npa geom=c
 heck
 ----------------------------------------------------------------------

 ----------------------------------------
 CID_106984676_JID_10403_Energie_neutraal
 ----------------------------------------
 Structure from the checkpoint file:  "JID_10403.chk"
 Charge =  0 Multiplicity = 1

 SCF Done:  E(RB3LYP) =  -940.246070528     A.U. after   16 cycles
 Normal termination of Gaussian 16 at Sun Dec 13 21:30:36 2020.

 ----------------------------------------------------------------------
 # B3LYP/6-311++G(d,p) empiricaldispersion=gd3bj scf=xqc pop=npa geom=c
 heck
 ----------------------------------------------------------------------

 --------------------------------------
 CID_106984676_JID_10403_Energie_kation
 --------------------------------------
 Structure from the checkpoint file:  "JID_10403.chk"
 Charge =  1 Multiplicity = 2

 SCF Done:  E(UB3LYP) =  -939.968967464     A.U. after   26 cycles
 Normal termination of Gaussian 16 at Sun Dec 13 21:52:40 2020.
 Gaussian 16:  ES64L-G16RevA.03 25-Dec-2016

 ----------------------------------------------------------------------
 # B3LYP/6-311++G(d,p) empiricaldispersion=gd3bj scf=xqc pop=npa geom=c
 heck
 ----------------------------------------------------------------------

 -------------------------------------
 CID_106984676_JID_10403_Energie_anion
 -------------------------------------
 Structure from the checkpoint file:  "JID_10403.chk"
 Charge = -1 Multiplicity = 2

                         Standard orientation:
 ---------------------------------------------------------------------
 Center     Atomic      Atomic             Coordinates (Angstroms)
 Number     Number       Type             X           Y           Z
 ---------------------------------------------------------------------
      1          6           0       -3.167323    2.067607   -0.979372
      2          6           0       -3.056717    0.960409    0.078852
      3          6           0       -4.226134   -0.021729   -0.080749
      4          6           0       -1.659294    0.249907    0.060233
      5          6           0       -1.446918   -0.695957   -1.148369
      6          6           0       -1.483299   -2.106007   -0.528876
      7          7           0       -0.988650   -1.985777    0.845895
      8          6           0       -1.491840   -0.693555    1.310516
      9          6           0        0.446409   -2.216764    1.073797
     10          6           0        1.448379   -1.162619    0.628226
     11          6           0        1.986737   -1.114239   -0.673614
     12          6           0        2.884457   -0.121898   -1.055058
     13          6           0        3.263653    0.855169   -0.137501
     14          6           0        2.769823    0.823971    1.171487
     15          6           0        1.882162   -0.185794    1.531006
     16          8           0        4.140287    1.808550   -0.569045
     17          8           0        1.664095   -2.029203   -1.639734
     18          6           0       -0.603064    1.345964    0.059641
     19          8           0        0.101611    1.669266   -0.870025
     20          8           0       -0.564858    2.015486    1.245636
     21          1           0       -3.012203    1.668201   -1.988140
     22          1           0       -2.433847    2.863876   -0.822705
     23          1           0       -4.164228    2.521004   -0.948727
     24          1           0       -3.143293    1.430610    1.067429
     25          1           0       -4.240292   -0.468611   -1.080976
     26          1           0       -4.202279   -0.835252    0.650114
     27          1           0       -5.174262    0.511081    0.050896
     28          1           0       -0.480227   -0.493100   -1.609033
     29          1           0       -2.206943   -0.564330   -1.923177
     30          1           0       -2.516357   -2.476851   -0.492978
     31          1           0       -0.908056   -2.847466   -1.093207
     32          1           0       -0.833647   -0.261814    2.063878
     33          1           0       -2.469771   -0.837193    1.783110
     34          1           0        0.573754   -2.354203    2.153766
     35          1           0        0.678013   -3.197491    0.634371
     36          1           0        3.276320   -0.105211   -2.065027
     37          1           0        3.090375    1.565445    1.900243
     38          1           0        1.510891   -0.220421    2.552170
     39          1           0        4.321082    2.419155    0.161838
     40          1           0        1.102161   -2.715169   -1.251168
     41          1           0        0.142084    2.678602    1.140084
 ---------------------------------------------------------------------

 SCF Done:  E(UB3LYP) =  -940.238042412     A.U. after   33 cycles
 SCF Done:  E(UB3LYP) =  -940.238042412     a.u. after    1 cycles

 The electronic state is 2-A.
 Alpha  occ. eigenvalues --  -19.07016 -19.06469 -19.05540 -19.01643 -14.21542
 Alpha  occ. eigenvalues --  -10.20590 -10.14378 -10.14123 -10.11609 -10.10671
 Alpha  occ. eigenvalues --  -10.10570 -10.10320 -10.09780 -10.08343 -10.07983
 Alpha  occ. eigenvalues --  -10.07656 -10.07346 -10.07312 -10.07022 -10.06920
 Alpha  occ. eigenvalues --   -1.01163  -0.97593  -0.96622  -0.92166  -0.84739
 Alpha  occ. eigenvalues --   -0.75877  -0.73986  -0.68462  -0.65956  -0.64931
 Alpha  occ. eigenvalues --   -0.64448  -0.60744  -0.59463  -0.55259  -0.53605
 Alpha  occ. eigenvalues --   -0.52009  -0.51190  -0.49095  -0.47330  -0.45451
 Alpha  occ. eigenvalues --   -0.42553  -0.41924  -0.40929  -0.39244  -0.38854
 Alpha  occ. eigenvalues --   -0.37900  -0.37071  -0.36839  -0.35621  -0.34690
 Alpha  occ. eigenvalues --   -0.34320  -0.33049  -0.32391  -0.31969  -0.31623
 Alpha  occ. eigenvalues --   -0.31401  -0.30234  -0.29654  -0.29407  -0.28597
 Alpha  occ. eigenvalues --   -0.28312  -0.28162  -0.27167  -0.26784  -0.26065
 Alpha  occ. eigenvalues --   -0.25333  -0.25097  -0.23674  -0.23047  -0.22598
 Alpha  occ. eigenvalues --   -0.22130  -0.18533  -0.14324  -0.13339  -0.12074
 Alpha  occ. eigenvalues --    0.03826
 Alpha virt. eigenvalues --    0.05362   0.05965   0.07313   0.07666   0.08188
 Alpha virt. eigenvalues --    0.08320   0.08609   0.08808   0.09499   0.09654
 Alpha virt. eigenvalues --    0.09859   0.10549   0.10921   0.11106   0.11366

  Beta  occ. eigenvalues --  -19.06988 -19.06453 -19.05499 -19.01633 -14.21544
  Beta  occ. eigenvalues --  -10.20586 -10.14375 -10.14123 -10.11592 -10.10650
  Beta  occ. eigenvalues --  -10.10567 -10.10308 -10.09773 -10.08324 -10.07983
  Beta  occ. eigenvalues --  -10.07632 -10.07336 -10.07307 -10.06990 -10.06913
  Beta  occ. eigenvalues --   -1.01125  -0.97559  -0.96543  -0.92132  -0.84731
  Beta  occ. eigenvalues --   -0.75849  -0.73967  -0.68438  -0.65929  -0.64892
  Beta  occ. eigenvalues --   -0.64420  -0.60708  -0.59424  -0.55213  -0.53548
  Beta  occ. eigenvalues --   -0.51977  -0.51146  -0.49052  -0.47255  -0.45417
  Beta  occ. eigenvalues --   -0.42526  -0.41891  -0.40896  -0.39205  -0.38814
  Beta  occ. eigenvalues --   -0.37870  -0.37051  -0.36808  -0.35598  -0.34659
  Beta  occ. eigenvalues --   -0.34290  -0.33031  -0.32361  -0.31948  -0.31597
  Beta  occ. eigenvalues --   -0.31365  -0.30211  -0.29628  -0.29373  -0.28571
  Beta  occ. eigenvalues --   -0.28288  -0.28136  -0.27141  -0.26752  -0.26045
  Beta  occ. eigenvalues --   -0.25302  -0.25073  -0.23658  -0.23027  -0.22570
  Beta  occ. eigenvalues --   -0.22090  -0.18499  -0.14293  -0.13322  -0.12055
  Beta virt. eigenvalues --    0.05698   0.06467   0.07064   0.07664   0.08055
  Beta virt. eigenvalues --    0.08285   0.08710   0.08853   0.09034   0.09641
  Beta virt. eigenvalues --    0.09804   0.09997   0.10727   0.11065   0.11317

 Mulliken charges and spin densities:
               1          2
     1  C   -0.154958  -0.424723
     2  C   -0.709771   0.980436
     3  C    0.229526  -0.806458
     4  C    2.647378  -0.570654
     5  C   -0.922624   0.226979
     6  C    0.315400  -0.722397
     7  N    0.164448   0.103477
     8  C   -0.749249  -0.549722
     9  C    0.561243  -1.539804
    10  C   -0.663623   1.400107
    11  C   -1.258097   0.659209
    12  C    0.936575  -0.785996
    13  C    1.198359  -1.798559
    14  C   -0.047885  -0.010744
    15  C   -0.128669   0.116574
    16  O   -0.216883   0.023623
    17  O   -0.138026   0.005648
    18  C   -1.030019  -0.124936
    19  O   -0.119161   0.020733
    20  O   -0.025932   0.031870
    21  H    0.080195   0.067912
    22  H    0.073211   0.117723
    23  H    0.001570   0.151532
    24  H    0.087315   0.134051
    25  H    0.007783   0.142783
    26  H   -0.051415   0.193152
    27  H   -0.160522   0.315697
    28  H    0.299236  -0.062974
    29  H    0.064601   0.074894
    30  H    0.016291   0.148710
    31  H   -0.180390   0.301766
    32  H    0.228204  -0.013256
    33  H   -0.028960   0.151333
    34  H   -0.149314   0.348352
    35  H   -0.137211   0.265422
    36  H    0.177559   0.022791
    37  H   -1.219709   1.403939
    38  H    0.090755   0.064501
    39  H   -0.147073   0.424981
    40  H    0.174380   0.108508
    41  H   -0.114539   0.403520
 Sum of Mulliken charges =  -1.00000   1.00000

 Dipole moment (field-independent basis, Debye):
    X=             -3.6654    Y=             -3.8750    Z=             -1.9431  Tot=              5.6768
 Quadrupole moment (field-independent basis, Debye-Ang):
   XX=           -196.5019   YY=           -174.5518   ZZ=           -157.5652
   XY=            -15.8090   XZ=             -3.2120   YZ=             -5.2656

 Summary of Natural Population Analysis:

                                       Natural Population
                Natural  -----------------------------------------------
    Atom  No    Charge         Core      Valence    Rydberg      Total
 -----------------------------------------------------------------------
      C    1   -0.28599      0.99964     2.28132    0.00503     3.28599
      C    2   -0.10573      0.99958     2.09539    0.01077     3.10573
      C    3   -0.28796      0.99964     2.28202    0.00630     3.28796
      C    4   -0.08477      0.99949     2.07141    0.01387     3.08477
      C    5   -0.20517      0.99960     2.19666    0.00891     3.20517
      C    6   -0.08245      0.99961     2.07184    0.01100     3.08245
      N    7   -0.28028      0.99974     2.76646    0.01409     3.78028
      C    8   -0.08045      0.99958     2.06915    0.01171     3.08045
      C    9   -0.09106      0.99957     2.07784    0.01364     3.09106
      C   10   -0.09059      0.99945     2.08104    0.01011     3.09059
      C   11    0.17056      0.99934     1.81694    0.01316     2.82944
      C   12   -0.14349      0.99946     2.13494    0.00908     3.14349
      C   13    0.17369      0.99939     1.81314    0.01378     2.82631
      C   14   -0.15289      0.99951     2.14097    0.01241     3.15289
      C   15   -0.07820      0.99953     2.06809    0.01057     3.07820
      O   16   -0.33800      0.99988     3.33156    0.00656     4.33800
      O   17   -0.34260      0.99988     3.33644    0.00629     4.34260
      C   18    0.41791      0.99961     1.55423    0.02825     2.58209
      O   19   -0.30171      0.99986     3.29563    0.00622     4.30171
      O   20   -0.35262      0.99987     3.34593    0.00682     4.35262
      H   21    0.09880      0.00000     0.40035    0.00085     0.40120
      H   22    0.10470      0.00000     0.39444    0.00087     0.39530
      H   23    0.09898      0.00000     0.40025    0.00077     0.40102
      H   24    0.10128      0.00000     0.39696    0.00176     0.39872
      H   25    0.09707      0.00000     0.40200    0.00093     0.40293
      H   26    0.10107      0.00000     0.39798    0.00094     0.39893
      H   27    0.10203      0.00000     0.39713    0.00084     0.39797
      H   28    0.11798      0.00000     0.38028    0.00175     0.38202
      H   29    0.10065      0.00000     0.39834    0.00101     0.39935
      H   30    0.09310      0.00000     0.40536    0.00154     0.40690
      H   31    0.09003      0.00000     0.40888    0.00109     0.40997
      H   32    0.10857      0.00000     0.38968    0.00176     0.39143
      H   33    0.09509      0.00000     0.40339    0.00152     0.40491
      H   34    0.10265      0.00000     0.39604    0.00131     0.39735
      H   35    0.09295      0.00000     0.40561    0.00144     0.40705
      H   36    0.10959      0.00000     0.38924    0.00116     0.39041
      H   37    0.10614      0.00000     0.38963    0.00423     0.39386
      H   38    0.10075      0.00000     0.39804    0.00120     0.39925
      H   39    0.23939      0.00000     0.25421    0.00640     0.26061
      H   40    0.23554      0.00000     0.26132    0.00315     0.26446
      H   41    0.24545      0.00000     0.24926    0.00529     0.25455
 =======================================================================
   * Total *    0.00000     19.99223    54.74941    0.25836    75.00000

 Normal termination of Gaussian 16 at Sun Dec 13 22:20:33 2020.
