 Gaussian 16, Revision A.03,

 -----------------------------------------------------------
 # opt freq B3LYP/6-31G(d) empiricaldispersion=gd3bj scf=xqc
 -----------------------------------------------------------

 -----------------------------
 CID_43499889_JID_101_neutraal
 -----------------------------
 Symbolic Z-matrix:
 Charge =  0 Multiplicity = 1

 SCF Done:  E(RB3LYP) =  -459.898848713     A.U. after   14 cycles
 SCF Done:  E(RB3LYP) =  -459.902494439     A.U. after   12 cycles
 SCF Done:  E(RB3LYP) =  -459.903698757     A.U. after   12 cycles
 SCF Done:  E(RB3LYP) =  -459.903846629     A.U. after   12 cycles
 SCF Done:  E(RB3LYP) =  -459.903987204     A.U. after   13 cycles
 SCF Done:  E(RB3LYP) =  -459.904270754     A.U. after   12 cycles
 SCF Done:  E(RB3LYP) =  -459.904569995     A.U. after   12 cycles
 SCF Done:  E(RB3LYP) =  -459.904584904     A.U. after   10 cycles
 SCF Done:  E(RB3LYP) =  -459.904591655     A.U. after    9 cycles
 SCF Done:  E(RB3LYP) =  -459.904592239     A.U. after    8 cycles
 SCF Done:  E(RB3LYP) =  -459.904592455     A.U. after    8 cycles
 SCF Done:  E(RB3LYP) =  -459.904592532     A.U. after    7 cycles
 Optimization completed.
    -- Stationary point found.
 Normal termination of Gaussian 16 at Tue Dec  8 10:17:26 2020.

 --------------------------------------------------------------------
 #N Geom=AllCheck Guess=TCheck SCRF=Check GenChk RB3LYP/6-31G(d) Freq
 --------------------------------------------------------------------

 Structure from the checkpoint file:  "JID_101.chk"
 -----------------------------
 CID_43499889_JID_101_neutraal
 -----------------------------
 Charge =  0 Multiplicity = 1

 SCF Done:  E(RB3LYP) =  -459.904592532     A.U. after    1 cycles

  Exact polarizability:  99.505   2.639  75.814   4.443   0.792  82.469
 Approx polarizability: 125.714   7.166 107.629  14.978   3.339 128.215

                      1                      2                      3
                      A                      A                      A
 Frequencies --     30.9175                53.4503               102.9817
 Red. masses --      4.3806                 5.4908                 4.6171
 Frc consts  --      0.0025                 0.0092                 0.0288
 IR Inten    --      1.1292                 3.5681                 6.8782

                      4                      5                      6
                      A                      A                      A
 Frequencies --    132.3925               150.4626               207.8654
 Red. masses --      3.4330                 4.0718                 3.2821
 Frc consts  --      0.0355                 0.0543                 0.0836
 IR Inten    --      5.8177                 1.8483                 7.6442

                      7                      8                      9
                      A                      A                      A
 Frequencies --    239.7971               259.3335               295.3493
 Red. masses --      1.1356                 2.9872                 3.3797
 Frc consts  --      0.0385                 0.1184                 0.1737
 IR Inten    --      2.5682                 3.1448                 5.3950

                     10                     11                     12
                      A                      A                      A
 Frequencies --    311.6977               326.9606               383.7020
 Red. masses --      1.7127                 1.2413                 1.9454
 Frc consts  --      0.0980                 0.0782                 0.1687
 IR Inten    --     30.1103                83.0100                13.2296

                     13                     14                     15
                      A                      A                      A
 Frequencies --    393.8612               417.9562               528.6610
 Red. masses --      3.1387                 2.2242                 2.5665
 Frc consts  --      0.2869                 0.2289                 0.4226
 IR Inten    --      0.4549                14.9062                 1.8687

                     16                     17                     18
                      A                      A                      A
 Frequencies --    604.5875               624.1759               697.1658
 Red. masses --      2.8987                 2.1904                 2.4604
 Frc consts  --      0.6243                 0.5028                 0.7046
 IR Inten    --      6.0774                11.4681                86.6024

                     19                     20                     21
                      A                      A                      A
 Frequencies --    755.3418               827.7411               839.1355
 Red. masses --      1.4792                 2.5505                 2.8471
 Frc consts  --      0.4972                 1.0296                 1.1812
 IR Inten    --      8.9734                 1.3962                15.9333

                     22                     23                     24
                      A                      A                      A
 Frequencies --    906.1476               920.3555               935.3058
 Red. masses --      1.9382                 1.9684                 1.6489
 Frc consts  --      0.9376                 0.9824                 0.8498
 IR Inten    --      9.7057                 5.9681                 6.4487

                     25                     26                     27
                      A                      A                      A
 Frequencies --    983.8157              1030.2698              1049.5224
 Red. masses --      1.7323                 2.0809                 2.0527
 Frc consts  --      0.9878                 1.3014                 1.3322
 IR Inten    --     16.1514                27.6730                 7.6853

                     28                     29                     30
                      A                      A                      A
 Frequencies --   1084.1705              1100.9065              1118.9088
 Red. masses --      2.4942                 1.5152                 2.4673
 Frc consts  --      1.7273                 1.0820                 1.8200
 IR Inten    --      8.8901                28.8880                19.4911

                     31                     32                     33
                      A                      A                      A
 Frequencies --   1170.2197              1176.5305              1235.4444
 Red. masses --      2.1223                 1.9960                 1.2699
 Frc consts  --      1.7123                 1.6279                 1.1420
 IR Inten    --     53.4501                 2.6710                20.1861

                     34                     35                     36
                      A                      A                      A
 Frequencies --   1242.0810              1263.4489              1313.5194
 Red. masses --      1.2759                 1.5581                 1.2685
 Frc consts  --      1.1598                 1.4654                 1.2895
 IR Inten    --      9.0819                 7.4012                 0.5026

                     37                     38                     39
                      A                      A                      A
 Frequencies --   1352.8639              1370.9170              1386.6471
 Red. masses --      1.3876                 1.3258                 1.3454
 Frc consts  --      1.4963                 1.4681                 1.5242
 IR Inten    --      8.7123                 7.9977                 6.3583

                     40                     41                     42
                      A                      A                      A
 Frequencies --   1394.4583              1408.4641              1423.9472
 Red. masses --      1.3118                 1.2390                 1.2210
 Frc consts  --      1.5028                 1.4482                 1.4586
 IR Inten    --      6.5345                 4.8968                28.1977

                     43                     44                     45
                      A                      A                      A
 Frequencies --   1428.1384              1439.9824              1503.7233
 Red. masses --      1.2647                 1.2707                 1.0817
 Frc consts  --      1.5198                 1.5525                 1.4410
 IR Inten    --      6.6546                20.7303                 2.1732

                     46                     47                     48
                      A                      A                      A
 Frequencies --   1509.7385              1514.5931              1516.3503
 Red. masses --      1.0964                 1.0735                 1.0898
 Frc consts  --      1.4724                 1.4509                 1.4764
 IR Inten    --      6.2811                18.3699                 3.0519

                     49                     50                     51
                      A                      A                      A
 Frequencies --   1530.9696              1541.4211              1542.7672
 Red. masses --      1.0611                 1.1125                 1.1630
 Frc consts  --      1.4654                 1.5574                 1.6309
 IR Inten    --      5.9879                11.5782                24.0502

                     52                     53                     54
                      A                      A                      A
 Frequencies --   2366.1439              3012.6267              3036.7924
 Red. masses --     12.5876                 1.0722                 1.0575
 Frc consts  --     41.5216                 5.7333                 5.7459
 IR Inten    --     10.2275                59.9693                21.6089

                     55                     56                     57
                      A                      A                      A
 Frequencies --   3041.2226              3046.0214              3057.3263
 Red. masses --      1.0660                 1.0635                 1.0621
 Frc consts  --      5.8089                 5.8138                 5.8491
 IR Inten    --     26.0826                28.3286                30.5244

                     58                     59                     60
                      A                      A                      A
 Frequencies --   3063.1878              3084.1470              3099.9733
 Red. masses --      1.0605                 1.1043                 1.0979
 Frc consts  --      5.8626                 6.1889                 6.2161
 IR Inten    --     17.3283                18.5896                41.8902

                     61                     62                     63
                      A                      A                      A
 Frequencies --   3102.1873              3106.7098              3135.5057
 Red. masses --      1.1015                 1.1041                 1.0915
 Frc consts  --      6.2453                 6.2784                 6.3224
 IR Inten    --     57.7780                14.3249                35.2269

                     64                     65                     66
                      A                      A                      A
 Frequencies --   3148.6855              3520.5206              3748.4102
 Red. masses --      1.0994                 1.0732                 1.0660
 Frc consts  --      6.4218                 7.8371                 8.8249
 IR Inten    --     17.6631                 0.7350                15.0433

 - Thermochemistry -
 -------------------
 Temperature   298.150 Kelvin.  Pressure   1.00000 Atm.
 Atom     1 has atomic number  6 and mass  12.00000

 Molecular mass:   142.11061 amu.
 Principal axes and moments of inertia in atomic units:
                           1         2         3
     Eigenvalues --   889.871212413.293742588.80969
           X            0.99959  -0.00168  -0.02842
           Y            0.00187   0.99997   0.00694
           Z            0.02841  -0.00699   0.99957
 This molecule is an asymmetric top.
 Rotational symmetry number  1.
 Warning -- assumption of classical behavior for rotation
           may cause significant error
 Rotational temperatures (Kelvin)      0.09733     0.03589     0.03346
 Rotational constants (GHZ):           2.02809     0.74783     0.69713
 Zero-point vibrational energy     557152.5 (Joules/Mol)
                                  133.16264 (Kcal/Mol)
 Warning -- explicit consideration of  16 degrees of freedom as
           vibrations may cause significant error
 Vibrational temperatures:     44.48    76.90   148.17   190.48   216.48
          (Kelvin)            299.07   345.01   373.12   424.94   448.46
                              470.42   552.06   566.68   601.35   760.63
                              869.87   898.05  1003.07  1086.77  1190.93
                             1207.33  1303.74  1324.19  1345.70  1415.49
                             1482.33  1510.03  1559.88  1583.96  1609.86
                             1683.69  1692.76  1777.53  1787.08  1817.82
                             1889.86  1946.47  1972.44  1995.08  2006.31
                             2026.47  2048.74  2054.77  2071.81  2163.52
                             2172.18  2179.16  2181.69  2202.72  2217.76
                             2219.70  3404.35  4334.50  4369.27  4375.64
                             4382.55  4398.81  4407.24  4437.40  4460.17
                             4463.36  4469.86  4511.29  4530.26  5065.24
                             5393.13

 Zero-point correction=                           0.212208 (Hartree/Particle)
 Thermal correction to Energy=                    0.223826
 Thermal correction to Enthalpy=                  0.224770
 Thermal correction to Gibbs Free Energy=         0.174197
 Sum of electronic and zero-point Energies=           -459.692384
 Sum of electronic and thermal Energies=              -459.680767
 Sum of electronic and thermal Enthalpies=            -459.679822
 Sum of electronic and thermal Free Energies=         -459.730396

                     E (Thermal)             CV                S
                      KCal/Mol        Cal/Mol-Kelvin    Cal/Mol-Kelvin
 Total                  140.453             42.143            106.440
 Electronic               0.000              0.000              0.000
 Translational            0.889              2.981             40.766
 Rotational               0.889              2.981             30.098
 Vibrational            138.675             36.181             35.577
 Vibration     1          0.594              1.984              5.770
 Vibration     2          0.596              1.976              4.685
 Vibration     3          0.605              1.947              3.397
 Vibration     4          0.613              1.921              2.911
 Vibration     5          0.618              1.902              2.666
 Vibration     6          0.641              1.829              2.062
 Vibration     7          0.657              1.780              1.804
 Vibration     8          0.668              1.747              1.666
 Vibration     9          0.690              1.682              1.443
 Vibration    10          0.700              1.651              1.353
 Vibration    11          0.711              1.622              1.275
 Vibration    12          0.753              1.505              1.025
 Vibration    13          0.761              1.483              0.985
 Vibration    14          0.781              1.431              0.899
 Vibration    15          0.884              1.187              0.590
 Vibration    16          0.963              1.022              0.442

                           ! Non-Optimized Parameters !
 Normal termination of Gaussian 16 at Tue Dec  8 10:21:36 2020.

 ----------------------------------------------------------------------
 # B3LYP/6-311++G(d,p) empiricaldispersion=gd3bj scf=xqc pop=npa geom=c
 heck
 ----------------------------------------------------------------------

 -------------------------------------
 CID_43499889_JID_101_Energie_neutraal
 -------------------------------------
 Structure from the checkpoint file:  "JID_101.chk"
 Charge =  0 Multiplicity = 1

 SCF Done:  E(RB3LYP) =  -460.050713174     A.U. after   13 cycles
 Normal termination of Gaussian 16 at Tue Dec  8 10:23:02 2020.

 ----------------------------------------------------------------------
 # B3LYP/6-311++G(d,p) empiricaldispersion=gd3bj scf=xqc pop=npa geom=c
 heck
 ----------------------------------------------------------------------

 -----------------------------------
 CID_43499889_JID_101_Energie_kation
 -----------------------------------
 Structure from the checkpoint file:  "JID_101.chk"
 Charge =  1 Multiplicity = 2

 SCF Done:  E(UB3LYP) =  -459.738963267     A.U. after   20 cycles
 Normal termination of Gaussian 16 at Tue Dec  8 10:25:49 2020.
 Gaussian 16:  ES64L-G16RevA.03 25-Dec-2016

 ----------------------------------------------------------------------
 # B3LYP/6-311++G(d,p) empiricaldispersion=gd3bj scf=xqc pop=npa geom=c
 heck
 ----------------------------------------------------------------------

 ----------------------------------
 CID_43499889_JID_101_Energie_anion
 ----------------------------------
 Structure from the checkpoint file:  "JID_101.chk"
 Charge = -1 Multiplicity = 2

                         Standard orientation:
 ---------------------------------------------------------------------
 Center     Atomic      Atomic             Coordinates (Angstroms)
 Number     Number       Type             X           Y           Z
 ---------------------------------------------------------------------
      1          6           0        2.901203   -0.657930   -0.880052
      2          6           0        1.783053   -0.508119    0.161348
      3          6           0        1.736622    0.938893    0.698991
      4          8           0        1.212570    1.857573   -0.261006
      5          7           0        0.534970   -0.980357   -0.429930
      6          6           0       -0.528566   -1.470254    0.434846
      7          6           0       -1.279533   -0.465512    1.334994
      8          6           0       -1.833283    0.755736    0.570738
      9          6           0       -2.711932    0.363917   -0.534578
     10          7           0       -3.387865    0.023053   -1.414920
     11          1           0        2.692643   -0.045449   -1.767790
     12          1           0        2.965574   -1.695611   -1.215354
     13          1           0        3.873031   -0.351017   -0.475737
     14          1           0        2.011964   -1.164986    1.012085
     15          1           0        1.068415    1.013882    1.559148
     16          1           0        2.738512    1.250171    1.032711
     17          1           0        1.849554    1.928889   -0.988474
     18          1           0        0.185711   -0.293261   -1.093412
     19          1           0       -1.265827   -1.955375   -0.216343
     20          1           0       -0.107930   -2.259263    1.070832
     21          1           0       -2.108184   -0.994556    1.821942
     22          1           0       -0.631226   -0.093024    2.135334
     23          1           0       -2.396006    1.405666    1.250636
     24          1           0       -1.011909    1.354095    0.158695
 ---------------------------------------------------------------------

 SCF Done:  E(UB3LYP) =  -460.040463845     A.U. after   29 cycles

 The electronic state is 2-A.
 Alpha  occ. eigenvalues --  -19.02481 -14.21276 -14.19182 -10.11340 -10.10850
 Alpha  occ. eigenvalues --  -10.10791 -10.09699 -10.09557 -10.08065 -10.05386
 Alpha  occ. eigenvalues --   -0.92445  -0.81216  -0.80415  -0.70720  -0.65860
 Alpha  occ. eigenvalues --   -0.59882  -0.58008  -0.51492  -0.48403  -0.42253
 Alpha  occ. eigenvalues --   -0.40807  -0.38491  -0.37516  -0.35872  -0.33805
 Alpha  occ. eigenvalues --   -0.33555  -0.32403  -0.28996  -0.28712  -0.27807
 Alpha  occ. eigenvalues --   -0.27124  -0.26797  -0.25076  -0.24520  -0.22943
 Alpha  occ. eigenvalues --   -0.22775  -0.22168  -0.18504  -0.12024   0.04368
 Alpha virt. eigenvalues --    0.06503   0.07594   0.08361   0.09508   0.09949
 Alpha virt. eigenvalues --    0.10204   0.11187   0.11900   0.12453   0.12640
 Alpha virt. eigenvalues --    0.12943   0.13459   0.13887   0.14223   0.14609

  Beta  occ. eigenvalues --  -19.02440 -14.21264 -14.19173 -10.11339 -10.10823
  Beta  occ. eigenvalues --  -10.10752 -10.09686 -10.09545 -10.08036 -10.05334
  Beta  occ. eigenvalues --   -0.92354  -0.81193  -0.80390  -0.70671  -0.65801
  Beta  occ. eigenvalues --   -0.59818  -0.57898  -0.51419  -0.48330  -0.42201
  Beta  occ. eigenvalues --   -0.40740  -0.38437  -0.37437  -0.35828  -0.33735
  Beta  occ. eigenvalues --   -0.33510  -0.32345  -0.28948  -0.28669  -0.27757
  Beta  occ. eigenvalues --   -0.27077  -0.26773  -0.25038  -0.24456  -0.22911
  Beta  occ. eigenvalues --   -0.22738  -0.22125  -0.18445  -0.11996
  Beta virt. eigenvalues --    0.06958   0.07723   0.08467   0.08983   0.10191
  Beta virt. eigenvalues --    0.10534   0.10769   0.11606   0.12177   0.12622
  Beta virt. eigenvalues --    0.12844   0.13316   0.13820   0.14123   0.14568

 Mulliken charges and spin densities:
               1          2
     1  C    1.455464  -1.814664
     2  C   -2.180385   1.701457
     3  C    1.779740  -2.182910
     4  O   -0.258800   0.027659
     5  N    0.183156  -0.048141
     6  C   -0.202022  -0.356147
     7  C    0.575841  -0.643832
     8  C   -0.695715   0.647984
     9  C    0.975471  -1.150732
    10  N   -0.352440   0.033540
    11  H   -0.234949   0.361375
    12  H   -0.263575   0.430015
    13  H   -0.271620   0.408663
    14  H   -0.176366   0.305306
    15  H   -0.114131   0.289713
    16  H   -0.536960   0.698871
    17  H   -0.093500   0.365129
    18  H    0.371401  -0.127222
    19  H    0.130518   0.049128
    20  H   -0.189317   0.340356
    21  H   -0.204346   0.371211
    22  H   -0.412440   0.572929
    23  H   -0.472543   0.664035
    24  H    0.187516   0.056277
 Sum of Mulliken charges =  -1.00000   1.00000

 Dipole moment (field-independent basis, Debye):
    X=             -1.6457    Y=             -1.3578    Z=             -0.6173  Tot=              2.2211
 Quadrupole moment (field-independent basis, Debye-Ang):
   XX=           -130.7265   YY=            -96.3420   ZZ=           -101.7842
   XY=             -1.1450   XZ=             -2.5081   YZ=             -2.1892

 Summary of Natural Population Analysis:

                                       Natural Population
                Natural  -----------------------------------------------
    Atom  No    Charge         Core      Valence    Rydberg      Total
 -----------------------------------------------------------------------
      C    1   -0.28838      0.99965     2.28159    0.00714     3.28838
      C    2   -0.02595      0.99960     2.01343    0.01292     3.02595
      C    3   -0.01570      0.99957     2.00316    0.01297     3.01570
      O    4   -0.37723      0.99990     3.36988    0.00745     4.37723
      N    5   -0.34526      0.99973     2.83390    0.01163     3.84526
      C    6   -0.08799      0.99962     2.07602    0.01236     3.08799
      C    7   -0.19152      0.99962     2.18299    0.00890     3.19152
      C    8   -0.26031      0.99953     2.25161    0.00916     3.26031
      C    9    0.16440      0.99966     1.81867    0.01727     2.83560
      N   10   -0.19468      0.99979     2.68379    0.01111     3.69468
      H   11    0.09399      0.00000     0.40450    0.00150     0.40601
      H   12    0.10480      0.00000     0.39381    0.00139     0.39520
      H   13    0.10036      0.00000     0.39794    0.00170     0.39964
      H   14    0.09500      0.00000     0.40334    0.00166     0.40500
      H   15    0.08633      0.00000     0.41132    0.00235     0.41367
      H   16    0.08226      0.00000     0.41538    0.00236     0.41774
      H   17    0.23378      0.00000     0.26146    0.00476     0.26622
      H   18    0.17693      0.00000     0.31955    0.00352     0.32307
      H   19    0.09530      0.00000     0.40369    0.00101     0.40470
      H   20    0.09489      0.00000     0.40395    0.00116     0.40511
      H   21    0.09960      0.00000     0.39865    0.00175     0.40040
      H   22    0.10207      0.00000     0.39583    0.00211     0.39793
      H   23    0.12270      0.00000     0.37533    0.00197     0.37730
      H   24    0.13460      0.00000     0.36268    0.00272     0.36540
 =======================================================================
   * Total *    0.00000      9.99668    28.86247    0.14085    39.00000

 Normal termination of Gaussian 16 at Tue Dec  8 10:29:51 2020.
