 Gaussian 16, Revision A.03,

 -----------------------------------------------------------
 # opt freq B3LYP/6-31G(d) empiricaldispersion=gd3bj scf=xqc
 -----------------------------------------------------------

 ------------------------------
 CID_15059651_JID_2395_neutraal
 ------------------------------
 Symbolic Z-matrix:
 Charge =  0 Multiplicity = 1

 SCF Done:  E(RB3LYP) =  -573.453732726     A.U. after   15 cycles
 SCF Done:  E(RB3LYP) =  -573.458490158     A.U. after   13 cycles
 SCF Done:  E(RB3LYP) =  -573.458438806     A.U. after   12 cycles
 SCF Done:  E(RB3LYP) =  -573.458991023     A.U. after   12 cycles
 SCF Done:  E(RB3LYP) =  -573.459028896     A.U. after   10 cycles
 SCF Done:  E(RB3LYP) =  -573.459028931     A.U. after   10 cycles
 SCF Done:  E(RB3LYP) =  -573.459039818     A.U. after    9 cycles
 SCF Done:  E(RB3LYP) =  -573.459040187     A.U. after    8 cycles
 SCF Done:  E(RB3LYP) =  -573.459040220     A.U. after    7 cycles
 Optimization completed.
    -- Stationary point found.
 Normal termination of Gaussian 16 at Wed Dec  9 17:14:04 2020.

 --------------------------------------------------------------------
 #N Geom=AllCheck Guess=TCheck SCRF=Check GenChk RB3LYP/6-31G(d) Freq
 --------------------------------------------------------------------

 Structure from the checkpoint file:  "JID_2395.chk"
 ------------------------------
 CID_15059651_JID_2395_neutraal
 ------------------------------
 Charge =  0 Multiplicity = 1

 SCF Done:  E(RB3LYP) =  -573.459040220     A.U. after    1 cycles

  Exact polarizability: 148.029  -1.557  72.953  -0.231  -1.460  66.450
 Approx polarizability: 240.632  -7.217 104.646   6.964  -5.480 103.171

                      1                      2                      3
                      A                      A                      A
 Frequencies --     56.5943                85.1222               162.8714
 Red. masses --      7.3125                 8.3731                 3.4426
 Frc consts  --      0.0138                 0.0357                 0.0538
 IR Inten    --      8.0540                 3.2984                 1.3844

                      4                      5                      6
                      A                      A                      A
 Frequencies --    178.8105               273.4313               307.0001
 Red. masses --      3.9803                 2.8129                 9.2182
 Frc consts  --      0.0750                 0.1239                 0.5119
 IR Inten    --      2.2044                 0.8070                 0.2134

                      7                      8                      9
                      A                      A                      A
 Frequencies --    331.8345               396.0957               428.3082
 Red. masses --      3.4986                 2.9507                 4.3756
 Frc consts  --      0.2270                 0.2728                 0.4729
 IR Inten    --      3.0806                 3.7474                 8.8512

                     10                     11                     12
                      A                      A                      A
 Frequencies --    475.0873               518.2130               543.6314
 Red. masses --      3.1643                 3.5398                 4.0549
 Frc consts  --      0.4208                 0.5601                 0.7061
 IR Inten    --      6.5504                 3.0702                 3.9631

                     13                     14                     15
                      A                      A                      A
 Frequencies --    610.2331               628.1658               712.0221
 Red. masses --      5.0726                 3.2386                 4.9297
 Frc consts  --      1.1129                 0.7529                 1.4725
 IR Inten    --      2.8942                 0.8183                 1.5247

                     16                     17                     18
                      A                      A                      A
 Frequencies --    719.7932               735.3598               766.0499
 Red. masses --      2.9737                 3.7357                 2.2082
 Frc consts  --      0.9078                 1.1902                 0.7635
 IR Inten    --      5.9028                 1.2203                 4.7991

                     19                     20                     21
                      A                      A                      A
 Frequencies --    817.8497               831.8439               836.8650
 Red. masses --      1.7475                 2.1206                 4.6300
 Frc consts  --      0.6887                 0.8646                 1.9105
 IR Inten    --     15.7182                38.5137                 8.9867

                     22                     23                     24
                      A                      A                      A
 Frequencies --    922.6043               960.6100               972.7159
 Red. masses --      4.0897                 2.9588                 1.4032
 Frc consts  --      2.0510                 1.6086                 0.7822
 IR Inten    --     56.3236                26.6777                 3.4882

                     25                     26                     27
                      A                      A                      A
 Frequencies --    983.1292              1012.9022              1020.1591
 Red. masses --      1.7157                 2.1221                 1.2950
 Frc consts  --      0.9771                 1.2828                 0.7940
 IR Inten    --      6.1716                27.4381                 1.0641

                     28                     29                     30
                      A                      A                      A
 Frequencies --   1059.5082              1104.9745              1116.0375
 Red. masses --      1.8532                 2.3243                 1.9791
 Frc consts  --      1.2257                 1.6720                 1.4524
 IR Inten    --     27.5540                53.9358                25.7926

                     31                     32                     33
                      A                      A                      A
 Frequencies --   1134.2375              1181.2062              1233.1379
 Red. masses --      1.9712                 1.8106                 2.8072
 Frc consts  --      1.4941                 1.4884                 2.5151
 IR Inten    --     65.7522                42.2178                21.2979

                     34                     35                     36
                      A                      A                      A
 Frequencies --   1241.0287              1263.6746              1298.4644
 Red. masses --      1.4547                 2.1650                 1.7252
 Frc consts  --      1.3200                 2.0370                 1.7138
 IR Inten    --     16.0384                50.9089                14.5699

                     37                     38                     39
                      A                      A                      A
 Frequencies --   1359.0987              1367.7149              1382.5139
 Red. masses --      1.6781                 1.6491                 1.6568
 Frc consts  --      1.8263                 1.8176                 1.8658
 IR Inten    --      6.9293                 1.6190                11.5662

                     40                     41                     42
                      A                      A                      A
 Frequencies --   1411.6277              1493.3706              1523.1250
 Red. masses --      1.6860                 1.0812                 1.0902
 Frc consts  --      1.9794                 1.4207                 1.4901
 IR Inten    --      9.2930                 7.3739                 4.5285

                     43                     44                     45
                      A                      A                      A
 Frequencies --   1674.9299              1692.7979              1789.5973
 Red. masses --      6.8199                 7.3495                11.3778
 Frc consts  --     11.2725                12.4084                21.4693
 IR Inten    --      8.6374                 9.0664               266.3758

                     46                     47                     48
                      A                      A                      A
 Frequencies --   1883.5117              3037.1801              3074.7300
 Red. masses --     12.6709                 1.0704                 1.0599
 Frc consts  --     26.4847                 5.8176                 5.9036
 IR Inten    --    498.6070                 9.4505                14.4796

                     49                     50                     51
                      A                      A                      A
 Frequencies --   3119.9247              3124.8190              3190.7483
 Red. masses --      1.1018                 1.0969                 1.0875
 Frc consts  --      6.3188                 6.3103                 6.5232
 IR Inten    --     13.5971                12.1551                 1.6263

                     52                     53                     54
                      A                      A                      A
 Frequencies --   3213.7208              3242.2204              3274.3398
 Red. masses --      1.0969                 1.0904                 1.1045
 Frc consts  --      6.6746                 6.7536                 6.9767
 IR Inten    --      6.0555                 0.8447                 0.3786

 - Thermochemistry -
 -------------------
 Temperature   298.150 Kelvin.  Pressure   1.00000 Atm.
 Atom     1 has atomic number  6 and mass  12.00000

 Molecular mass:   164.04734 amu.
 Principal axes and moments of inertia in atomic units:
                           1         2         3
     Eigenvalues --   632.578823293.527523383.92944
           X            0.99996  -0.00069  -0.00907
           Y            0.00116   0.99863   0.05238
           Z            0.00903  -0.05239   0.99859
 This molecule is an asymmetric top.
 Rotational symmetry number  1.
 Warning -- assumption of classical behavior for rotation
           may cause significant error
 Rotational temperatures (Kelvin)      0.13692     0.02630     0.02560
 Rotational constants (GHZ):           2.85299     0.54797     0.53333
 Zero-point vibrational energy     405387.8 (Joules/Mol)
                                   96.89000 (Kcal/Mol)
 Warning -- explicit consideration of  13 degrees of freedom as
           vibrations may cause significant error
 Vibrational temperatures:     81.43   122.47   234.34   257.27   393.41
          (Kelvin)            441.70   477.44   569.89   616.24   683.54
                              745.59   782.16   877.99   903.79  1024.44
                             1035.62  1058.02  1102.17  1176.70  1196.84
                             1204.06  1327.42  1382.10  1399.52  1414.50
                             1457.34  1467.78  1524.40  1589.81  1605.73
                             1631.91  1699.49  1774.21  1785.56  1818.15
                             1868.20  1955.44  1967.84  1989.13  2031.02
                             2148.63  2191.44  2409.85  2435.56  2574.83
                             2709.95  4369.82  4423.85  4488.88  4495.92
                             4590.78  4623.83  4664.83  4711.04

 Zero-point correction=                           0.154404 (Hartree/Particle)
 Thermal correction to Energy=                    0.163901
 Thermal correction to Enthalpy=                  0.164846
 Thermal correction to Gibbs Free Energy=         0.119093
 Sum of electronic and zero-point Energies=           -573.304636
 Sum of electronic and thermal Energies=              -573.295139
 Sum of electronic and thermal Enthalpies=            -573.294195
 Sum of electronic and thermal Free Energies=         -573.339947

                     E (Thermal)             CV                S
                      KCal/Mol        Cal/Mol-Kelvin    Cal/Mol-Kelvin
 Total                  102.850             37.214             96.294
 Electronic               0.000              0.000              0.000
 Translational            0.889              2.981             41.193
 Rotational               0.889              2.981             30.334
 Vibrational            101.072             31.253             24.766
 Vibration     1          0.596              1.975              4.573
 Vibration     2          0.601              1.959              3.769
 Vibration     3          0.623              1.888              2.516
 Vibration     4          0.629              1.868              2.341
 Vibration     5          0.676              1.722              1.574
 Vibration     6          0.697              1.660              1.378
 Vibration     7          0.714              1.612              1.251
 Vibration     8          0.763              1.479              0.977
 Vibration     9          0.790              1.409              0.864
 Vibration    10          0.832              1.305              0.723
 Vibration    11          0.873              1.210              0.614
 Vibration    12          0.899              1.154              0.558
 Vibration    13          0.969              1.010              0.432

                           ! Non-Optimized Parameters !
 Normal termination of Gaussian 16 at Wed Dec  9 17:18:11 2020.

 ----------------------------------------------------------------------
 # B3LYP/6-311++G(d,p) empiricaldispersion=gd3bj scf=xqc pop=npa geom=c
 heck
 ----------------------------------------------------------------------

 --------------------------------------
 CID_15059651_JID_2395_Energie_neutraal
 --------------------------------------
 Structure from the checkpoint file:  "JID_2395.chk"
 Charge =  0 Multiplicity = 1

 SCF Done:  E(RB3LYP) =  -573.622716695     A.U. after   15 cycles
 Normal termination of Gaussian 16 at Wed Dec  9 17:19:52 2020.

 ----------------------------------------------------------------------
 # B3LYP/6-311++G(d,p) empiricaldispersion=gd3bj scf=xqc pop=npa geom=c
 heck
 ----------------------------------------------------------------------

 ------------------------------------
 CID_15059651_JID_2395_Energie_kation
 ------------------------------------
 Structure from the checkpoint file:  "JID_2395.chk"
 Charge =  1 Multiplicity = 2

 SCF Done:  E(UB3LYP) =  -573.273655792     A.U. after   33 cycles
 SCF Done:  E(UB3LYP) =  -573.273655793     a.u. after    2 cycles
 Normal termination of Gaussian 16 at Wed Dec  9 17:27:14 2020.
 Gaussian 16:  ES64L-G16RevA.03 25-Dec-2016

 ----------------------------------------------------------------------
 # B3LYP/6-311++G(d,p) empiricaldispersion=gd3bj scf=xqc pop=npa geom=c
 heck
 ----------------------------------------------------------------------

 -----------------------------------
 CID_15059651_JID_2395_Energie_anion
 -----------------------------------
 Structure from the checkpoint file:  "JID_2395.chk"
 Charge = -1 Multiplicity = 2

                         Standard orientation:
 ---------------------------------------------------------------------
 Center     Atomic      Atomic             Coordinates (Angstroms)
 Number     Number       Type             X           Y           Z
 ---------------------------------------------------------------------
      1          6           0        1.876553   -1.231229   -0.167335
      2          6           0        0.503203   -1.040534   -0.820667
      3          6           0       -0.325263    0.013504   -0.073649
      4          6           0        0.471570    1.279285    0.137542
      5          6           0        1.811646    1.302400    0.174056
      6          6           0        2.633720    0.081036    0.008283
      7          8           0        3.852421    0.124963    0.041592
      8          6           0       -0.900214   -0.473547    1.240113
      9          6           0       -2.231377   -0.424421    1.191225
     10          6           0       -2.642857    0.082324   -0.141539
     11          8           0       -3.741977    0.269171   -0.592321
     12          8           0       -1.490804    0.331291   -0.861053
     13          1           0        1.765981   -1.679903    0.830700
     14          1           0        2.506237   -1.912474   -0.745927
     15          1           0        0.623154   -0.684067   -1.849285
     16          1           0       -0.053845   -1.981619   -0.860350
     17          1           0       -0.117357    2.181687    0.282690
     18          1           0        2.360239    2.226403    0.332721
     19          1           0       -0.271943   -0.787309    2.065186
     20          1           0       -2.951471   -0.699038    1.950346
 ---------------------------------------------------------------------

 SCF Done:  E(UB3LYP) =  -573.651284595     A.U. after   24 cycles

 The electronic state is 2-A.
 Alpha  occ. eigenvalues --  -19.01873 -18.96670 -18.93837 -10.15416 -10.11141
 Alpha  occ. eigenvalues --  -10.08581 -10.05127 -10.04943 -10.04522 -10.04054
 Alpha  occ. eigenvalues --  -10.02776 -10.01659  -0.96178  -0.88957  -0.87774
 Alpha  occ. eigenvalues --   -0.70444  -0.66557  -0.62110  -0.58889  -0.50323
 Alpha  occ. eigenvalues --   -0.47396  -0.45644  -0.43121  -0.39514  -0.36084
 Alpha  occ. eigenvalues --   -0.34019  -0.32841  -0.31745  -0.29691  -0.29549
 Alpha  occ. eigenvalues --   -0.28496  -0.27760  -0.26610  -0.25690  -0.23607
 Alpha  occ. eigenvalues --   -0.23162  -0.21762  -0.20708  -0.17562  -0.15025
 Alpha  occ. eigenvalues --   -0.14300  -0.12999  -0.09528   0.03493
 Alpha virt. eigenvalues --    0.08103   0.09183   0.10182   0.10862   0.11290
 Alpha virt. eigenvalues --    0.12899   0.13098   0.13344   0.14583   0.15918
 Alpha virt. eigenvalues --    0.16400   0.17601   0.18116   0.18310   0.19014

  Beta  occ. eigenvalues --  -19.01791 -18.96553 -18.93435 -10.15359 -10.11189
  Beta  occ. eigenvalues --  -10.08375 -10.04881 -10.04878 -10.04538 -10.03891
  Beta  occ. eigenvalues --  -10.02405 -10.01553  -0.96012  -0.88763  -0.87055
  Beta  occ. eigenvalues --   -0.70087  -0.66106  -0.61716  -0.58501  -0.50026
  Beta  occ. eigenvalues --   -0.46647  -0.45198  -0.42871  -0.39314  -0.35825
  Beta  occ. eigenvalues --   -0.33706  -0.32590  -0.31357  -0.29420  -0.29359
  Beta  occ. eigenvalues --   -0.28027  -0.27642  -0.26245  -0.25203  -0.23263
  Beta  occ. eigenvalues --   -0.22693  -0.21310  -0.19711  -0.16662  -0.14132
  Beta  occ. eigenvalues --   -0.13944  -0.11194  -0.09164
  Beta virt. eigenvalues --    0.08957   0.09247   0.10162   0.10658   0.10897
  Beta virt. eigenvalues --    0.11514   0.12911   0.13077   0.13345   0.14618
  Beta virt. eigenvalues --    0.15943   0.16630   0.17635   0.18412   0.18744

 Mulliken charges and spin densities:
               1          2
     1  C   -0.005912   0.001399
     2  C   -0.581085   0.002792
     3  C    0.613629  -0.048460
     4  C   -0.447124   0.292015
     5  C    0.095013   0.103315
     6  C   -0.509331   0.150867
     7  O   -0.395257   0.135126
     8  C   -0.249354   0.159623
     9  C   -0.172048   0.157187
    10  C   -0.035685   0.030449
    11  O   -0.392531   0.037010
    12  O   -0.067902   0.009637
    13  H    0.120777   0.006298
    14  H    0.158705   0.005757
    15  H    0.148471   0.008652
    16  H    0.140198  -0.005312
    17  H    0.161601  -0.022193
    18  H    0.141889  -0.005490
    19  H    0.139875  -0.010152
    20  H    0.136070  -0.008522
 Sum of Mulliken charges =  -1.00000   1.00000

 Dipole moment (field-independent basis, Debye):
    X=             -0.9670    Y=             -2.1640    Z=              1.5724  Tot=              2.8444
 Quadrupole moment (field-independent basis, Debye-Ang):
   XX=           -137.9507   YY=            -75.0638   ZZ=            -76.8515
   XY=              0.0799   XZ=             -6.6871   YZ=              0.5252

 Summary of Natural Population Analysis:

                                       Natural Population
                Natural  -----------------------------------------------
    Atom  No    Charge         Core      Valence    Rydberg      Total
 -----------------------------------------------------------------------
      C    1   -0.23130      0.99960     2.22423    0.00748     3.23130
      C    2   -0.17856      0.99959     2.17094    0.00804     3.17856
      C    3    0.09887      0.99947     1.88360    0.01806     2.90113
      C    4   -0.00170      0.99950     1.99182    0.01038     3.00170
      C    5   -0.13558      0.99949     2.12640    0.00968     3.13558
      C    6    0.28590      0.99964     1.69341    0.02105     2.71410
      O    7   -0.27041      0.99988     3.26223    0.00831     4.27041
      C    8   -0.02179      0.99950     2.01349    0.00880     3.02179
      C    9   -0.14143      0.99946     2.13353    0.00844     3.14143
      C   10    0.39360      0.99967     1.58118    0.02556     2.60640
      O   11   -0.30310      0.99986     3.29622    0.00701     4.30310
      O   12   -0.28089      0.99986     3.27209    0.00894     4.28089
      H   13    0.10118      0.00000     0.39765    0.00117     0.39882
      H   14    0.10305      0.00000     0.39547    0.00149     0.39695
      H   15    0.10159      0.00000     0.39733    0.00107     0.39841
      H   16    0.09585      0.00000     0.40287    0.00128     0.40415
      H   17    0.09265      0.00000     0.40630    0.00104     0.40735
      H   18    0.09469      0.00000     0.40285    0.00246     0.40531
      H   19    0.09810      0.00000     0.40101    0.00089     0.40190
      H   20    0.09929      0.00000     0.39965    0.00106     0.40071
 =======================================================================
   * Total *   -0.00000     11.99552    30.85226    0.15222    43.00000

 Normal termination of Gaussian 16 at Wed Dec  9 17:30:24 2020.
