 Gaussian 16, Revision A.03,

 -----------------------------------------------------------
 # opt freq B3LYP/6-31G(d) empiricaldispersion=gd3bj scf=xqc
 -----------------------------------------------------------

 -------------------------------
 CID_103569446_JID_6418_neutraal
 -------------------------------
 Symbolic Z-matrix:
 Charge =  0 Multiplicity = 1

 SCF Done:  E(RB3LYP) =  -690.750505531     A.U. after   14 cycles
 SCF Done:  E(RB3LYP) =  -690.757185052     A.U. after   12 cycles
 SCF Done:  E(RB3LYP) =  -690.754022448     A.U. after   12 cycles
 SCF Done:  E(RB3LYP) =  -690.757592450     A.U. after   12 cycles
 SCF Done:  E(RB3LYP) =  -690.758824145     A.U. after   12 cycles
 SCF Done:  E(RB3LYP) =  -690.760005503     A.U. after   12 cycles
 SCF Done:  E(RB3LYP) =  -690.760925212     A.U. after   12 cycles
 SCF Done:  E(RB3LYP) =  -690.761241376     A.U. after   11 cycles
 SCF Done:  E(RB3LYP) =  -690.761342852     A.U. after   11 cycles
 SCF Done:  E(RB3LYP) =  -690.761414649     A.U. after   11 cycles
 SCF Done:  E(RB3LYP) =  -690.761434799     A.U. after    6 cycles
 SCF Done:  E(RB3LYP) =  -690.761434857     A.U. after    6 cycles
 SCF Done:  E(RB3LYP) =  -690.761434895     A.U. after    7 cycles
 SCF Done:  E(RB3LYP) =  -690.761434915     A.U. after    6 cycles
 SCF Done:  E(RB3LYP) =  -690.761434935     A.U. after    6 cycles
 SCF Done:  E(RB3LYP) =  -690.761434946     A.U. after    6 cycles
 Optimization completed.
    -- Stationary point found.
 Normal termination of Gaussian 16 at Thu Dec 10 22:51:46 2020.

 --------------------------------------------------------------------
 #N Geom=AllCheck Guess=TCheck SCRF=Check GenChk RB3LYP/6-31G(d) Freq
 --------------------------------------------------------------------

 Structure from the checkpoint file:  "JID_6418.chk"
 -------------------------------
 CID_103569446_JID_6418_neutraal
 -------------------------------
 Charge =  0 Multiplicity = 1

 SCF Done:  E(RB3LYP) =  -690.761434946     A.U. after    1 cycles

  Exact polarizability: 173.363  -6.080 137.793  -4.783  -1.615 136.473
 Approx polarizability: 235.992  -5.516 183.583  -6.074  -6.868 220.522

                      1                      2                      3
                      A                      A                      A
 Frequencies --     30.7686                42.4356                46.8088
 Red. masses --      2.6614                 3.2962                 3.0258
 Frc consts  --      0.0015                 0.0035                 0.0039
 IR Inten    --      0.1777                 0.3497                 0.3802

                      4                      5                      6
                      A                      A                      A
 Frequencies --     87.0116                91.6791                96.8244
 Red. masses --      2.6433                 2.7980                 2.5373
 Frc consts  --      0.0118                 0.0139                 0.0140
 IR Inten    --      0.1374                 0.7265                 0.3207

                      7                      8                      9
                      A                      A                      A
 Frequencies --    127.3438               133.9294               166.6423
 Red. masses --      3.1111                 3.2652                 3.1454
 Frc consts  --      0.0297                 0.0345                 0.0515
 IR Inten    --      2.7290                 0.8541                 3.7772

                     10                     11                     12
                      A                      A                      A
 Frequencies --    176.9319               210.7489               227.4402
 Red. masses --      2.6057                 2.4677                 1.4136
 Frc consts  --      0.0481                 0.0646                 0.0431
 IR Inten    --      1.4934                 5.7063                 0.1301

                     13                     14                     15
                      A                      A                      A
 Frequencies --    240.0355               257.6876               268.4037
 Red. masses --      1.2840                 1.9074                 1.2886
 Frc consts  --      0.0436                 0.0746                 0.0547
 IR Inten    --      4.8461                 1.3675                 2.4074

                     16                     17                     18
                      A                      A                      A
 Frequencies --    283.6840               305.5306               316.3853
 Red. masses --      2.6092                 1.4900                 1.8981
 Frc consts  --      0.1237                 0.0819                 0.1119
 IR Inten    --      2.7230                29.8131                 3.5286

                     19                     20                     21
                      A                      A                      A
 Frequencies --    326.0844               351.8757               374.9746
 Red. masses --      1.4027                 1.7406                 2.5095
 Frc consts  --      0.0879                 0.1270                 0.2079
 IR Inten    --      9.6794                15.4061                 1.1286

                     22                     23                     24
                      A                      A                      A
 Frequencies --    394.4318               425.6162               438.4927
 Red. masses --      2.6328                 3.4081                 3.0063
 Frc consts  --      0.2413                 0.3638                 0.3406
 IR Inten    --      2.4728                 1.4494                 6.5398

                     25                     26                     27
                      A                      A                      A
 Frequencies --    464.6353               539.3579               596.2047
 Red. masses --      3.1004                 3.0892                 3.1213
 Frc consts  --      0.3944                 0.5295                 0.6537
 IR Inten    --      5.5931                 1.6811                 9.9759

                     28                     29                     30
                      A                      A                      A
 Frequencies --    663.5624               685.7215               696.2410
 Red. masses --      6.1773                 3.3081                 3.3359
 Frc consts  --      1.6025                 0.9165                 0.9528
 IR Inten    --      3.9509                 4.1155                10.5029

                     31                     32                     33
                      A                      A                      A
 Frequencies --    762.3903               796.1761               800.0797
 Red. masses --      2.2336                 2.1940                 1.3570
 Frc consts  --      0.7649                 0.8194                 0.5118
 IR Inten    --      8.6062                 2.8326                 3.9949

                     34                     35                     36
                      A                      A                      A
 Frequencies --    807.8194               849.6029               858.6103
 Red. masses --      1.4402                 1.2878                 1.7142
 Frc consts  --      0.5537                 0.5477                 0.7446
 IR Inten    --      4.7156                 7.3636                 4.4072

                     37                     38                     39
                      A                      A                      A
 Frequencies --    873.2083               898.9213               909.8063
 Red. masses --      1.4661                 1.4512                 1.9798
 Frc consts  --      0.6586                 0.6909                 0.9655
 IR Inten    --     15.7582                57.7977                17.2597

                     40                     41                     42
                      A                      A                      A
 Frequencies --    968.4512               971.1051               990.3964
 Red. masses --      2.0708                 2.4674                 1.1899
 Frc consts  --      1.1443                 1.3709                 0.6877
 IR Inten    --     20.1898                17.3881                 0.5774

                     43                     44                     45
                      A                      A                      A
 Frequencies --   1009.8914              1010.6586              1033.7994
 Red. masses --      2.1306                 2.8906                 2.2939
 Frc consts  --      1.2803                 1.7396                 1.4444
 IR Inten    --     16.9969                48.5306                 3.1934

                     46                     47                     48
                      A                      A                      A
 Frequencies --   1048.1460              1075.6139              1105.7905
 Red. masses --      2.7357                 2.3806                 1.8357
 Frc consts  --      1.7708                 1.6227                 1.3225
 IR Inten    --     26.8262                20.9106                11.6713

                     49                     50                     51
                      A                      A                      A
 Frequencies --   1120.9658              1123.0152              1127.6700
 Red. masses --      1.6970                 1.8195                 2.3712
 Frc consts  --      1.2563                 1.3520                 1.7766
 IR Inten    --      0.3668                29.5397                14.9416

                     52                     53                     54
                      A                      A                      A
 Frequencies --   1154.6696              1164.5332              1169.2804
 Red. masses --      1.5073                 2.5566                 1.7245
 Frc consts  --      1.1840                 2.0427                 1.3892
 IR Inten    --      8.3180                 5.1648                 7.7448

                     55                     56                     57
                      A                      A                      A
 Frequencies --   1176.7880              1210.8956              1219.3911
 Red. masses --      1.6622                 1.5203                 1.4954
 Frc consts  --      1.3562                 1.3134                 1.3101
 IR Inten    --     16.3314                 5.0727                11.0493

                     58                     59                     60
                      A                      A                      A
 Frequencies --   1233.7178              1276.2397              1280.4613
 Red. masses --      2.2563                 2.1460                 1.8650
 Frc consts  --      2.0234                 2.0594                 1.8016
 IR Inten    --     50.7565                39.6450                10.4173

                     61                     62                     63
                      A                      A                      A
 Frequencies --   1310.3725              1314.5643              1357.5276
 Red. masses --      1.3149                 1.4173                 1.3601
 Frc consts  --      1.3302                 1.4430                 1.4768
 IR Inten    --      4.3622                 5.5634                 6.1519

                     64                     65                     66
                      A                      A                      A
 Frequencies --   1367.2032              1374.8988              1390.1276
 Red. masses --      1.7053                 1.8513                 1.3864
 Frc consts  --      1.8780                 2.0619                 1.5785
 IR Inten    --     28.3538                 6.7676                 2.8494

                     67                     68                     69
                      A                      A                      A
 Frequencies --   1404.5915              1411.5951              1426.8782
 Red. masses --      1.3137                 1.2710                 1.2854
 Frc consts  --      1.5270                 1.4922                 1.5419
 IR Inten    --     21.1950                13.0588                11.1794

                     70                     71                     72
                      A                      A                      A
 Frequencies --   1432.1104              1435.8727              1439.8004
 Red. masses --      3.1780                 1.3559                 1.2833
 Frc consts  --      3.8402                 1.6470                 1.5675
 IR Inten    --      6.6173                 7.9950                 1.3709

                     73                     74                     75
                      A                      A                      A
 Frequencies --   1443.8743              1450.2739              1459.0321
 Red. masses --      1.5699                 1.3967                 1.6978
 Frc consts  --      1.9283                 1.7308                 2.1294
 IR Inten    --      1.1863                13.2922                12.8330

                     76                     77                     78
                      A                      A                      A
 Frequencies --   1488.2808              1495.2955              1511.6917
 Red. masses --      3.4722                 1.1696                 1.1153
 Frc consts  --      4.5313                 1.5408                 1.5016
 IR Inten    --     24.6609                 9.7834                 2.1122

                     79                     80                     81
                      A                      A                      A
 Frequencies --   1515.1648              1518.3379              1519.5335
 Red. masses --      1.0805                 1.0452                 1.0797
 Frc consts  --      1.4615                 1.4196                 1.4689
 IR Inten    --      0.6314                 9.2912                14.4177

                     82                     83                     84
                      A                      A                      A
 Frequencies --   1525.4219              1528.3370              1534.8330
 Red. masses --      1.0729                 1.0457                 1.0614
 Frc consts  --      1.4710                 1.4392                 1.4732
 IR Inten    --      1.9169                 5.7140                 6.0691

                     85                     86                     87
                      A                      A                      A
 Frequencies --   1535.9144              1537.4855              1544.0499
 Red. masses --      1.0681                 1.0637                 1.0512
 Frc consts  --      1.4846                 1.4815                 1.4766
 IR Inten    --      2.0859                 4.1092                 3.7130

                     88                     89                     90
                      A                      A                      A
 Frequencies --   1552.2651              1613.9684              1695.9288
 Red. masses --      1.0582                 5.3523                 1.0863
 Frc consts  --      1.5023                 8.2144                 1.8409
 IR Inten    --      1.5231                16.6347                31.6401

                     91                     92                     93
                      A                      A                      A
 Frequencies --   2924.5343              2962.2248              2990.3715
 Red. masses --      1.0644                 1.0814                 1.0738
 Frc consts  --      5.3635                 5.5908                 5.6577
 IR Inten    --     95.6764                28.0691               112.1847

                     94                     95                     96
                      A                      A                      A
 Frequencies --   3016.9707              3040.5171              3046.3079
 Red. masses --      1.0832                 1.0370                 1.0413
 Frc consts  --      5.8088                 5.6486                 5.6934
 IR Inten    --     25.3968                30.4595                35.8066

                     97                     98                     99
                      A                      A                      A
 Frequencies --   3053.0721              3057.9201              3077.6157
 Red. masses --      1.0672                 1.0355                 1.0646
 Frc consts  --      5.8610                 5.7049                 5.9408
 IR Inten    --     59.2860                18.4378                12.1064

                    100                    101                    102
                      A                      A                      A
 Frequencies --   3081.0142              3081.2743              3096.1465
 Red. masses --      1.0598                 1.0902                 1.0998
 Frc consts  --      5.9274                 6.0986                 6.2117
 IR Inten    --     28.5430                41.7935                12.6050

                    103                    104                    105
                      A                      A                      A
 Frequencies --   3100.3527              3102.7780              3113.7283
 Red. masses --      1.1024                 1.0974                 1.0989
 Frc consts  --      6.2431                 6.2249                 6.2775
 IR Inten    --     37.4233                55.2170                33.9877

                    106                    107                    108
                      A                      A                      A
 Frequencies --   3119.9663              3131.8765              3133.4431
 Red. masses --      1.1044                 1.1031                 1.1025
 Frc consts  --      6.3340                 6.3750                 6.3776
 IR Inten    --      9.1230                59.9174                21.7778

                    109                    110                    111
                      A                      A                      A
 Frequencies --   3149.5183              3150.6951              3246.2198
 Red. masses --      1.1045                 1.0994                 1.0959
 Frc consts  --      6.4552                 6.4302                 6.8042
 IR Inten    --     20.9622                22.2954                 6.9920

                    112                    113                    114
                      A                      A                      A
 Frequencies --   3300.4797              3479.3484              3569.9871
 Red. masses --      1.0980                 1.0517                 1.0900
 Frc consts  --      7.0473                 7.5016                 8.1849
 IR Inten    --      3.4205                 2.7464                 0.6895

 - Thermochemistry -
 -------------------
 Temperature   298.150 Kelvin.  Pressure   1.00000 Atm.
 Atom     1 has atomic number  6 and mass  12.00000

 Molecular mass:   224.20010 amu.
 Principal axes and moments of inertia in atomic units:
                           1         2         3
     Eigenvalues --  2699.354294528.566505579.95227
           X            0.99972  -0.02057  -0.01192
           Y            0.02055   0.99979  -0.00168
           Z            0.01195   0.00143   0.99993
 This molecule is an asymmetric top.
 Rotational symmetry number  1.
 Warning -- assumption of classical behavior for rotation
           may cause significant error
 Rotational temperatures (Kelvin)      0.03209     0.01913     0.01552
 Rotational constants (GHZ):           0.66858     0.39852     0.32343
 Zero-point vibrational energy     952569.5 (Joules/Mol)
                                  227.66956 (Kcal/Mol)
 Warning -- explicit consideration of  27 degrees of freedom as
           vibrations may cause significant error
 Vibrational temperatures:     44.27    61.06    67.35   125.19   131.91
          (Kelvin)            139.31   183.22   192.69   239.76   254.57
                              303.22   327.24   345.36   370.76   386.17
                              408.16   439.59   455.21   469.16   506.27
                              539.50   567.50   612.37   630.89   668.51
                              776.02   857.81   954.72   986.60  1001.74
                             1096.91  1145.52  1151.14  1162.27  1222.39
                             1235.35  1256.35  1293.35  1309.01  1393.39
                             1397.20  1424.96  1453.01  1454.11  1487.41
                             1508.05  1547.57  1590.99  1612.82  1615.77
                             1622.47  1661.31  1675.50  1682.33  1693.14
                             1742.21  1754.43  1775.04  1836.22  1842.30
                             1885.33  1891.36  1953.18  1967.10  1978.17
                             2000.08  2020.89  2030.97  2052.96  2060.49
                             2065.90  2071.55  2077.41  2086.62  2099.22
                             2141.30  2151.40  2174.99  2179.98  2184.55
                             2186.27  2194.74  2198.94  2208.28  2209.84
                             2212.10  2221.54  2233.36  2322.14  2440.06
                             4207.75  4261.98  4302.48  4340.75  4374.63
                             4382.96  4392.69  4399.66  4428.00  4432.89
                             4433.27  4454.66  4460.72  4464.21  4479.96
                             4488.94  4506.07  4508.33  4531.45  4533.15
                             4670.59  4748.65  5006.01  5136.42

 Zero-point correction=                           0.362815 (Hartree/Particle)
 Thermal correction to Energy=                    0.381033
 Thermal correction to Enthalpy=                  0.381977
 Thermal correction to Gibbs Free Energy=         0.316546
 Sum of electronic and zero-point Energies=           -690.398620
 Sum of electronic and thermal Energies=              -690.380402
 Sum of electronic and thermal Enthalpies=            -690.379458
 Sum of electronic and thermal Free Energies=         -690.444889

                     E (Thermal)             CV                S
                      KCal/Mol        Cal/Mol-Kelvin    Cal/Mol-Kelvin
 Total                  239.102             68.067            137.712
 Electronic               0.000              0.000              0.000
 Translational            0.889              2.981             42.125
 Rotational               0.889              2.981             32.589
 Vibrational            237.324             62.105             62.998
 Vibration     1          0.594              1.984              5.779
 Vibration     2          0.595              1.980              5.142
 Vibration     3          0.595              1.979              4.948
 Vibration     4          0.601              1.958              3.726
 Vibration     5          0.602              1.955              3.624
 Vibration     6          0.603              1.951              3.517
 Vibration     7          0.611              1.926              2.986
 Vibration     8          0.613              1.919              2.889
 Vibration     9          0.624              1.883              2.473
 Vibration    10          0.628              1.871              2.361
 Vibration    11          0.643              1.824              2.037
 Vibration    12          0.651              1.799              1.899
 Vibration    13          0.657              1.779              1.803
 Vibration    14          0.667              1.750              1.677
 Vibration    15          0.673              1.731              1.606
 Vibration    16          0.682              1.704              1.511
 Vibration    17          0.696              1.663              1.386
 Vibration    18          0.703              1.642              1.329
 Vibration    19          0.710              1.623              1.279
 Vibration    20          0.728              1.571              1.158
 Vibration    21          0.746              1.523              1.059
 Vibration    22          0.761              1.482              0.983
 Vibration    23          0.787              1.415              0.873
 Vibration    24          0.799              1.386              0.831
 Vibration    25          0.822              1.329              0.753
 Vibration    26          0.894              1.163              0.567
 Vibration    27          0.954              1.040              0.456

                           ! Non-Optimized Parameters !
 Normal termination of Gaussian 16 at Thu Dec 10 23:08:13 2020.

 ----------------------------------------------------------------------
 # B3LYP/6-311++G(d,p) empiricaldispersion=gd3bj scf=xqc pop=npa geom=c
 heck
 ----------------------------------------------------------------------

 ---------------------------------------
 CID_103569446_JID_6418_Energie_neutraal
 ---------------------------------------
 Structure from the checkpoint file:  "JID_6418.chk"
 Charge =  0 Multiplicity = 1

 SCF Done:  E(RB3LYP) =  -690.956886727     A.U. after   15 cycles
 Normal termination of Gaussian 16 at Thu Dec 10 23:15:27 2020.

 ----------------------------------------------------------------------
 # B3LYP/6-311++G(d,p) empiricaldispersion=gd3bj scf=xqc pop=npa geom=c
 heck
 ----------------------------------------------------------------------

 -------------------------------------
 CID_103569446_JID_6418_Energie_kation
 -------------------------------------
 Structure from the checkpoint file:  "JID_6418.chk"
 Charge =  1 Multiplicity = 2

 SCF Done:  E(UB3LYP) =  -690.689622004     A.U. after   28 cycles
 Normal termination of Gaussian 16 at Thu Dec 10 23:33:28 2020.
 Gaussian 16:  ES64L-G16RevA.03 25-Dec-2016

 ----------------------------------------------------------------------
 # B3LYP/6-311++G(d,p) empiricaldispersion=gd3bj scf=xqc pop=npa geom=c
 heck
 ----------------------------------------------------------------------

 ------------------------------------
 CID_103569446_JID_6418_Energie_anion
 ------------------------------------
 Structure from the checkpoint file:  "JID_6418.chk"
 Charge = -1 Multiplicity = 2

                         Standard orientation:
 ---------------------------------------------------------------------
 Center     Atomic      Atomic             Coordinates (Angstroms)
 Number     Number       Type             X           Y           Z
 ---------------------------------------------------------------------
      1          6           0        0.331774    3.536206   -0.024063
      2          6           0        0.370140    2.049752   -0.396281
      3          6           0        1.624053    1.332054    0.147892
      4          6           0        1.550313    1.133768    1.671416
      5          7           0        2.022385    0.149784   -0.638226
      6          6           0        3.454997   -0.060268   -0.693553
      7          6           0        1.257966   -1.114024   -0.720285
      8          6           0        1.698874   -2.266463    0.218983
      9          7           0        1.424643   -2.043702    1.643099
     10          6           0       -0.231322   -0.922445   -0.712077
     11          6           0       -1.131181   -1.046832    0.335186
     12          7           0       -2.363945   -0.768469   -0.166574
     13          7           0       -2.329532   -0.462111   -1.486530
     14          6           0       -1.042722   -0.565933   -1.815961
     15          6           0       -3.614950   -0.641615    0.562334
     16          6           0       -3.946107    0.816874    0.877712
     17          1           0        0.276029    3.688727    1.059971
     18          1           0       -0.544470    4.022704   -0.466777
     19          1           0        1.223659    4.062505   -0.387151
     20          1           0       -0.541869    1.565536   -0.037983
     21          1           0        0.372459    1.945938   -1.485967
     22          1           0        2.451440    2.032303   -0.031722
     23          1           0        0.739460    0.453721    1.943048
     24          1           0        2.493000    0.728974    2.060534
     25          1           0        1.382202    2.089763    2.179447
     26          1           0        3.916192   -0.422771    0.246216
     27          1           0        3.688628   -0.797420   -1.471914
     28          1           0        3.956885    0.875960   -0.962630
     29          1           0        1.508835   -1.508377   -1.719523
     30          1           0        1.125511   -3.146959   -0.092418
     31          1           0        2.758023   -2.493270    0.015239
     32          1           0        1.616528   -2.902794    2.155969
     33          1           0        2.069155   -1.347546    2.008631
     34          1           0       -0.966413   -1.320956    1.365362
     35          1           0       -0.730003   -0.378629   -2.835594
     36          1           0       -4.398404   -1.092681   -0.053013
     37          1           0       -3.519418   -1.232760    1.478289
     38          1           0       -4.012373    1.392128   -0.050023
     39          1           0       -4.903359    0.888225    1.405817
     40          1           0       -3.167573    1.262711    1.505987
 ---------------------------------------------------------------------

 SCF Done:  E(UB3LYP) =  -690.944432224     A.U. after   31 cycles

 The electronic state is 2-A.
 Alpha  occ. eigenvalues --  -14.28929 -14.22930 -14.19997 -14.19044 -10.12352
 Alpha  occ. eigenvalues --  -10.10981 -10.10076 -10.09959 -10.08980 -10.08822
 Alpha  occ. eigenvalues --  -10.08733 -10.07625 -10.06818 -10.06619 -10.06080
 Alpha  occ. eigenvalues --  -10.05431  -0.95107  -0.82302  -0.77794  -0.75220
 Alpha  occ. eigenvalues --   -0.70012  -0.68987  -0.65969  -0.62797  -0.61433
 Alpha  occ. eigenvalues --   -0.57162  -0.55441  -0.53813  -0.51219  -0.49204
 Alpha  occ. eigenvalues --   -0.46828  -0.44572  -0.42467  -0.39714  -0.38170
 Alpha  occ. eigenvalues --   -0.37905  -0.37163  -0.35693  -0.35052  -0.34769
 Alpha  occ. eigenvalues --   -0.34061  -0.33492  -0.31633  -0.31335  -0.30526
 Alpha  occ. eigenvalues --   -0.29863  -0.28974  -0.28641  -0.28376  -0.27750
 Alpha  occ. eigenvalues --   -0.26905  -0.26789  -0.26469  -0.25931  -0.24284
 Alpha  occ. eigenvalues --   -0.23077  -0.22352  -0.19642  -0.15789  -0.15017
 Alpha  occ. eigenvalues --   -0.13854  -0.10320   0.04122
 Alpha virt. eigenvalues --    0.05758   0.06553   0.07388   0.07983   0.08311
 Alpha virt. eigenvalues --    0.08947   0.09271   0.09477   0.09919   0.10267
 Alpha virt. eigenvalues --    0.10621   0.11091   0.11632   0.11907   0.12309

  Beta  occ. eigenvalues --  -14.28931 -14.22925 -14.19996 -14.19004 -10.12333
  Beta  occ. eigenvalues --  -10.10980 -10.10069 -10.09949 -10.08959 -10.08818
  Beta  occ. eigenvalues --  -10.08700 -10.07600 -10.06817 -10.06605 -10.06076
  Beta  occ. eigenvalues --  -10.05407  -0.95102  -0.82289  -0.77729  -0.75206
  Beta  occ. eigenvalues --   -0.69996  -0.68972  -0.65942  -0.62769  -0.61393
  Beta  occ. eigenvalues --   -0.57105  -0.55392  -0.53763  -0.51185  -0.49185
  Beta  occ. eigenvalues --   -0.46801  -0.44543  -0.42438  -0.39667  -0.38145
  Beta  occ. eigenvalues --   -0.37879  -0.37129  -0.35643  -0.35024  -0.34738
  Beta  occ. eigenvalues --   -0.34038  -0.33471  -0.31607  -0.31304  -0.30505
  Beta  occ. eigenvalues --   -0.29831  -0.28944  -0.28608  -0.28349  -0.27724
  Beta  occ. eigenvalues --   -0.26875  -0.26762  -0.26444  -0.25905  -0.24266
  Beta  occ. eigenvalues --   -0.23058  -0.22330  -0.19634  -0.15777  -0.14984
  Beta  occ. eigenvalues --   -0.13832  -0.10305
  Beta virt. eigenvalues --    0.06163   0.06721   0.07080   0.07890   0.08365
  Beta virt. eigenvalues --    0.08641   0.09285   0.09491   0.09742   0.10269
  Beta virt. eigenvalues --    0.10342   0.10960   0.11509   0.11872   0.12007

 Mulliken charges and spin densities:
               1          2
     1  C   -0.371093  -0.335368
     2  C   -0.450865   0.337359
     3  C   -0.738301   0.591493
     4  C    0.194661  -0.789933
     5  N    0.093402   0.098577
     6  C    0.819093  -1.049870
     7  C    0.069967  -0.196145
     8  C    0.429980  -1.107959
     9  N   -0.451842   0.038316
    10  C    0.587166  -0.515548
    11  C   -1.458228   1.030942
    12  N    0.392757   0.003009
    13  N   -0.297987   0.051359
    14  C    0.190787  -0.328401
    15  C    0.335556  -0.480391
    16  C    0.112290  -0.576966
    17  H    0.057251   0.078372
    18  H    0.021729   0.113514
    19  H   -0.118682   0.250457
    20  H    0.889333  -0.778769
    21  H    0.118234   0.057109
    22  H    0.248683  -0.125979
    23  H    0.046952   0.100975
    24  H   -0.334209   0.472728
    25  H   -0.031798   0.157778
    26  H   -0.364792   0.512476
    27  H   -0.048404   0.196985
    28  H   -0.154929   0.280956
    29  H    0.115124   0.042718
    30  H   -0.047076   0.214178
    31  H   -0.240697   0.389296
    32  H   -0.297787   0.564145
    33  H    0.252984  -0.032090
    34  H    0.126695   0.133669
    35  H    0.029478   0.112424
    36  H    0.003356   0.164408
    37  H   -0.300090   0.433065
    38  H    0.163417  -0.008147
    39  H   -0.497725   0.648124
    40  H   -0.094393   0.251137
 Sum of Mulliken charges =  -1.00000   1.00000

 Dipole moment (field-independent basis, Debye):
    X=             -0.9497    Y=              2.0280    Z=             -3.7598  Tot=              4.3762
 Quadrupole moment (field-independent basis, Debye-Ang):
   XX=           -181.2891   YY=           -147.7471   ZZ=           -145.0482
   XY=              6.9438   XZ=             -0.6626   YZ=              5.9282

 Summary of Natural Population Analysis:

                                       Natural Population
                Natural  -----------------------------------------------
    Atom  No    Charge         Core      Valence    Rydberg      Total
 -----------------------------------------------------------------------
      C    1   -0.28266      0.99967     2.27919    0.00381     3.28266
      C    2   -0.19623      0.99961     2.18784    0.00878     3.19623
      C    3    0.00155      0.99957     1.98577    0.01311     2.99845
      C    4   -0.29892      0.99963     2.29279    0.00650     3.29892
      N    5   -0.28665      0.99970     2.77331    0.01365     3.78665
      C    6   -0.17463      0.99964     2.16624    0.00875     3.17463
      C    7   -0.00892      0.99953     1.99491    0.01449     3.00892
      C    8   -0.09253      0.99961     2.08036    0.01256     3.09253
      N    9   -0.43042      0.99977     2.91824    0.01241     3.93042
      C   10   -0.07888      0.99950     2.06769    0.01168     3.07888
      C   11   -0.00229      0.99949     1.99164    0.01117     3.00229
      N   12   -0.10986      0.99966     2.59669    0.01351     3.60986
      N   13   -0.15995      0.99973     2.64896    0.01126     3.65995
      C   14   -0.00487      0.99957     1.99160    0.01370     3.00487
      C   15   -0.08055      0.99962     2.07004    0.01089     3.08055
      C   16   -0.28979      0.99966     2.28521    0.00492     3.28979
      H   17    0.09537      0.00000     0.40365    0.00098     0.40463
      H   18    0.09796      0.00000     0.40130    0.00074     0.40204
      H   19    0.09290      0.00000     0.40611    0.00100     0.40710
      H   20    0.09902      0.00000     0.39845    0.00252     0.40098
      H   21    0.10092      0.00000     0.39763    0.00145     0.39908
      H   22    0.08888      0.00000     0.40893    0.00218     0.41112
      H   23    0.10465      0.00000     0.39349    0.00186     0.39535
      H   24    0.09681      0.00000     0.40192    0.00128     0.40319
      H   25    0.09804      0.00000     0.40090    0.00106     0.40196
      H   26    0.08212      0.00000     0.41600    0.00188     0.41788
      H   27    0.09346      0.00000     0.40542    0.00112     0.40654
      H   28    0.09327      0.00000     0.40563    0.00109     0.40673
      H   29    0.09570      0.00000     0.40247    0.00183     0.40430
      H   30    0.09293      0.00000     0.40585    0.00122     0.40707
      H   31    0.08372      0.00000     0.41454    0.00174     0.41628
      H   32    0.17905      0.00000     0.31785    0.00310     0.32095
      H   33    0.17726      0.00000     0.31960    0.00314     0.32274
      H   34    0.12073      0.00000     0.37742    0.00185     0.37927
      H   35    0.09673      0.00000     0.40229    0.00098     0.40327
      H   36    0.10055      0.00000     0.39815    0.00130     0.39945
      H   37    0.10031      0.00000     0.39833    0.00136     0.39969
      H   38    0.10386      0.00000     0.39504    0.00110     0.39614
      H   39    0.10070      0.00000     0.39791    0.00139     0.39930
      H   40    0.10065      0.00000     0.39803    0.00131     0.39935
 =======================================================================
   * Total *    0.00000     15.99395    45.79737    0.20868    62.00000

 Normal termination of Gaussian 16 at Thu Dec 10 23:53:36 2020.
