 Gaussian 16, Revision A.03,

 -----------------------------------------------------------
 # opt freq B3LYP/6-31G(d) empiricaldispersion=gd3bj scf=xqc
 -----------------------------------------------------------

 ---------------------------
 CID_6455762_JID_46_neutraal
 ---------------------------
 Symbolic Z-matrix:
 Charge =  0 Multiplicity = 1

 SCF Done:  E(RB3LYP) =  -553.961916490     A.U. after   14 cycles
 SCF Done:  E(RB3LYP) =  -553.966489718     A.U. after   15 cycles
 SCF Done:  E(RB3LYP) =  -553.961104587     A.U. after   15 cycles
 SCF Done:  E(RB3LYP) =  -553.965504407     A.U. after   13 cycles
 SCF Done:  E(RB3LYP) =  -553.967497703     A.U. after   10 cycles
 SCF Done:  E(RB3LYP) =  -553.968668166     A.U. after   15 cycles
 SCF Done:  E(RB3LYP) =  -553.967059444     A.U. after   14 cycles
 SCF Done:  E(RB3LYP) =  -553.969162060     A.U. after   13 cycles
 SCF Done:  E(RB3LYP) =  -553.969986829     A.U. after   12 cycles
 SCF Done:  E(RB3LYP) =  -553.970365210     A.U. after   14 cycles
 SCF Done:  E(RB3LYP) =  -553.972197926     A.U. after    8 cycles
 SCF Done:  E(RB3LYP) =  -553.972197976     A.U. after    8 cycles
 SCF Done:  E(RB3LYP) =  -553.972198004     A.U. after    8 cycles
 SCF Done:  E(RB3LYP) =  -553.972198024     A.U. after    8 cycles
 SCF Done:  E(RB3LYP) =  -553.972198055     A.U. after    7 cycles
 SCF Done:  E(RB3LYP) =  -553.972198078     A.U. after    7 cycles
 Optimization completed.
    -- Stationary point found.
 Normal termination of Gaussian 16 at Tue Dec  8 10:22:01 2020.

 --------------------------------------------------------------------
 #N Geom=AllCheck Guess=TCheck SCRF=Check GenChk RB3LYP/6-31G(d) Freq
 --------------------------------------------------------------------

 Structure from the checkpoint file:  "JID_46.chk"
 ---------------------------
 CID_6455762_JID_46_neutraal
 ---------------------------
 Charge =  0 Multiplicity = 1

 SCF Done:  E(RB3LYP) =  -553.972198078     A.U. after    1 cycles

  Exact polarizability:  83.149   1.778  75.793  -0.786  -1.004  62.358
 Approx polarizability: 101.997   2.202 113.227  -2.919  -2.549  90.986

                      1                      2                      3
                      A                      A                      A
 Frequencies --     24.4468                59.9056                79.6217
 Red. masses --      4.8126                 4.5332                 5.7488
 Frc consts  --      0.0017                 0.0096                 0.0215
 IR Inten    --      0.1847                 1.1726                 4.6596

                      4                      5                      6
                      A                      A                      A
 Frequencies --    103.4180               133.3822               160.5205
 Red. masses --      3.9936                 4.4019                 3.5124
 Frc consts  --      0.0252                 0.0461                 0.0533
 IR Inten    --      6.3048                 6.1340                 4.0263

                      7                      8                      9
                      A                      A                      A
 Frequencies --    202.5067               227.4090               245.3288
 Red. masses --      2.9928                 3.3472                 4.7386
 Frc consts  --      0.0723                 0.1020                 0.1680
 IR Inten    --     46.0224                 6.1891                31.5899

                     10                     11                     12
                      A                      A                      A
 Frequencies --    287.8430               301.2422               308.3389
 Red. masses --      2.8469                 1.0953                 1.6188
 Frc consts  --      0.1390                 0.0586                 0.0907
 IR Inten    --      3.4116                48.4697                 1.5012

                     13                     14                     15
                      A                      A                      A
 Frequencies --    319.4971               357.2194               397.5563
 Red. masses --      2.2056                 1.9170                 1.8633
 Frc consts  --      0.1327                 0.1441                 0.1735
 IR Inten    --     15.0605                19.2903                37.9092

                     16                     17                     18
                      A                      A                      A
 Frequencies --    409.0984               435.2686               531.8885
 Red. masses --      1.9219                 2.3310                 3.7018
 Frc consts  --      0.1895                 0.2602                 0.6170
 IR Inten    --     57.8858                 8.1324                25.0817

                     19                     20                     21
                      A                      A                      A
 Frequencies --    588.3473               607.8596               775.5447
 Red. masses --      1.0967                 3.1560                 3.3202
 Frc consts  --      0.2237                 0.6871                 1.1766
 IR Inten    --     80.3477                 2.6984                10.2958

                     22                     23                     24
                      A                      A                      A
 Frequencies --    810.2562               903.7052               942.3051
 Red. masses --      1.0778                 2.3413                 1.3289
 Frc consts  --      0.4169                 1.1266                 0.6953
 IR Inten    --    178.0543                60.8355                68.0207

                     25                     26                     27
                      A                      A                      A
 Frequencies --    959.2596               985.7876              1044.4479
 Red. masses --      1.7255                 1.6797                 3.1902
 Frc consts  --      0.9355                 0.9617                 2.0504
 IR Inten    --     13.3938               101.6622                 3.4953

                     28                     29                     30
                      A                      A                      A
 Frequencies --   1071.4797              1084.6640              1100.5751
 Red. masses --      3.8752                 4.9608                 2.3156
 Frc consts  --      2.6213                 3.4387                 1.6525
 IR Inten    --    106.9155                53.5416                65.5216

                     31                     32                     33
                      A                      A                      A
 Frequencies --   1159.0253              1185.1290              1241.9308
 Red. masses --      1.7018                 1.8558                 1.3348
 Frc consts  --      1.3470                 1.5357                 1.2130
 IR Inten    --     14.4259                26.2706                 1.9466

                     34                     35                     36
                      A                      A                      A
 Frequencies --   1245.4494              1266.4343              1301.7167
 Red. masses --      1.0910                 1.3326                 1.3125
 Frc consts  --      0.9971                 1.2592                 1.3103
 IR Inten    --      4.8625                 7.7400                 7.8157

                     37                     38                     39
                      A                      A                      A
 Frequencies --   1326.4345              1354.9890              1374.0664
 Red. masses --      1.4384                 1.4386                 1.3593
 Frc consts  --      1.4911                 1.5562                 1.5121
 IR Inten    --      3.1348                15.0392                 3.2156

                     40                     41                     42
                      A                      A                      A
 Frequencies --   1393.8930              1412.1611              1431.4246
 Red. masses --      1.2625                 1.2352                 1.4080
 Frc consts  --      1.4452                 1.4513                 1.6998
 IR Inten    --     20.9245                37.4692                17.8480

                     43                     44                     45
                      A                      A                      A
 Frequencies --   1466.4320              1519.0939              1524.9218
 Red. masses --      1.4375                 1.1744                 1.0978
 Frc consts  --      1.8213                 1.5967                 1.5041
 IR Inten    --      6.8476                79.1138                13.0807

                     46                     47                     48
                      A                      A                      A
 Frequencies --   1540.7940              1557.6568              1566.6173
 Red. masses --      1.0686                 1.1024                 1.1462
 Frc consts  --      1.4947                 1.5759                 1.6574
 IR Inten    --     11.1477                 3.2438                 9.8163

                     49                     50                     51
                      A                      A                      A
 Frequencies --   1702.1912              1803.7568              2953.3762
 Red. masses --      1.0900                 5.8092                 1.0494
 Frc consts  --      1.8608                11.1358                 5.3929
 IR Inten    --     35.9376                87.5982               106.3614

                     52                     53                     54
                      A                      A                      A
 Frequencies --   3000.0767              3036.3733              3042.2052
 Red. masses --      1.0628                 1.0645                 1.0995
 Frc consts  --      5.6357                 5.7822                 5.9953
 IR Inten    --     65.1703                56.8056                42.4564

                     55                     56                     57
                      A                      A                      A
 Frequencies --   3051.6362              3057.3187              3096.6353
 Red. masses --      1.1244                 1.0585                 1.1020
 Frc consts  --      6.1691                 5.8296                 6.2261
 IR Inten    --     23.6810                46.2076                32.8488

                     58                     59                     60
                      A                      A                      A
 Frequencies --   3104.3651              3446.6047              3528.5881
 Red. masses --      1.1088                 1.0496                 1.0912
 Frc consts  --      6.2959                 7.3463                 8.0051
 IR Inten    --     38.5966                 2.0399                 3.7356

                     61                     62                     63
                      A                      A                      A
 Frequencies --   3537.0026              3592.9072              3750.8460
 Red. masses --      1.0677                 1.0660                 1.0664
 Frc consts  --      7.8701                 8.1076                 8.8393
 IR Inten    --    243.4787               436.1977                21.9952

 - Thermochemistry -
 -------------------
 Temperature   298.150 Kelvin.  Pressure   1.00000 Atm.
 Atom     1 has atomic number  6 and mass  12.00000

 Molecular mass:   151.08446 amu.
 Principal axes and moments of inertia in atomic units:
                           1         2         3
     Eigenvalues --   919.645692507.967172732.54744
           X            0.99998   0.00541  -0.00176
           Y           -0.00538   0.99984   0.01724
           Z            0.00186  -0.01723   0.99985
 This molecule is an asymmetric top.
 Rotational symmetry number  1.
 Warning -- assumption of classical behavior for rotation
           may cause significant error
 Rotational temperatures (Kelvin)      0.09418     0.03454     0.03170
 Rotational constants (GHZ):           1.96243     0.71960     0.66046
 Zero-point vibrational energy     514578.3 (Joules/Mol)
                                  122.98717 (Kcal/Mol)
 Warning -- explicit consideration of  20 degrees of freedom as
           vibrations may cause significant error
 Vibrational temperatures:     35.17    86.19   114.56   148.80   191.91
          (Kelvin)            230.95   291.36   327.19   352.97   414.14
                              433.42   443.63   459.69   513.96   571.99
                              588.60   626.25   765.27   846.50   874.57
                             1115.84  1165.78  1300.23  1355.77  1380.16
                             1418.33  1502.73  1541.62  1560.59  1583.48
                             1667.58  1705.14  1786.86  1791.92  1822.12
                             1872.88  1908.44  1949.53  1976.98  2005.50
                             2031.78  2059.50  2109.87  2185.64  2194.02
                             2216.86  2241.12  2254.01  2449.07  2595.20
                             4249.25  4316.44  4368.66  4377.05  4390.62
                             4398.80  4455.37  4466.49  4958.90  5076.85
                             5088.96  5169.39  5396.63

 Zero-point correction=                           0.195993 (Hartree/Particle)
 Thermal correction to Energy=                    0.208945
 Thermal correction to Enthalpy=                  0.209890
 Thermal correction to Gibbs Free Energy=         0.156250
 Sum of electronic and zero-point Energies=           -553.776206
 Sum of electronic and thermal Energies=              -553.763253
 Sum of electronic and thermal Enthalpies=            -553.762309
 Sum of electronic and thermal Free Energies=         -553.815948

                     E (Thermal)             CV                S
                      KCal/Mol        Cal/Mol-Kelvin    Cal/Mol-Kelvin
 Total                  131.115             45.397            112.895
 Electronic               0.000              0.000              0.000
 Translational            0.889              2.981             40.948
 Rotational               0.889              2.981             30.223
 Vibrational            129.338             39.436             41.724
 Vibration     1          0.593              1.985              6.236
 Vibration     2          0.597              1.973              4.460
 Vibration     3          0.600              1.963              3.900
 Vibration     4          0.605              1.946              3.389
 Vibration     5          0.613              1.920              2.897
 Vibration     6          0.622              1.891              2.544
 Vibration     7          0.639              1.836              2.110
 Vibration     8          0.651              1.799              1.899
 Vibration     9          0.660              1.771              1.764
 Vibration    10          0.685              1.696              1.487
 Vibration    11          0.693              1.671              1.410
 Vibration    12          0.698              1.658              1.371
 Vibration    13          0.705              1.636              1.313
 Vibration    14          0.732              1.560              1.134
 Vibration    15          0.764              1.475              0.972
 Vibration    16          0.773              1.450              0.930
 Vibration    17          0.796              1.393              0.842
 Vibration    18          0.887              1.179              0.583
 Vibration    19          0.946              1.057              0.470
 Vibration    20          0.967              1.015              0.436

                           ! Non-Optimized Parameters !
 Normal termination of Gaussian 16 at Tue Dec  8 10:25:57 2020.

 ----------------------------------------------------------------------
 # B3LYP/6-311++G(d,p) empiricaldispersion=gd3bj scf=xqc pop=npa geom=c
 heck
 ----------------------------------------------------------------------

 -----------------------------------
 CID_6455762_JID_46_Energie_neutraal
 -----------------------------------
 Structure from the checkpoint file:  "JID_46.chk"
 Charge =  0 Multiplicity = 1

 SCF Done:  E(RB3LYP) =  -554.175809998     A.U. after   15 cycles
 Normal termination of Gaussian 16 at Tue Dec  8 10:27:25 2020.

 ----------------------------------------------------------------------
 # B3LYP/6-311++G(d,p) empiricaldispersion=gd3bj scf=xqc pop=npa geom=c
 heck
 ----------------------------------------------------------------------

 ---------------------------------
 CID_6455762_JID_46_Energie_kation
 ---------------------------------
 Structure from the checkpoint file:  "JID_46.chk"
 Charge =  1 Multiplicity = 2

 SCF Done:  E(UB3LYP) =  -553.843994741     A.U. after   26 cycles
 Normal termination of Gaussian 16 at Tue Dec  8 10:30:40 2020.
 Gaussian 16:  ES64L-G16RevA.03 25-Dec-2016

 ----------------------------------------------------------------------
 # B3LYP/6-311++G(d,p) empiricaldispersion=gd3bj scf=xqc pop=npa geom=c
 heck
 ----------------------------------------------------------------------

 --------------------------------
 CID_6455762_JID_46_Energie_anion
 --------------------------------
 Structure from the checkpoint file:  "JID_46.chk"
 Charge = -1 Multiplicity = 2

                         Standard orientation:
 ---------------------------------------------------------------------
 Center     Atomic      Atomic             Coordinates (Angstroms)
 Number     Number       Type             X           Y           Z
 ---------------------------------------------------------------------
      1          6           0        3.457083    0.269401    0.105194
      2          8           0        3.227867   -0.903864    0.332278
      3          6           0       -0.107601   -0.822450    0.699366
      4          6           0       -1.028491    0.358751    0.349812
      5          6           0       -0.181384    1.583881   -0.029386
      6          8           0        0.641289    1.363435   -1.172120
      7          6           0       -1.971830   -0.018188   -0.811620
      8          8           0       -2.763506   -1.161356   -0.493124
      9          7           0       -1.761867    0.667245    1.583249
     10          8           0        0.581525   -1.277218   -0.475120
     11          1           0        2.710559    0.933628   -0.366139
     12          1           0        4.436537    0.711984    0.368100
     13          1           0       -0.706579   -1.642479    1.117889
     14          1           0        0.598968   -0.501990    1.472395
     15          1           0       -0.838684    2.436147   -0.253205
     16          1           0        0.426138    1.861775    0.846237
     17          1           0        0.743592    0.390719   -1.237813
     18          1           0       -2.674312    0.807971   -0.971763
     19          1           0       -1.415582   -0.168424   -1.743469
     20          1           0       -2.215255   -1.941714   -0.667726
     21          1           0       -2.283373    1.535070    1.454721
     22          1           0       -2.468199   -0.059754    1.705659
     23          1           0        1.515205   -1.429998   -0.223133
 ---------------------------------------------------------------------

 SCF Done:  E(UB3LYP) =  -554.178396011     A.U. after   32 cycles

 The electronic state is 2-A.
 Alpha  occ. eigenvalues --  -19.02875 -19.00828 -18.99183 -18.94852 -14.18810
 Alpha  occ. eigenvalues --  -10.10881 -10.10372 -10.09804 -10.09726 -10.06331
 Alpha  occ. eigenvalues --   -0.93014  -0.91427  -0.89110  -0.87981  -0.78848
 Alpha  occ. eigenvalues --   -0.64000  -0.57677  -0.56164  -0.46267  -0.45758
 Alpha  occ. eigenvalues --   -0.42600  -0.40232  -0.39275  -0.37027  -0.34515
 Alpha  occ. eigenvalues --   -0.33350  -0.32828  -0.31718  -0.30194  -0.29609
 Alpha  occ. eigenvalues --   -0.28081  -0.27311  -0.24546  -0.23744  -0.22650
 Alpha  occ. eigenvalues --   -0.22111  -0.19523  -0.16320  -0.15384  -0.14088
 Alpha  occ. eigenvalues --   -0.10123   0.05293
 Alpha virt. eigenvalues --    0.06995   0.08303   0.09611   0.10365   0.11370
 Alpha virt. eigenvalues --    0.11976   0.13005   0.13164   0.13564   0.15082
 Alpha virt. eigenvalues --    0.15529   0.16793   0.17269   0.17609   0.18164

  Beta  occ. eigenvalues --  -19.02868 -19.00828 -18.99184 -18.94272 -14.18779
  Beta  occ. eigenvalues --  -10.10869 -10.10366 -10.09778 -10.09724 -10.05871
  Beta  occ. eigenvalues --   -0.93001  -0.91409  -0.89086  -0.86925  -0.78806
  Beta  occ. eigenvalues --   -0.63961  -0.57652  -0.56124  -0.46234  -0.44285
  Beta  occ. eigenvalues --   -0.42563  -0.40204  -0.39244  -0.37004  -0.34487
  Beta  occ. eigenvalues --   -0.33309  -0.32719  -0.31490  -0.30135  -0.29503
  Beta  occ. eigenvalues --   -0.27434  -0.27279  -0.24515  -0.22720  -0.22116
  Beta  occ. eigenvalues --   -0.20367  -0.19502  -0.16306  -0.15354  -0.14062
  Beta  occ. eigenvalues --   -0.09686
  Beta virt. eigenvalues --    0.07597   0.08734   0.09811   0.10502   0.11469
  Beta virt. eigenvalues --    0.12039   0.12321   0.12929   0.13441   0.14256
  Beta virt. eigenvalues --    0.15115   0.15654   0.16821   0.17332   0.17814

 Mulliken charges and spin densities:
               1          2
     1  C   -0.359205   0.570712
     2  O   -0.382647   0.127771
     3  C   -0.169681  -0.124137
     4  C   -0.586714   0.154976
     5  C    0.628961  -1.018742
     6  O   -0.262949   0.014566
     7  C    0.159032  -0.478041
     8  O   -0.269264   0.026276
     9  N   -0.284374   0.101067
    10  O   -0.379527   0.007516
    11  H    0.144748  -0.062151
    12  H    0.031106  -0.008117
    13  H    0.146434   0.024779
    14  H    0.197811   0.001683
    15  H   -0.178271   0.340198
    16  H   -0.172861   0.353667
    17  H    0.260266  -0.000571
    18  H   -0.129312   0.316303
    19  H    0.197318  -0.018784
    20  H    0.208742   0.050238
    21  H   -0.143930   0.373189
    22  H    0.019341   0.234908
    23  H    0.324976   0.012695
 Sum of Mulliken charges =  -1.00000   1.00000

 Dipole moment (field-independent basis, Debye):
    X=             -3.2656    Y=             -2.6166    Z=             -1.6907  Tot=              4.5133
 Quadrupole moment (field-independent basis, Debye-Ang):
   XX=           -117.9950   YY=            -84.3793   ZZ=            -83.2277
   XY=              6.3270   XZ=              1.5548   YZ=             -1.6962

 Summary of Natural Population Analysis:

                                       Natural Population
                Natural  -----------------------------------------------
    Atom  No    Charge         Core      Valence    Rydberg      Total
 -----------------------------------------------------------------------
      C    1    0.20037      0.99980     1.77738    0.02246     2.79963
      O    2   -0.26526      0.99987     3.25655    0.00884     4.26526
      C    3   -0.02029      0.99952     2.00509    0.01569     3.02029
      C    4    0.01526      0.99956     1.97064    0.01454     2.98474
      C    5   -0.01158      0.99952     1.99581    0.01625     3.01158
      O    6   -0.38510      0.99990     3.37819    0.00702     4.38510
      C    7   -0.01865      0.99952     2.00445    0.01467     3.01865
      O    8   -0.37569      0.99990     3.36898    0.00681     4.37569
      N    9   -0.42329      0.99975     2.91216    0.01138     3.92329
      O   10   -0.40356      0.99989     3.39698    0.00668     4.40356
      H   11    0.05296      0.00000     0.44502    0.00201     0.44704
      H   12    0.03247      0.00000     0.46566    0.00187     0.46753
      H   13    0.07725      0.00000     0.42130    0.00145     0.42275
      H   14    0.09878      0.00000     0.40002    0.00120     0.40122
      H   15    0.08035      0.00000     0.41804    0.00161     0.41965
      H   16    0.08669      0.00000     0.41175    0.00156     0.41331
      H   17    0.24258      0.00000     0.25402    0.00340     0.25742
      H   18    0.08623      0.00000     0.41228    0.00149     0.41377
      H   19    0.08928      0.00000     0.40937    0.00135     0.41072
      H   20    0.22992      0.00000     0.26743    0.00265     0.27008
      H   21    0.17602      0.00000     0.32106    0.00293     0.32398
      H   22    0.17920      0.00000     0.31874    0.00207     0.32080
      H   23    0.25606      0.00000     0.24067    0.00327     0.24394
 =======================================================================
   * Total *    0.00000      9.99723    30.85158    0.15119    41.00000

 Normal termination of Gaussian 16 at Tue Dec  8 10:37:09 2020.
