 Gaussian 16, Revision A.03,

 -----------------------------------------------------------
 # opt freq B3LYP/6-31G(d) empiricaldispersion=gd3bj scf=xqc
 -----------------------------------------------------------

 ---------------------------
 CID_588192_JID_940_neutraal
 ---------------------------
 Symbolic Z-matrix:
 Charge =  0 Multiplicity = 1

 SCF Done:  E(RB3LYP) =  -820.239892752     A.U. after   15 cycles
 SCF Done:  E(RB3LYP) =  -820.242346011     A.U. after   12 cycles
 SCF Done:  E(RB3LYP) =  -820.242492552     A.U. after   11 cycles
 SCF Done:  E(RB3LYP) =  -820.242596138     A.U. after   12 cycles
 SCF Done:  E(RB3LYP) =  -820.242653119     A.U. after   11 cycles
 SCF Done:  E(RB3LYP) =  -820.242729320     A.U. after   12 cycles
 SCF Done:  E(RB3LYP) =  -820.242941044     A.U. after   12 cycles
 SCF Done:  E(RB3LYP) =  -820.243153092     A.U. after   12 cycles
 SCF Done:  E(RB3LYP) =  -820.243189691     A.U. after   11 cycles
 SCF Done:  E(RB3LYP) =  -820.243197155     A.U. after   11 cycles
 SCF Done:  E(RB3LYP) =  -820.243200059     A.U. after    9 cycles
 SCF Done:  E(RB3LYP) =  -820.243200821     A.U. after    9 cycles
 SCF Done:  E(RB3LYP) =  -820.243200898     A.U. after    8 cycles
 SCF Done:  E(RB3LYP) =  -820.243200898     A.U. after    8 cycles
 Optimization completed.
    -- Stationary point found.
 Normal termination of Gaussian 16 at Tue Dec  8 13:30:35 2020.

 --------------------------------------------------------------------
 #N Geom=AllCheck Guess=TCheck SCRF=Check GenChk RB3LYP/6-31G(d) Freq
 --------------------------------------------------------------------

 Structure from the checkpoint file:  "JID_940.chk"
 ---------------------------
 CID_588192_JID_940_neutraal
 ---------------------------
 Charge =  0 Multiplicity = 1

 SCF Done:  E(RB3LYP) =  -820.243200898     A.U. after    1 cycles

  Exact polarizability: 134.999   2.592  97.351  -4.361   3.611  50.797
 Approx polarizability: 192.706  11.612 185.638 -10.080  10.286  77.312

                      1                      2                      3
                      A                      A                      A
 Frequencies --     31.6278                80.9301                92.0953
 Red. masses --      2.7953                 5.1638                 7.5988
 Frc consts  --      0.0016                 0.0199                 0.0380
 IR Inten    --      0.4410                 0.6149                 0.1346

                      4                      5                      6
                      A                      A                      A
 Frequencies --    145.7833               191.3887               224.7363
 Red. masses --      3.9957                 3.9549                 1.3717
 Frc consts  --      0.0500                 0.0854                 0.0408
 IR Inten    --      1.9077                 0.1409                 0.3166

                      7                      8                      9
                      A                      A                      A
 Frequencies --    315.1328               339.5218               379.8422
 Red. masses --      2.6577                 4.7355                 4.9641
 Frc consts  --      0.1555                 0.3216                 0.4220
 IR Inten    --      0.0195                 3.8319                 3.6940

                     10                     11                     12
                      A                      A                      A
 Frequencies --    471.6622               509.1633               574.1411
 Red. masses --      7.7025                 3.1139                 2.6287
 Frc consts  --      1.0096                 0.4756                 0.5105
 IR Inten    --      5.1078                28.1138                21.5214

                     13                     14                     15
                      A                      A                      A
 Frequencies --    597.3309               621.0173               668.0125
 Red. masses --      1.6010                 3.3593                 4.7848
 Frc consts  --      0.3366                 0.7633                 1.2580
 IR Inten    --     48.5655                17.3712                12.3770

                     16                     17                     18
                      A                      A                      A
 Frequencies --    711.0633               757.0267               760.7464
 Red. masses --      4.5909                 5.3019                 5.5962
 Frc consts  --      1.3676                 1.7902                 1.9082
 IR Inten    --     37.0959                64.9522                 0.8130

                     19                     20                     21
                      A                      A                      A
 Frequencies --    802.7198               829.6426               915.2836
 Red. masses --      1.2567                 1.3329                 1.4263
 Frc consts  --      0.4771                 0.5405                 0.7040
 IR Inten    --      1.9349                15.3709                 0.0285

                     22                     23                     24
                      A                      A                      A
 Frequencies --    962.3991              1032.2911              1075.8051
 Red. masses --      2.1280                 2.3604                 2.5800
 Frc consts  --      1.1612                 1.4820                 1.7593
 IR Inten    --      3.1261                36.1493                54.1094

                     25                     26                     27
                      A                      A                      A
 Frequencies --   1099.2677              1106.4842              1195.2073
 Red. masses --      1.7314                 1.7017                 2.9505
 Frc consts  --      1.2327                 1.2275                 2.4833
 IR Inten    --      2.5593               103.5711                40.5500

                     28                     29                     30
                      A                      A                      A
 Frequencies --   1226.7898              1250.9257              1304.7878
 Red. masses --      1.8398                 1.4684                 1.3486
 Frc consts  --      1.6314                 1.3538                 1.3527
 IR Inten    --    239.4009                 2.4451                 0.1209

                     31                     32                     33
                      A                      A                      A
 Frequencies --   1361.5536              1392.7564              1405.2278
 Red. masses --      1.5507                 2.3264                 3.0446
 Frc consts  --      1.6937                 2.6588                 3.5422
 IR Inten    --      7.2102                52.5893                83.8926

                     34                     35                     36
                      A                      A                      A
 Frequencies --   1438.4461              1512.0807              1519.4369
 Red. masses --      1.2254                 1.1064                 3.4247
 Frc consts  --      1.4939                 1.4904                 4.6584
 IR Inten    --      3.8483                12.8448               105.9993

                     37                     38                     39
                      A                      A                      A
 Frequencies --   1526.2852              1536.7946              1601.6730
 Red. masses --      1.0505                 1.2059                 5.6126
 Frc consts  --      1.4419                 1.6780                 8.4832
 IR Inten    --     10.2841                29.9257                 8.4646

                     40                     41                     42
                      A                      A                      A
 Frequencies --   1811.0246              3046.0412              3056.4622
 Red. masses --      9.6876                 1.0622                 1.0346
 Frc consts  --     18.7203                 5.8068                 5.6947
 IR Inten    --    357.4296                24.4367                26.5977

                     43                     44                     45
                      A                      A                      A
 Frequencies --   3086.2260              3128.1126              3132.8359
 Red. masses --      1.1011                 1.1029                 1.1038
 Frc consts  --      6.1794                 6.3585                 6.3829
 IR Inten    --      8.2157                38.3277                26.9668

                     46                     47                     48
                      A                      A                      A
 Frequencies --   3217.0494              3247.2506              3701.9809
 Red. masses --      1.0914                 1.0955                 1.0642
 Frc consts  --      6.6553                 6.8058                 8.5926
 IR Inten    --      9.0831                 1.0183                82.3664

 - Thermochemistry -
 -------------------
 Temperature   298.150 Kelvin.  Pressure   1.00000 Atm.
 Atom     1 has atomic number  6 and mass  12.00000

 Molecular mass:   156.02450 amu.
 Principal axes and moments of inertia in atomic units:
                           1         2         3
     Eigenvalues --   615.158742739.671643211.50651
           X            0.99993  -0.01108   0.00507
           Y            0.01114   0.99987  -0.01158
           Z           -0.00494   0.01163   0.99992
 This molecule is an asymmetric top.
 Rotational symmetry number  1.
 Warning -- assumption of classical behavior for rotation
           may cause significant error
 Rotational temperatures (Kelvin)      0.14080     0.03161     0.02697
 Rotational constants (GHZ):           2.93378     0.65874     0.56196
 Zero-point vibrational energy     364825.5 (Joules/Mol)
                                   87.19539 (Kcal/Mol)
 Warning -- explicit consideration of  13 degrees of freedom as
           vibrations may cause significant error
 Vibrational temperatures:     45.51   116.44   132.50   209.75   275.37
          (Kelvin)            323.35   453.41   488.50   546.51   678.62
                              732.57   826.06   859.43   893.51   961.12
                             1023.06  1089.19  1094.54  1154.93  1193.67
                             1316.89  1384.68  1485.24  1547.84  1581.60
                             1591.98  1719.64  1765.08  1799.80  1877.30
                             1958.97  2003.87  2021.81  2069.60  2175.55
                             2186.13  2195.98  2211.10  2304.45  2605.66
                             4382.57  4397.57  4440.39  4500.66  4507.45
                             4628.62  4672.07  5326.32

 Zero-point correction=                           0.138955 (Hartree/Particle)
 Thermal correction to Energy=                    0.148860
 Thermal correction to Enthalpy=                  0.149804
 Thermal correction to Gibbs Free Energy=         0.102384
 Sum of electronic and zero-point Energies=           -820.104246
 Sum of electronic and thermal Energies=              -820.094341
 Sum of electronic and thermal Enthalpies=            -820.093397
 Sum of electronic and thermal Free Energies=         -820.140817

                     E (Thermal)             CV                S
                      KCal/Mol        Cal/Mol-Kelvin    Cal/Mol-Kelvin
 Total                   93.411             35.819             99.804
 Electronic               0.000              0.000              0.000
 Translational            0.889              2.981             41.044
 Rotational               0.889              2.981             30.071
 Vibrational             91.633             29.857             28.689
 Vibration     1          0.594              1.983              5.725
 Vibration     2          0.600              1.962              3.868
 Vibration     3          0.602              1.955              3.615
 Vibration     4          0.617              1.907              2.727
 Vibration     5          0.634              1.852              2.214
 Vibration     6          0.649              1.803              1.921
 Vibration     7          0.702              1.645              1.335
 Vibration     8          0.719              1.597              1.214
 Vibration     9          0.750              1.513              1.040
 Vibration    10          0.829              1.313              0.733
 Vibration    11          0.864              1.230              0.636
 Vibration    12          0.930              1.087              0.496
 Vibration    13          0.955              1.037              0.454

 Optimization completed.
    -- Stationary point found.
 Normal termination of Gaussian 16 at Tue Dec  8 13:33:24 2020.

 ----------------------------------------------------------------------
 # B3LYP/6-311++G(d,p) empiricaldispersion=gd3bj scf=xqc pop=npa geom=c
 heck
 ----------------------------------------------------------------------

 -----------------------------------
 CID_588192_JID_940_Energie_neutraal
 -----------------------------------
 Structure from the checkpoint file:  "JID_940.chk"
 Charge =  0 Multiplicity = 1

 SCF Done:  E(RB3LYP) =  -820.397887311     A.U. after   17 cycles
 Normal termination of Gaussian 16 at Tue Dec  8 13:37:55 2020.

 ----------------------------------------------------------------------
 # B3LYP/6-311++G(d,p) empiricaldispersion=gd3bj scf=xqc pop=npa geom=c
 heck
 ----------------------------------------------------------------------

 ---------------------------------
 CID_588192_JID_940_Energie_kation
 ---------------------------------
 Structure from the checkpoint file:  "JID_940.chk"
 Charge =  1 Multiplicity = 2

 SCF Done:  E(UB3LYP) =  -820.076702848     A.U. after   24 cycles
 Normal termination of Gaussian 16 at Tue Dec  8 13:45:15 2020.
 Gaussian 16:  ES64L-G16RevA.03 25-Dec-2016

 ----------------------------------------------------------------------
 # B3LYP/6-311++G(d,p) empiricaldispersion=gd3bj scf=xqc pop=npa geom=c
 heck
 ----------------------------------------------------------------------

 --------------------------------
 CID_588192_JID_940_Energie_anion
 --------------------------------
 Structure from the checkpoint file:  "JID_940.chk"
 Charge = -1 Multiplicity = 2

                         Standard orientation:
 ---------------------------------------------------------------------
 Center     Atomic      Atomic             Coordinates (Angstroms)
 Number     Number       Type             X           Y           Z
 ---------------------------------------------------------------------
      1          6           0        3.543954   -0.647023    0.757143
      2          6           0        2.935607    0.120151   -0.428656
      3          6           0        1.467915    0.392770   -0.269914
      4          6           0        0.853200    1.608901   -0.075474
      5          6           0       -0.555311    1.511387    0.066746
      6          6           0       -1.007776    0.215115   -0.019255
      7         16           0        0.305191   -0.903582   -0.277168
      8          6           0       -2.372030   -0.298002    0.072032
      9          8           0       -2.687492   -1.469682   -0.016893
     10          8           0       -3.282747    0.692089    0.272482
     11          1           0        3.398513   -0.094812    1.691225
     12          1           0        4.618270   -0.798493    0.607660
     13          1           0        3.074786   -1.629724    0.872491
     14          1           0        3.443877    1.084245   -0.546075
     15          1           0        3.113813   -0.440790   -1.355188
     16          1           0        1.403597    2.543077   -0.038551
     17          1           0       -1.220513    2.351525    0.225422
     18          1           0       -4.146845    0.243236    0.317260
 ---------------------------------------------------------------------

 SCF Done:  E(UB3LYP) =  -820.403598038     A.U. after   25 cycles

 The electronic state is 2-A.
 Alpha  occ. eigenvalues --  -88.71174 -19.01994 -18.94356 -10.13123 -10.05281
 Alpha  occ. eigenvalues --  -10.04350 -10.04253 -10.03450 -10.02498 -10.01812
 Alpha  occ. eigenvalues --   -7.79843  -5.76136  -5.75781  -5.75449  -0.95427
 Alpha  occ. eigenvalues --   -0.85964  -0.73027  -0.65466  -0.58833  -0.57989
 Alpha  occ. eigenvalues --   -0.52028  -0.47336  -0.41368  -0.38794  -0.36202
 Alpha  occ. eigenvalues --   -0.33440  -0.32701  -0.30272  -0.29949  -0.28793
 Alpha  occ. eigenvalues --   -0.26080  -0.25113  -0.24367  -0.22202  -0.21908
 Alpha  occ. eigenvalues --   -0.21394  -0.18882  -0.17808  -0.12853  -0.10757
 Alpha  occ. eigenvalues --   -0.09091   0.04934
 Alpha virt. eigenvalues --    0.07839   0.09435   0.09881   0.10613   0.11484
 Alpha virt. eigenvalues --    0.12386   0.13713   0.14512   0.15463   0.15857
 Alpha virt. eigenvalues --    0.16326   0.16988   0.17851   0.18502   0.18570

  Beta  occ. eigenvalues --  -88.71119 -19.01938 -18.94093 -10.12866 -10.05304
  Beta  occ. eigenvalues --  -10.04298 -10.03869 -10.03302 -10.02599 -10.01583
  Beta  occ. eigenvalues --   -7.79793  -5.76114  -5.75760  -5.75263  -0.95160
  Beta  occ. eigenvalues --   -0.85566  -0.72659  -0.65228  -0.58465  -0.57567
  Beta  occ. eigenvalues --   -0.51686  -0.47097  -0.41089  -0.38428  -0.35992
  Beta  occ. eigenvalues --   -0.33155  -0.32551  -0.29847  -0.29025  -0.28578
  Beta  occ. eigenvalues --   -0.25810  -0.24914  -0.24189  -0.22008  -0.21686
  Beta  occ. eigenvalues --   -0.20755  -0.18607  -0.16690  -0.12592  -0.09795
  Beta  occ. eigenvalues --   -0.07375
  Beta virt. eigenvalues --    0.08031   0.09407   0.09909   0.10399   0.11157
  Beta virt. eigenvalues --    0.11644   0.12506   0.13611   0.14514   0.15491
  Beta virt. eigenvalues --    0.16069   0.16544   0.17404   0.17883   0.18537

 Mulliken charges and spin densities:
               1          2
     1  C    0.067310  -0.617323
     2  C   -0.645378   0.317210
     3  C    0.699576   0.072610
     4  C   -0.402081  -0.235510
     5  C    0.065040   0.203570
     6  C   -0.296338  -0.035831
     7  S   -0.475903   0.117066
     8  C    0.410234   0.171535
     9  O   -0.422584   0.091766
    10  O   -0.228129   0.012408
    11  H    0.119283   0.014996
    12  H   -0.355073   0.465246
    13  H    0.116959   0.007608
    14  H   -0.001631   0.134468
    15  H   -0.111104   0.261421
    16  H    0.057511   0.035185
    17  H    0.146923  -0.015891
    18  H    0.255386  -0.000533
 Sum of Mulliken charges =  -1.00000   1.00000

 Dipole moment (field-independent basis, Debye):
    X=             -0.9063    Y=              2.4342    Z=              0.8370  Tot=              2.7289
 Quadrupole moment (field-independent basis, Debye-Ang):
   XX=           -107.1436   YY=            -84.6560   ZZ=            -78.1727
   XY=             -1.4385   XZ=              0.3590   YZ=             -0.6040

 Summary of Natural Population Analysis:

                                       Natural Population
                Natural  -----------------------------------------------
    Atom  No    Charge         Core      Valence    Rydberg      Total
 -----------------------------------------------------------------------
      C    1   -0.27831      0.99966     2.27282    0.00583     3.27831
      C    2   -0.20849      0.99959     2.19826    0.01064     3.20849
      C    3   -0.02711      0.99951     2.01231    0.01529     3.02711
      C    4   -0.16701      0.99947     2.15808    0.00946     3.16701
      C    5   -0.06221      0.99950     2.05337    0.00934     3.06221
      C    6   -0.13934      0.99944     2.12792    0.01198     3.13934
      S    7    0.22286      4.99939     2.75523    0.02253     7.77714
      C    8    0.41140      0.99959     1.56484    0.02417     2.58860
      O    9   -0.31016      0.99987     3.30266    0.00763     4.31016
      O   10   -0.35368      0.99988     3.34783    0.00598     4.35368
      H   11    0.09555      0.00000     0.40352    0.00093     0.40445
      H   12    0.09244      0.00000     0.40558    0.00198     0.40756
      H   13    0.09789      0.00000     0.40121    0.00090     0.40211
      H   14    0.09745      0.00000     0.40134    0.00121     0.40255
      H   15    0.10249      0.00000     0.39578    0.00173     0.39751
      H   16    0.09595      0.00000     0.40290    0.00115     0.40405
      H   17    0.10084      0.00000     0.39815    0.00101     0.39916
      H   18    0.22945      0.00000     0.26724    0.00331     0.27055
 =======================================================================
   * Total *   -0.00000     13.99590    26.86904    0.13506    41.00000

 Normal termination of Gaussian 16 at Tue Dec  8 13:50:36 2020.
