 Gaussian 16, Revision A.03,

 -----------------------------------------------------------
 # opt freq B3LYP/6-31G(d) empiricaldispersion=gd3bj scf=xqc
 -----------------------------------------------------------

 -------------------------------
 CID_102649947_JID_2539_neutraal
 -------------------------------
 Symbolic Z-matrix:
 Charge =  0 Multiplicity = 1

 SCF Done:  E(RB3LYP) =  -897.370188646     A.U. after   13 cycles
 SCF Done:  E(RB3LYP) =  -897.379036944     A.U. after   13 cycles
 SCF Done:  E(RB3LYP) =  -897.380065392     A.U. after   12 cycles
 SCF Done:  E(RB3LYP) =  -897.379102156     A.U. after   12 cycles
 SCF Done:  E(RB3LYP) =  -897.380640831     A.U. after   12 cycles
 SCF Done:  E(RB3LYP) =  -897.380824515     A.U. after   12 cycles
 SCF Done:  E(RB3LYP) =  -897.381039472     A.U. after   11 cycles
 SCF Done:  E(RB3LYP) =  -897.381162256     A.U. after   11 cycles
 SCF Done:  E(RB3LYP) =  -897.381378705     A.U. after   11 cycles
 SCF Done:  E(RB3LYP) =  -897.381972389     A.U. after   12 cycles
 SCF Done:  E(RB3LYP) =  -897.389323095     A.U. after   11 cycles
 SCF Done:  E(RB3LYP) =  -897.389404816     A.U. after   10 cycles
 SCF Done:  E(RB3LYP) =  -897.389416649     A.U. after   10 cycles
 SCF Done:  E(RB3LYP) =  -897.389420343     A.U. after    9 cycles
 SCF Done:  E(RB3LYP) =  -897.389420934     A.U. after    8 cycles
 SCF Done:  E(RB3LYP) =  -897.389420997     A.U. after    6 cycles
 Optimization completed.
    -- Stationary point found.
 Normal termination of Gaussian 16 at Wed Dec  9 17:44:50 2020.

 --------------------------------------------------------------------
 #N Geom=AllCheck Guess=TCheck SCRF=Check GenChk RB3LYP/6-31G(d) Freq
 --------------------------------------------------------------------

 Structure from the checkpoint file:  "JID_2539.chk"
 -------------------------------
 CID_102649947_JID_2539_neutraal
 -------------------------------
 Charge =  0 Multiplicity = 1

 SCF Done:  E(RB3LYP) =  -897.389420997     A.U. after    1 cycles

  Exact polarizability: 121.264  -3.652 121.014   3.225   0.511 101.826
 Approx polarizability: 159.401  -7.316 171.207   9.435  -5.273 166.878

                      1                      2                      3
                      A                      A                      A
 Frequencies --     51.1482                67.4356                79.2970
 Red. masses --      4.1405                 3.3598                 3.6965
 Frc consts  --      0.0064                 0.0090                 0.0137
 IR Inten    --      0.5604                 0.8087                 0.2346

                      4                      5                      6
                      A                      A                      A
 Frequencies --    101.1997               139.9781               159.5570
 Red. masses --      3.1970                 4.0804                 2.2165
 Frc consts  --      0.0193                 0.0471                 0.0332
 IR Inten    --      0.9865                 1.3514                 4.8120

                      7                      8                      9
                      A                      A                      A
 Frequencies --    176.5354               200.0827               205.9866
 Red. masses --      2.4542                 1.9949                 1.8647
 Frc consts  --      0.0451                 0.0471                 0.0466
 IR Inten    --      1.5662                 3.6633                 3.8746

                     10                     11                     12
                      A                      A                      A
 Frequencies --    250.2933               264.8563               323.8139
 Red. masses --      2.7436                 2.7887                 2.1325
 Frc consts  --      0.1013                 0.1153                 0.1317
 IR Inten    --      1.3628                 1.6938                 4.5633

                     13                     14                     15
                      A                      A                      A
 Frequencies --    365.9038               373.3500               414.5516
 Red. masses --      3.0101                 1.2007                 4.5787
 Frc consts  --      0.2374                 0.0986                 0.4636
 IR Inten    --      4.9560                30.0540                 1.7182

                     16                     17                     18
                      A                      A                      A
 Frequencies --    480.9931               508.7234               535.5799
 Red. masses --      3.5199                 3.8892                 2.8021
 Frc consts  --      0.4798                 0.5930                 0.4736
 IR Inten    --      3.3107                 1.9677                 5.0887

                     19                     20                     21
                      A                      A                      A
 Frequencies --    650.4692               700.4838               720.3469
 Red. masses --      2.2327                 5.0834                 4.7650
 Frc consts  --      0.5566                 1.4696                 1.4568
 IR Inten    --      6.1291                 6.2012                 1.7361

                     22                     23                     24
                      A                      A                      A
 Frequencies --    759.4595               786.6625               820.1051
 Red. masses --      5.4479                 1.3426                 1.9138
 Frc consts  --      1.8514                 0.4895                 0.7584
 IR Inten    --     24.9076                37.3232                57.7132

                     25                     26                     27
                      A                      A                      A
 Frequencies --    831.3807               866.9594               898.5509
 Red. masses --      2.3031                 2.3157                 1.4983
 Frc consts  --      0.9379                 1.0255                 0.7127
 IR Inten    --     46.2378                 0.3412                 5.9602

                     28                     29                     30
                      A                      A                      A
 Frequencies --    913.0665               951.1120               978.5093
 Red. masses --      1.9372                 2.1978                 2.5010
 Frc consts  --      0.9516                 1.1714                 1.4109
 IR Inten    --     13.6819                12.4248                 2.9663

                     31                     32                     33
                      A                      A                      A
 Frequencies --    988.5748               995.4934              1028.1153
 Red. masses --      1.6970                 1.2056                 1.6269
 Frc consts  --      0.9771                 0.7039                 1.0132
 IR Inten    --     54.5511                 3.0169                52.3243

                     34                     35                     36
                      A                      A                      A
 Frequencies --   1065.2582              1081.0516              1101.5822
 Red. masses --      2.5834                 1.8581                 2.0681
 Frc consts  --      1.7273                 1.2794                 1.4786
 IR Inten    --      4.7698                 8.3037                32.8701

                     37                     38                     39
                      A                      A                      A
 Frequencies --   1105.1821              1121.3402              1168.5029
 Red. masses --      2.3070                 2.7865                 1.5782
 Frc consts  --      1.6602                 2.0643                 1.2696
 IR Inten    --     48.0506                57.0614                31.6192

                     40                     41                     42
                      A                      A                      A
 Frequencies --   1195.0588              1215.4776              1227.0318
 Red. masses --      2.0090                 1.2853                 1.3366
 Frc consts  --      1.6905                 1.1188                 1.1856
 IR Inten    --      7.0432                17.9279                 5.5291

                     43                     44                     45
                      A                      A                      A
 Frequencies --   1271.2273              1286.7581              1314.6575
 Red. masses --      1.4128                 1.2673                 1.1561
 Frc consts  --      1.3452                 1.2363                 1.1772
 IR Inten    --     19.9355                16.9592                 4.3688

                     46                     47                     48
                      A                      A                      A
 Frequencies --   1325.6345              1340.3325              1360.2282
 Red. masses --      1.5489                 1.3071                 1.2640
 Frc consts  --      1.6037                 1.3836                 1.3779
 IR Inten    --     25.2100                11.2832                 1.7724

                     49                     50                     51
                      A                      A                      A
 Frequencies --   1384.8346              1386.4078              1389.7616
 Red. masses --      1.3069                 1.2620                 1.6439
 Frc consts  --      1.4767                 1.4292                 1.8707
 IR Inten    --     14.4150                 3.5124                 4.8897

                     52                     53                     54
                      A                      A                      A
 Frequencies --   1404.3683              1442.5916              1485.3485
 Red. masses --      1.4420                 1.4119                 1.0810
 Frc consts  --      1.6756                 1.7312                 1.4051
 IR Inten    --     12.9876                 3.9198                 2.8564

                     55                     56                     57
                      A                      A                      A
 Frequencies --   1495.5512              1507.7249              1518.4661
 Red. masses --      1.0598                 1.0853                 1.1050
 Frc consts  --      1.3966                 1.4536                 1.5011
 IR Inten    --     11.2108                 3.1521                 1.5080

                     58                     59                     60
                      A                      A                      A
 Frequencies --   1523.3274              1532.5923              1536.2218
 Red. masses --      1.0587                 1.1213                 1.0982
 Frc consts  --      1.4475                 1.5517                 1.5271
 IR Inten    --     11.2752                 4.6107                 6.3326

                     61                     62                     63
                      A                      A                      A
 Frequencies --   1718.6789              1736.6373              3015.5314
 Red. masses --      1.0756                 6.6640                 1.0699
 Frc consts  --      1.8719                11.8414                 5.7324
 IR Inten    --     14.0162                34.9972                34.5476

                     64                     65                     66
                      A                      A                      A
 Frequencies --   3031.4597              3055.9375              3065.5964
 Red. masses --      1.0699                 1.0705                 1.0304
 Frc consts  --      5.7932                 5.8902                 5.7056
 IR Inten    --     39.3416                10.2636                24.5531

                     67                     68                     69
                      A                      A                      A
 Frequencies --   3068.4031              3079.8657              3088.1604
 Red. masses --      1.0817                 1.0652                 1.0793
 Frc consts  --      6.0003                 5.9532                 6.0644
 IR Inten    --     44.1703                 8.1723                16.3680

                     70                     71                     72
                      A                      A                      A
 Frequencies --   3104.8591              3125.8444              3139.2142
 Red. masses --      1.1042                 1.0975                 1.1052
 Frc consts  --      6.2714                 6.3181                 6.4173
 IR Inten    --     37.9791                36.5804                 6.7793

                     73                     74                     75
                      A                      A                      A
 Frequencies --   3150.2976              3159.8043              3201.3727
 Red. masses --      1.1052                 1.1061                 1.0901
 Frc consts  --      6.4625                 6.5065                 6.5825
 IR Inten    --     10.0042                11.8607                 9.7116

                     76                     77                     78
                      A                      A                      A
 Frequencies --   3367.4131              3491.7152              3520.0905
 Red. masses --      1.0551                 1.0754                 1.0847
 Frc consts  --      7.0491                 7.7248                 7.9187
 IR Inten    --     16.4897                 1.0130                 0.0199

 - Thermochemistry -
 -------------------
 Temperature   298.150 Kelvin.  Pressure   1.00000 Atm.
 Atom     1 has atomic number  6 and mass  12.00000

 Molecular mass:   188.09834 amu.
 Principal axes and moments of inertia in atomic units:
                           1         2         3
     Eigenvalues --  1913.419232726.627333847.17691
           X            0.99941  -0.03166   0.01298
           Y            0.03146   0.99939   0.01535
           Z           -0.01346  -0.01494   0.99980
 This molecule is an asymmetric top.
 Rotational symmetry number  1.
 Warning -- assumption of classical behavior for rotation
           may cause significant error
 Rotational temperatures (Kelvin)      0.04527     0.03177     0.02251
 Rotational constants (GHZ):           0.94320     0.66190     0.46911
 Zero-point vibrational energy     642968.7 (Joules/Mol)
                                  153.67321 (Kcal/Mol)
 Warning -- explicit consideration of  18 degrees of freedom as
           vibrations may cause significant error
 Vibrational temperatures:     73.59    97.02   114.09   145.60   201.40
          (Kelvin)            229.57   254.00   287.87   296.37   360.12
                              381.07   465.90   526.45   537.17   596.45
                              692.04   731.94   770.58   935.88  1007.84
                             1036.42  1092.69  1131.83  1179.95  1196.17
                             1247.36  1292.81  1313.70  1368.44  1407.86
                             1422.34  1432.29  1479.23  1532.67  1555.39
                             1584.93  1590.11  1613.36  1681.22  1719.42
                             1748.80  1765.43  1829.01  1851.36  1891.50
                             1907.29  1928.44  1957.07  1992.47  1994.73
                             1999.56  2020.57  2075.57  2137.09  2151.76
                             2169.28  2184.73  2191.73  2205.06  2210.28
                             2472.80  2498.63  4338.68  4361.59  4396.81
                             4410.71  4414.75  4431.24  4443.17  4467.20
                             4497.39  4516.63  4532.58  4546.25  4606.06
                             4844.96  5023.80  5064.63

 Zero-point correction=                           0.244894 (Hartree/Particle)
 Thermal correction to Energy=                    0.258196
 Thermal correction to Enthalpy=                  0.259141
 Thermal correction to Gibbs Free Energy=         0.204774
 Sum of electronic and zero-point Energies=           -897.144527
 Sum of electronic and thermal Energies=              -897.131225
 Sum of electronic and thermal Enthalpies=            -897.130280
 Sum of electronic and thermal Free Energies=         -897.184647

                     E (Thermal)             CV                S
                      KCal/Mol        Cal/Mol-Kelvin    Cal/Mol-Kelvin
 Total                  162.021             49.322            114.425
 Electronic               0.000              0.000              0.000
 Translational            0.889              2.981             41.601
 Rotational               0.889              2.981             31.374
 Vibrational            160.243             43.361             41.450
 Vibration     1          0.595              1.977              4.772
 Vibration     2          0.598              1.970              4.227
 Vibration     3          0.600              1.963              3.908
 Vibration     4          0.604              1.948              3.431
 Vibration     5          0.615              1.913              2.804
 Vibration     6          0.621              1.892              2.555
 Vibration     7          0.628              1.871              2.365
 Vibration     8          0.638              1.840              2.132
 Vibration     9          0.640              1.831              2.079
 Vibration    10          0.663              1.762              1.729
 Vibration    11          0.671              1.737              1.630
 Vibration    12          0.708              1.628              1.291
 Vibration    13          0.739              1.542              1.097
 Vibration    14          0.745              1.527              1.066
 Vibration    15          0.778              1.439              0.911
 Vibration    16          0.837              1.292              0.707
 Vibration    17          0.864              1.231              0.637
 Vibration    18          0.891              1.171              0.575

 Optimization completed.
    -- Stationary point found.
 Normal termination of Gaussian 16 at Wed Dec  9 17:53:05 2020.

 ----------------------------------------------------------------------
 # B3LYP/6-311++G(d,p) empiricaldispersion=gd3bj scf=xqc pop=npa geom=c
 heck
 ----------------------------------------------------------------------

 ---------------------------------------
 CID_102649947_JID_2539_Energie_neutraal
 ---------------------------------------
 Structure from the checkpoint file:  "JID_2539.chk"
 Charge =  0 Multiplicity = 1

 SCF Done:  E(RB3LYP) =  -897.567784029     A.U. after   14 cycles
 Normal termination of Gaussian 16 at Wed Dec  9 17:56:55 2020.

 ----------------------------------------------------------------------
 # B3LYP/6-311++G(d,p) empiricaldispersion=gd3bj scf=xqc pop=npa geom=c
 heck
 ----------------------------------------------------------------------

 -------------------------------------
 CID_102649947_JID_2539_Energie_kation
 -------------------------------------
 Structure from the checkpoint file:  "JID_2539.chk"
 Charge =  1 Multiplicity = 2

 SCF Done:  E(UB3LYP) =  -897.278342992     A.U. after   26 cycles
 Normal termination of Gaussian 16 at Wed Dec  9 18:07:01 2020.
 Gaussian 16:  ES64L-G16RevA.03 25-Dec-2016

 ----------------------------------------------------------------------
 # B3LYP/6-311++G(d,p) empiricaldispersion=gd3bj scf=xqc pop=npa geom=c
 heck
 ----------------------------------------------------------------------

 ------------------------------------
 CID_102649947_JID_2539_Energie_anion
 ------------------------------------
 Structure from the checkpoint file:  "JID_2539.chk"
 Charge = -1 Multiplicity = 2

                         Standard orientation:
 ---------------------------------------------------------------------
 Center     Atomic      Atomic             Coordinates (Angstroms)
 Number     Number       Type             X           Y           Z
 ---------------------------------------------------------------------
      1          6           0       -1.759748   -2.164685   -0.060178
      2         16           0       -2.781911   -0.720585    0.398159
      3          6           0       -1.933915    0.637666   -0.488247
      4          6           0       -0.667015    1.174724    0.188326
      5          6           0        0.476906    0.192550    0.191049
      6          6           0        1.208974   -0.137319    1.266806
      7          6           0        2.448162   -0.989784    1.177428
      8          6           0        2.917316   -1.061956   -0.281896
      9          6           0        1.716295   -1.294646   -1.190950
     10          8           0        0.752069   -0.239015   -1.083588
     11          7           0       -0.292028    2.435844   -0.492706
     12          7           0        0.798197    3.137211    0.113305
     13          1           0       -2.324020   -3.053219    0.234930
     14          1           0       -0.800918   -2.158174    0.461682
     15          1           0       -1.594136   -2.191966   -1.140863
     16          1           0       -1.715834    0.313983   -1.510718
     17          1           0       -2.660009    1.453151   -0.542173
     18          1           0       -0.903519    1.429923    1.226386
     19          1           0        0.888152    0.236277    2.234252
     20          1           0        2.255804   -2.001325    1.565476
     21          1           0        3.241355   -0.571403    1.809764
     22          1           0        3.649736   -1.863466   -0.429431
     23          1           0        3.397557   -0.118399   -0.567475
     24          1           0        1.995420   -1.324406   -2.246887
     25          1           0        1.221575   -2.241855   -0.932994
     26          1           0        0.010868    2.209351   -1.438576
     27          1           0        0.400137    3.698380    0.864312
     28          1           0        1.446813    2.473939    0.552255
 ---------------------------------------------------------------------

 SCF Done:  E(UB3LYP) =  -897.555523866     A.U. after   31 cycles

 The electronic state is 2-A.
 Alpha  occ. eigenvalues --  -88.74314 -19.04916 -14.23159 -14.22351 -10.12362
 Alpha  occ. eigenvalues --  -10.11882 -10.11293 -10.10378 -10.09116 -10.06840
 Alpha  occ. eigenvalues --  -10.06621 -10.06196  -7.82903  -5.79311  -5.78938
 Alpha  occ. eigenvalues --   -5.78261  -0.96602  -0.86981  -0.73258  -0.70242
 Alpha  occ. eigenvalues --   -0.68539  -0.66296  -0.61489  -0.57096  -0.54975
 Alpha  occ. eigenvalues --   -0.52093  -0.48822  -0.43859  -0.41947  -0.40095
 Alpha  occ. eigenvalues --   -0.38325  -0.36981  -0.36036  -0.35439  -0.34702
 Alpha  occ. eigenvalues --   -0.33078  -0.32592  -0.32272  -0.30652  -0.29387
 Alpha  occ. eigenvalues --   -0.27801  -0.26907  -0.26616  -0.23965  -0.22544
 Alpha  occ. eigenvalues --   -0.21949  -0.21400  -0.16574  -0.15107  -0.13133
 Alpha  occ. eigenvalues --   -0.12381   0.04472
 Alpha virt. eigenvalues --    0.06688   0.07396   0.07890   0.09026   0.09261
 Alpha virt. eigenvalues --    0.09587   0.10000   0.10692   0.10934   0.11972
 Alpha virt. eigenvalues --    0.12054   0.12400   0.12928   0.13406   0.13612

  Beta  occ. eigenvalues --  -88.74310 -19.04913 -14.23153 -14.22331 -10.12354
  Beta  occ. eigenvalues --  -10.11845 -10.11290 -10.10376 -10.09078 -10.06803
  Beta  occ. eigenvalues --  -10.06587 -10.06183  -7.82899  -5.79305  -5.78931
  Beta  occ. eigenvalues --   -5.78258  -0.96586  -0.86958  -0.73234  -0.70189
  Beta  occ. eigenvalues --   -0.68506  -0.66249  -0.61449  -0.57034  -0.54917
  Beta  occ. eigenvalues --   -0.52033  -0.48786  -0.43785  -0.41911  -0.40060
  Beta  occ. eigenvalues --   -0.38294  -0.36947  -0.35994  -0.35408  -0.34657
  Beta  occ. eigenvalues --   -0.33032  -0.32553  -0.32233  -0.30616  -0.29338
  Beta  occ. eigenvalues --   -0.27764  -0.26877  -0.26589  -0.23914  -0.22490
  Beta  occ. eigenvalues --   -0.21909  -0.21360  -0.16554  -0.15088  -0.13112
  Beta  occ. eigenvalues --   -0.12356
  Beta virt. eigenvalues --    0.06878   0.07462   0.08208   0.08315   0.09374
  Beta virt. eigenvalues --    0.09948   0.10056   0.10407   0.10926   0.11388
  Beta virt. eigenvalues --    0.12179   0.12540   0.12778   0.13187   0.13600

 Mulliken charges and spin densities:
               1          2
     1  C   -0.044045  -0.674852
     2  S   -0.172042   0.252483
     3  C   -0.151542   0.049535
     4  C   -0.071497  -0.881340
     5  C    1.458416  -1.340903
     6  C   -3.017939   3.149454
     7  C    3.179475  -3.888492
     8  C   -0.228325  -0.043639
     9  C    0.261207  -0.452809
    10  O   -0.158651   0.086515
    11  N   -0.024264   0.081964
    12  N   -0.346501  -0.144556
    13  H   -0.305386   0.493479
    14  H    0.301907  -0.136254
    15  H   -0.100890   0.293476
    16  H    0.169143   0.031912
    17  H    0.218968   0.014968
    18  H    0.156713   0.021406
    19  H   -0.662956   0.867165
    20  H   -0.177729   0.344767
    21  H   -0.478311   0.645455
    22  H   -0.814169   1.008712
    23  H    0.180329  -0.031043
    24  H   -0.638180   0.823612
    25  H   -0.128290   0.266404
    26  H    0.261576   0.012895
    27  H    0.094823   0.143940
    28  H    0.238163   0.005744
 Sum of Mulliken charges =  -1.00000   1.00000

 Dipole moment (field-independent basis, Debye):
    X=             -5.4990    Y=              3.9562    Z=             -0.6091  Tot=              6.8016
 Quadrupole moment (field-independent basis, Debye-Ang):
   XX=           -143.6534   YY=           -136.6060   ZZ=           -117.9942
   XY=              6.4435   XZ=             -1.6564   YZ=             -0.9455

 Summary of Natural Population Analysis:

                                       Natural Population
                Natural  -----------------------------------------------
    Atom  No    Charge         Core      Valence    Rydberg      Total
 -----------------------------------------------------------------------
      C    1   -0.34893      0.99962     2.34238    0.00693     3.34893
      S    2    0.08117      4.99964     2.89956    0.01963     7.91883
      C    3   -0.24984      0.99955     2.24032    0.00996     3.24984
      C    4   -0.04148      0.99951     2.02591    0.01605     3.04148
      C    5    0.14680      0.99934     1.83508    0.01878     2.85320
      C    6   -0.14284      0.99945     2.13286    0.01052     3.14284
      C    7   -0.20379      0.99962     2.19426    0.00991     3.20379
      C    8   -0.20279      0.99964     2.19505    0.00810     3.20279
      C    9   -0.00660      0.99956     1.99444    0.01260     3.00660
      O   10   -0.29580      0.99986     3.28485    0.01109     4.29580
      N   11   -0.25151      0.99974     2.73728    0.01448     3.75151
      N   12   -0.32710      0.99978     2.81513    0.01219     3.82710
      H   13    0.10591      0.00000     0.39287    0.00123     0.39409
      H   14    0.10712      0.00000     0.39077    0.00211     0.39288
      H   15    0.10311      0.00000     0.39523    0.00166     0.39689
      H   16    0.10662      0.00000     0.39172    0.00166     0.39338
      H   17    0.11072      0.00000     0.38805    0.00123     0.38928
      H   18    0.10067      0.00000     0.39710    0.00223     0.39933
      H   19    0.10461      0.00000     0.39344    0.00195     0.39539
      H   20    0.10372      0.00000     0.39399    0.00229     0.39628
      H   21    0.10629      0.00000     0.39154    0.00217     0.39371
      H   22    0.10875      0.00000     0.38798    0.00327     0.39125
      H   23    0.09759      0.00000     0.40084    0.00157     0.40241
      H   24    0.09394      0.00000     0.40418    0.00188     0.40606
      H   25    0.08479      0.00000     0.41281    0.00240     0.41521
      H   26    0.17105      0.00000     0.32595    0.00300     0.32895
      H   27    0.16780      0.00000     0.33032    0.00188     0.33220
      H   28    0.17000      0.00000     0.32784    0.00216     0.33000
 =======================================================================
   * Total *   -0.00000     15.99532    34.82175    0.18293    51.00000

 Normal termination of Gaussian 16 at Wed Dec  9 18:18:21 2020.
