 Gaussian 16, Revision A.03,

 -----------------------------------------------------------
 # opt freq B3LYP/6-31G(d) empiricaldispersion=gd3bj scf=xqc
 -----------------------------------------------------------

 ------------------------------
 CID_14115556_JID_4827_neutraal
 ------------------------------
 Symbolic Z-matrix:
 Charge =  0 Multiplicity = 1

 SCF Done:  E(RB3LYP) =  -936.519191300     A.U. after   14 cycles
 SCF Done:  E(RB3LYP) =  -936.525739007     A.U. after   12 cycles
 SCF Done:  E(RB3LYP) =  -936.527539296     A.U. after   12 cycles
 SCF Done:  E(RB3LYP) =  -936.528100557     A.U. after   12 cycles
 SCF Done:  E(RB3LYP) =  -936.528162449     A.U. after   11 cycles
 SCF Done:  E(RB3LYP) =  -936.528191973     A.U. after   10 cycles
 SCF Done:  E(RB3LYP) =  -936.528198252     A.U. after    9 cycles
 SCF Done:  E(RB3LYP) =  -936.528201463     A.U. after    9 cycles
 SCF Done:  E(RB3LYP) =  -936.528203713     A.U. after    9 cycles
 SCF Done:  E(RB3LYP) =  -936.528204582     A.U. after    8 cycles
 SCF Done:  E(RB3LYP) =  -936.528204761     A.U. after    7 cycles
 SCF Done:  E(RB3LYP) =  -936.528204787     A.U. after    7 cycles
 SCF Done:  E(RB3LYP) =  -936.528204804     A.U. after    6 cycles
 Optimization completed.
    -- Stationary point found.
 Normal termination of Gaussian 16 at Thu Dec 10 10:39:48 2020.

 --------------------------------------------------------------------
 #N Geom=AllCheck Guess=TCheck SCRF=Check GenChk RB3LYP/6-31G(d) Freq
 --------------------------------------------------------------------

 Structure from the checkpoint file:  "JID_4827.chk"
 ------------------------------
 CID_14115556_JID_4827_neutraal
 ------------------------------
 Charge =  0 Multiplicity = 1

 SCF Done:  E(RB3LYP) =  -936.528204804     A.U. after    1 cycles

  Exact polarizability: 221.440  -9.224 131.404   5.436   6.572 104.805
 Approx polarizability: 290.904 -16.097 214.109  11.213  22.885 168.047

                      1                      2                      3
                      A                      A                      A
 Frequencies --     36.3707                41.2699                71.4718
 Red. masses --      4.0217                 3.1167                 3.9087
 Frc consts  --      0.0031                 0.0031                 0.0118
 IR Inten    --      0.2110                 2.1606                 1.1478

                      4                      5                      6
                      A                      A                      A
 Frequencies --     85.7934               112.3916               155.9576
 Red. masses --      2.9162                 2.9026                 1.7788
 Frc consts  --      0.0126                 0.0216                 0.0255
 IR Inten    --      0.1783                 0.3367                 0.2358

                      7                      8                      9
                      A                      A                      A
 Frequencies --    164.2579               200.7955               218.8229
 Red. masses --      1.4894                 3.5775                 4.4611
 Frc consts  --      0.0237                 0.0850                 0.1259
 IR Inten    --      0.1131                 4.4464                 2.1725

                     10                     11                     12
                      A                      A                      A
 Frequencies --    255.9596               276.9126               311.5979
 Red. masses --      1.7001                 5.2400                 3.9016
 Frc consts  --      0.0656                 0.2367                 0.2232
 IR Inten    --      0.1818                 2.9708                 0.4245

                     13                     14                     15
                      A                      A                      A
 Frequencies --    338.6434               397.4788               402.9337
 Red. masses --      3.1832                 3.5010                 4.5769
 Frc consts  --      0.2151                 0.3259                 0.4378
 IR Inten    --      0.3743                 1.5812                 8.8675

                     16                     17                     18
                      A                      A                      A
 Frequencies --    484.9017               526.6503               535.9836
 Red. masses --      3.6065                 4.7786                 5.3415
 Frc consts  --      0.4996                 0.7809                 0.9041
 IR Inten    --      8.1789                 1.1735                 2.9503

                     19                     20                     21
                      A                      A                      A
 Frequencies --    584.5270               617.4763               645.9479
 Red. masses --      1.8132                 3.2116                 4.6478
 Frc consts  --      0.3650                 0.7215                 1.1426
 IR Inten    --      0.5290                 5.0639                32.3139

                     22                     23                     24
                      A                      A                      A
 Frequencies --    697.6815               730.7356               761.3949
 Red. masses --      5.8560                 2.4687                 1.8902
 Frc consts  --      1.6795                 0.7767                 0.6456
 IR Inten    --      1.7669                 1.9949                 8.8772

                     25                     26                     27
                      A                      A                      A
 Frequencies --    813.1767               879.4476               887.9406
 Red. masses --      2.3136                 1.9038                 1.9629
 Frc consts  --      0.9014                 0.8675                 0.9118
 IR Inten    --     14.4745                 6.0691                 1.8861

                     28                     29                     30
                      A                      A                      A
 Frequencies --    908.7961               930.0467               936.2681
 Red. masses --      3.4071                 2.5973                 1.8737
 Frc consts  --      1.6579                 1.3237                 0.9677
 IR Inten    --      4.7217                 1.4880                 4.0564

                     31                     32                     33
                      A                      A                      A
 Frequencies --    942.9317               952.1963               961.4400
 Red. masses --      1.4869                 2.1160                 1.3794
 Frc consts  --      0.7789                 1.1303                 0.7513
 IR Inten    --      7.8312                 9.2194                 1.6582

                     34                     35                     36
                      A                      A                      A
 Frequencies --    983.6027               990.5760               998.3059
 Red. masses --      1.2023                 1.8922                 1.8258
 Frc consts  --      0.6853                 1.0939                 1.0721
 IR Inten    --      2.4492                 1.9407                20.2076

                     37                     38                     39
                      A                      A                      A
 Frequencies --   1002.3571              1041.0566              1056.9829
 Red. masses --      1.4152                 2.2126                 3.3282
 Frc consts  --      0.8377                 1.4129                 2.1908
 IR Inten    --     19.2136                13.6822                 2.7612

                     40                     41                     42
                      A                      A                      A
 Frequencies --   1077.2137              1157.5726              1182.3865
 Red. masses --      2.0741                 1.6432                 2.5809
 Frc consts  --      1.4180                 1.2973                 2.1259
 IR Inten    --      2.4781                 4.3600                19.1978

                     43                     44                     45
                      A                      A                      A
 Frequencies --   1199.8956              1210.5741              1217.2230
 Red. masses --      1.2166                 1.6055                 1.3282
 Frc consts  --      1.0320                 1.3863                 1.1594
 IR Inten    --      6.6199                13.9719                 0.5616

                     46                     47                     48
                      A                      A                      A
 Frequencies --   1252.0849              1268.2119              1274.0431
 Red. masses --      1.5088                 1.2637                 1.3178
 Frc consts  --      1.3937                 1.1975                 1.2602
 IR Inten    --      7.8226                12.9049                45.4484

                     49                     50                     51
                      A                      A                      A
 Frequencies --   1308.9253              1323.9653              1338.7786
 Red. masses --      1.9341                 1.3858                 1.3663
 Frc consts  --      1.9523                 1.4312                 1.4428
 IR Inten    --     71.4522                 4.5280                 0.8720

                     52                     53                     54
                      A                      A                      A
 Frequencies --   1368.4251              1373.4310              1380.4951
 Red. masses --      1.2738                 1.4102                 1.1588
 Frc consts  --      1.4054                 1.5672                 1.3011
 IR Inten    --      0.7430                11.2941                12.7243

                     55                     56                     57
                      A                      A                      A
 Frequencies --   1391.0236              1393.6907              1452.1131
 Red. masses --      1.5128                 1.5351                 1.9013
 Frc consts  --      1.7246                 1.7567                 2.3621
 IR Inten    --     31.2482                46.6663                 2.4517

                     58                     59                     60
                      A                      A                      A
 Frequencies --   1496.0490              1501.0116              1506.6885
 Red. masses --      1.0558                 3.0753                 1.3293
 Frc consts  --      1.3923                 4.0823                 1.7780
 IR Inten    --      8.5955               203.6340               137.1718

                     61                     62                     63
                      A                      A                      A
 Frequencies --   1513.1456              1520.1911              1527.2955
 Red. masses --      1.0579                 1.0900                 1.1343
 Frc consts  --      1.4271                 1.4841                 1.5590
 IR Inten    --      6.0233                 3.7774                 8.7378

                     64                     65                     66
                      A                      A                      A
 Frequencies --   1541.3083              1546.1167              1558.1355
 Red. masses --      3.4999                 1.1172                 1.1730
 Frc consts  --      4.8988                 1.5735                 1.6779
 IR Inten    --    114.9544                 4.8010                18.3650

                     67                     68                     69
                      A                      A                      A
 Frequencies --   1635.1632              1660.8504              3019.4769
 Red. masses --      6.4346                 5.9518                 1.0680
 Frc consts  --     10.1367                 9.6729                 5.7369
 IR Inten    --    548.6669               156.2477                60.2842

                     70                     71                     72
                      A                      A                      A
 Frequencies --   3037.8687              3041.7320              3058.1111
 Red. masses --      1.0728                 1.0693                 1.0290
 Frc consts  --      5.8331                 5.8291                 5.6698
 IR Inten    --     24.3739                23.2513                34.7786

                     73                     74                     75
                      A                      A                      A
 Frequencies --   3063.0194              3068.3188              3083.3592
 Red. masses --      1.0709                 1.0659                 1.0907
 Frc consts  --      5.9196                 5.9124                 6.1095
 IR Inten    --     20.0935                15.5276                37.7728

                     76                     77                     78
                      A                      A                      A
 Frequencies --   3120.8193              3123.8483              3131.0176
 Red. masses --      1.0927                 1.0983                 1.1048
 Frc consts  --      6.2704                 6.3148                 6.3814
 IR Inten    --     21.2055                27.5461                41.4120

                     79                     80                     81
                      A                      A                      A
 Frequencies --   3139.4102              3144.6327              3149.5357
 Red. masses --      1.0937                 1.1073                 1.1056
 Frc consts  --      6.3512                 6.4512                 6.4616
 IR Inten    --     19.7719                13.7539                14.9139

                     82                     83                     84
                      A                      A                      A
 Frequencies --   3159.5676              3167.2019              3189.8513
 Red. masses --      1.0884                 1.0854                 1.0954
 Frc consts  --      6.4018                 6.4150                 6.5671
 IR Inten    --     21.3983                 9.3520                23.5627

 - Thermochemistry -
 -------------------
 Temperature   298.150 Kelvin.  Pressure   1.00000 Atm.
 Atom     1 has atomic number  6 and mass  12.00000

 Molecular mass:   208.10342 amu.
 Principal axes and moments of inertia in atomic units:
                           1         2         3
     Eigenvalues --  1143.538836229.340696788.39015
           X            0.99997  -0.00700   0.00427
           Y            0.00707   0.99985  -0.01600
           Z           -0.00416   0.01602   0.99986
 This molecule is an asymmetric top.
 Rotational symmetry number  1.
 Warning -- assumption of classical behavior for rotation
           may cause significant error
 Rotational temperatures (Kelvin)      0.07574     0.01390     0.01276
 Rotational constants (GHZ):           1.57821     0.28972     0.26586
 Zero-point vibrational energy     674782.7 (Joules/Mol)
                                  161.27694 (Kcal/Mol)
 Warning -- explicit consideration of  20 degrees of freedom as
           vibrations may cause significant error
 Vibrational temperatures:     52.33    59.38   102.83   123.44   161.71
          (Kelvin)            224.39   236.33   288.90   314.84   368.27
                              398.42   448.32   487.23   571.88   579.73
                              697.67   757.73   771.16   841.00   888.41
                              929.37  1003.81  1051.37  1095.48  1169.98
                             1265.33  1277.55  1307.55  1338.13  1347.08
                             1356.67  1370.00  1383.30  1415.18  1425.22
                             1436.34  1442.17  1497.85  1520.76  1549.87
                             1665.49  1701.19  1726.38  1741.75  1751.31
                             1801.47  1824.67  1833.06  1883.25  1904.89
                             1926.20  1968.86  1976.06  1986.22  2001.37
                             2005.21  2089.27  2152.48  2159.62  2167.79
                             2177.08  2187.22  2197.44  2217.60  2224.52
                             2241.81  2352.64  2389.59  4344.35  4370.82
                             4376.37  4399.94  4407.00  4414.63  4436.27
                             4490.16  4494.52  4504.84  4516.91  4524.43
                             4531.48  4545.91  4556.90  4589.48

 Zero-point correction=                           0.257011 (Hartree/Particle)
 Thermal correction to Energy=                    0.270851
 Thermal correction to Enthalpy=                  0.271795
 Thermal correction to Gibbs Free Energy=         0.215157
 Sum of electronic and zero-point Energies=           -936.271194
 Sum of electronic and thermal Energies=              -936.257354
 Sum of electronic and thermal Enthalpies=            -936.256410
 Sum of electronic and thermal Free Energies=         -936.313048

                     E (Thermal)             CV                S
                      KCal/Mol        Cal/Mol-Kelvin    Cal/Mol-Kelvin
 Total                  169.961             52.031            119.205
 Electronic               0.000              0.000              0.000
 Translational            0.889              2.981             41.903
 Rotational               0.889              2.981             32.247
 Vibrational            168.184             46.069             45.055
 Vibration     1          0.594              1.982              5.448
 Vibration     2          0.594              1.981              5.197
 Vibration     3          0.598              1.968              4.112
 Vibration     4          0.601              1.959              3.754
 Vibration     5          0.607              1.939              3.227
 Vibration     6          0.620              1.896              2.598
 Vibration     7          0.623              1.886              2.500
 Vibration     8          0.638              1.839              2.126
 Vibration     9          0.647              1.812              1.969
 Vibration    10          0.666              1.753              1.689
 Vibration    11          0.678              1.716              1.553
 Vibration    12          0.700              1.652              1.354
 Vibration    13          0.719              1.598              1.219
 Vibration    14          0.764              1.476              0.972
 Vibration    15          0.768              1.464              0.952
 Vibration    16          0.841              1.284              0.697
 Vibration    17          0.882              1.191              0.595
 Vibration    18          0.891              1.170              0.574
 Vibration    19          0.941              1.065              0.477
 Vibration    20          0.977              0.995              0.421

 Optimization completed.
    -- Stationary point found.
 Normal termination of Gaussian 16 at Thu Dec 10 10:47:53 2020.

 ----------------------------------------------------------------------
 # B3LYP/6-311++G(d,p) empiricaldispersion=gd3bj scf=xqc pop=npa geom=c
 heck
 ----------------------------------------------------------------------

 --------------------------------------
 CID_14115556_JID_4827_Energie_neutraal
 --------------------------------------
 Structure from the checkpoint file:  "JID_4827.chk"
 Charge =  0 Multiplicity = 1

 SCF Done:  E(RB3LYP) =  -936.696336228     A.U. after   15 cycles
 Normal termination of Gaussian 16 at Thu Dec 10 10:51:57 2020.

 ----------------------------------------------------------------------
 # B3LYP/6-311++G(d,p) empiricaldispersion=gd3bj scf=xqc pop=npa geom=c
 heck
 ----------------------------------------------------------------------

 ------------------------------------
 CID_14115556_JID_4827_Energie_kation
 ------------------------------------
 Structure from the checkpoint file:  "JID_4827.chk"
 Charge =  1 Multiplicity = 2

 SCF Done:  E(UB3LYP) =  -936.438510466     A.U. after   23 cycles
 Normal termination of Gaussian 16 at Thu Dec 10 11:00:48 2020.
 Gaussian 16:  ES64L-G16RevA.03 25-Dec-2016

 ----------------------------------------------------------------------
 # B3LYP/6-311++G(d,p) empiricaldispersion=gd3bj scf=xqc pop=npa geom=c
 heck
 ----------------------------------------------------------------------

 -----------------------------------
 CID_14115556_JID_4827_Energie_anion
 -----------------------------------
 Structure from the checkpoint file:  "JID_4827.chk"
 Charge = -1 Multiplicity = 2

                         Standard orientation:
 ---------------------------------------------------------------------
 Center     Atomic      Atomic             Coordinates (Angstroms)
 Number     Number       Type             X           Y           Z
 ---------------------------------------------------------------------
      1          6           0        4.085277   -1.403374    0.994289
      2         16           0        3.900563   -0.031321   -0.209702
      3          6           0        2.124339    0.226378   -0.157254
      4          6           0        1.326159   -0.647434   -0.867940
      5          7           0       -0.024192   -0.799728   -0.809804
      6          6           0       -0.842076    0.191236   -0.581398
      7          6           0       -0.379779    1.633124   -0.710772
      8          6           0        0.447333    1.913029    0.508800
      9          6           0        1.625285    1.274152    0.700830
     10          7           0       -2.116898   -0.078584   -0.217567
     11          6           0       -2.567772   -1.454321    0.023287
     12          6           0       -4.086491   -1.306571    0.165336
     13          6           0       -4.245135    0.094424    0.775267
     14          6           0       -3.154331    0.914599    0.069695
     15          1           0        5.149903   -1.649938    1.046211
     16          1           0        3.526550   -2.283183    0.664531
     17          1           0        3.739344   -1.100558    1.986485
     18          1           0        1.832624   -1.414095   -1.453055
     19          1           0        0.246084    1.686771   -1.611396
     20          1           0       -1.208719    2.333645   -0.822554
     21          1           0        0.074724    2.618264    1.247488
     22          1           0        2.253381    1.562761    1.541300
     23          1           0       -2.101976   -1.849091    0.936580
     24          1           0       -2.257996   -2.097437   -0.803870
     25          1           0       -4.561009   -1.343767   -0.822366
     26          1           0       -4.527480   -2.095781    0.780264
     27          1           0       -5.241289    0.522709    0.634470
     28          1           0       -4.041724    0.059370    1.851777
     29          1           0       -3.533512    1.370630   -0.856041
     30          1           0       -2.767131    1.717569    0.706143
 ---------------------------------------------------------------------

 SCF Done:  E(UB3LYP) =  -936.686158718     A.U. after   33 cycles
 SCF Done:  E(UB3LYP) =  -936.686348592     a.u. after    7 cycles

 The electronic state is 2-A.
 Alpha  occ. eigenvalues --  -88.74579 -14.24470 -14.19375 -10.15474 -10.10770
 Alpha  occ. eigenvalues --  -10.10681 -10.10248 -10.10198 -10.09134 -10.08725
 Alpha  occ. eigenvalues --  -10.07796 -10.07681 -10.07356 -10.07256  -7.83150
 Alpha  occ. eigenvalues --   -5.79559  -5.79183  -5.78515  -0.88564  -0.81736
 Alpha  occ. eigenvalues --   -0.72681  -0.70988  -0.68794  -0.64641  -0.64312
 Alpha  occ. eigenvalues --   -0.58928  -0.57358  -0.52852  -0.49970  -0.49679
 Alpha  occ. eigenvalues --   -0.45461  -0.43957  -0.41026  -0.39262  -0.38532
 Alpha  occ. eigenvalues --   -0.36470  -0.34567  -0.33653  -0.33497  -0.33296
 Alpha  occ. eigenvalues --   -0.32792  -0.31263  -0.29995  -0.29924  -0.28576
 Alpha  occ. eigenvalues --   -0.27447  -0.25568  -0.25270  -0.24628  -0.23691
 Alpha  occ. eigenvalues --   -0.22619  -0.20274  -0.16576  -0.15469  -0.13494
 Alpha  occ. eigenvalues --   -0.10268   0.04172
 Alpha virt. eigenvalues --    0.05830   0.06731   0.07095   0.07655   0.08267
 Alpha virt. eigenvalues --    0.09007   0.09288   0.09593   0.09990   0.10149
 Alpha virt. eigenvalues --    0.10747   0.11181   0.11846   0.11946   0.12533

  Beta  occ. eigenvalues --  -88.74578 -14.24467 -14.19380 -10.15446 -10.10754
  Beta  occ. eigenvalues --  -10.10639 -10.10229 -10.10182 -10.09129 -10.08715
  Beta  occ. eigenvalues --  -10.07771 -10.07678 -10.07325 -10.07216  -7.83149
  Beta  occ. eigenvalues --   -5.79558  -5.79180  -5.78515  -0.88533  -0.81715
  Beta  occ. eigenvalues --   -0.72658  -0.70948  -0.68759  -0.64599  -0.64257
  Beta  occ. eigenvalues --   -0.58903  -0.57307  -0.52814  -0.49914  -0.49584
  Beta  occ. eigenvalues --   -0.45394  -0.43921  -0.40979  -0.39226  -0.38504
  Beta  occ. eigenvalues --   -0.36417  -0.34545  -0.33600  -0.33475  -0.33249
  Beta  occ. eigenvalues --   -0.32763  -0.31211  -0.29951  -0.29891  -0.28547
  Beta  occ. eigenvalues --   -0.27415  -0.25511  -0.25202  -0.24595  -0.23634
  Beta  occ. eigenvalues --   -0.22590  -0.20228  -0.16550  -0.15432  -0.13482
  Beta  occ. eigenvalues --   -0.10218
  Beta virt. eigenvalues --    0.05954   0.06679   0.07036   0.07928   0.08320
  Beta virt. eigenvalues --    0.08780   0.09161   0.09406   0.09852   0.10338
  Beta virt. eigenvalues --    0.10686   0.10964   0.11558   0.12014   0.12267

 Mulliken charges and spin densities:
               1          2
     1  C   -0.404352  -0.308361
     2  S   -0.099464  -0.000300
     3  C    0.994685  -0.177971
     4  C   -1.012675   0.389992
     5  N   -0.097227   0.053339
     6  C   -0.601675   0.406570
     7  C   -0.135934  -0.350349
     8  C    0.424069  -0.546623
     9  C   -0.402370   0.029525
    10  N    0.020488   0.210113
    11  C    0.560306  -0.638327
    12  C   -0.040381  -0.412568
    13  C    1.221063  -1.642159
    14  C    0.721862  -0.970254
    15  H    0.061857   0.075302
    16  H    0.099523   0.076951
    17  H    0.033429   0.136018
    18  H    0.095084   0.096308
    19  H    0.105024   0.091645
    20  H   -0.419330   0.600659
    21  H   -0.491121   0.654872
    22  H    0.136874   0.059896
    23  H   -0.047645   0.230566
    24  H    0.034719   0.158563
    25  H    0.004425   0.142734
    26  H   -0.438948   0.608404
    27  H   -0.664677   0.842653
    28  H   -0.113958   0.272926
    29  H   -0.323495   0.511219
    30  H   -0.220154   0.398658
 Sum of Mulliken charges =  -1.00000   1.00000

 Dipole moment (field-independent basis, Debye):
    X=              7.3143    Y=             -2.3898    Z=             -1.4871  Tot=              7.8372
 Quadrupole moment (field-independent basis, Debye-Ang):
   XX=           -188.1163   YY=           -134.9985   ZZ=           -122.9219
   XY=              3.7539   XZ=              7.8437   YZ=             -0.5038

 Summary of Natural Population Analysis:

                                       Natural Population
                Natural  -----------------------------------------------
    Atom  No    Charge         Core      Valence    Rydberg      Total
 -----------------------------------------------------------------------
      C    1   -0.34738      0.99962     2.34204    0.00571     3.34738
      S    2    0.09147      4.99957     2.88844    0.02052     7.90853
      C    3   -0.15298      0.99941     2.13871    0.01486     3.15298
      C    4    0.02498      0.99945     1.96128    0.01429     2.97502
      N    5   -0.28472      0.99962     2.77433    0.01077     3.78472
      C    6    0.26666      0.99954     1.71785    0.01595     2.73334
      C    7   -0.24027      0.99959     2.23103    0.00966     3.24027
      C    8   -0.08580      0.99954     2.07575    0.01050     3.08580
      C    9   -0.11432      0.99948     2.10196    0.01288     3.11432
      N   10   -0.23678      0.99963     2.72697    0.01019     3.73678
      C   11   -0.07956      0.99962     2.07094    0.00900     3.07956
      C   12   -0.19526      0.99964     2.18696    0.00866     3.19526
      C   13   -0.19214      0.99964     2.18412    0.00839     3.19214
      C   14   -0.08123      0.99962     2.07092    0.01069     3.08123
      H   15    0.10017      0.00000     0.39833    0.00151     0.39983
      H   16    0.10047      0.00000     0.39765    0.00188     0.39953
      H   17    0.10003      0.00000     0.39820    0.00177     0.39997
      H   18    0.09142      0.00000     0.40705    0.00154     0.40858
      H   19    0.11095      0.00000     0.38778    0.00126     0.38905
      H   20    0.11377      0.00000     0.38483    0.00141     0.38623
      H   21    0.10117      0.00000     0.39754    0.00129     0.39883
      H   22    0.10211      0.00000     0.39657    0.00132     0.39789
      H   23    0.09630      0.00000     0.40204    0.00166     0.40370
      H   24    0.10478      0.00000     0.39338    0.00184     0.39522
      H   25    0.09704      0.00000     0.40158    0.00138     0.40296
      H   26    0.10507      0.00000     0.39343    0.00150     0.39493
      H   27    0.10698      0.00000     0.39048    0.00253     0.39302
      H   28    0.09909      0.00000     0.39888    0.00203     0.40091
      H   29    0.09452      0.00000     0.40360    0.00188     0.40548
      H   30    0.10348      0.00000     0.39333    0.00319     0.39652
 =======================================================================
   * Total *   -0.00000     17.99398    37.81599    0.19003    56.00000

 Normal termination of Gaussian 16 at Thu Dec 10 12:14:03 2020.
