 Gaussian 16, Revision A.03,

 -----------------------------------------------------------
 # opt freq B3LYP/6-31G(d) empiricaldispersion=gd3bj scf=xqc
 -----------------------------------------------------------

 -------------------------------
 CID_115173335_JID_8120_neutraal
 -------------------------------
 Symbolic Z-matrix:
 Charge =  0 Multiplicity = 1

 SCF Done:  E(RB3LYP) =  -767.213166001     A.U. after   16 cycles
 SCF Done:  E(RB3LYP) =  -767.239897525     A.U. after   13 cycles
 SCF Done:  E(RB3LYP) =  -767.236720192     A.U. after   16 cycles
 SCF Done:  E(RB3LYP) =  -767.241083687     A.U. after   13 cycles
 SCF Done:  E(RB3LYP) =  -767.243415072     A.U. after   15 cycles
 SCF Done:  E(RB3LYP) =  -767.244455773     A.U. after   13 cycles
 SCF Done:  E(RB3LYP) =  -767.245581326     A.U. after   13 cycles
 SCF Done:  E(RB3LYP) =  -767.245995183     A.U. after   13 cycles
 SCF Done:  E(RB3LYP) =  -767.246383456     A.U. after   12 cycles
 SCF Done:  E(RB3LYP) =  -767.246424053     A.U. after   13 cycles
 SCF Done:  E(RB3LYP) =  -767.246993373     A.U. after   11 cycles
 SCF Done:  E(RB3LYP) =  -767.246996042     A.U. after   10 cycles
 SCF Done:  E(RB3LYP) =  -767.246995948     A.U. after    9 cycles
 SCF Done:  E(RB3LYP) =  -767.246996005     A.U. after    8 cycles
 SCF Done:  E(RB3LYP) =  -767.246996235     A.U. after    7 cycles
 Optimization completed.
    -- Stationary point found.
 Normal termination of Gaussian 16 at Fri Dec 11 19:02:19 2020.

 --------------------------------------------------------------------
 #N Geom=AllCheck Guess=TCheck SCRF=Check GenChk RB3LYP/6-31G(d) Freq
 --------------------------------------------------------------------

 Structure from the checkpoint file:  "JID_8120.chk"
 -------------------------------
 CID_115173335_JID_8120_neutraal
 -------------------------------
 Charge =  0 Multiplicity = 1

 SCF Done:  E(RB3LYP) =  -767.246996235     A.U. after    1 cycles

  Exact polarizability: 179.393  12.301 162.051 -23.932   3.791 133.722
 Approx polarizability: 257.602  28.688 277.247 -40.889   7.173 202.270

                      1                      2                      3
                      A                      A                      A
 Frequencies --     35.8076                42.1551                47.5211
 Red. masses --      5.3977                 6.0538                 5.1001
 Frc consts  --      0.0041                 0.0063                 0.0068
 IR Inten    --      0.9283                 1.5541                 0.4201

                      4                      5                      6
                      A                      A                      A
 Frequencies --     78.0304                91.7443               103.1841
 Red. masses --      4.0509                 3.7247                 1.3016
 Frc consts  --      0.0145                 0.0185                 0.0082
 IR Inten    --      6.1385                 1.1524                 0.3347

                      7                      8                      9
                      A                      A                      A
 Frequencies --    118.3571               140.8527               153.5128
 Red. masses --      3.9046                 3.3012                 2.6852
 Frc consts  --      0.0322                 0.0386                 0.0373
 IR Inten    --      5.9170                 2.2570                 1.2908

                     10                     11                     12
                      A                      A                      A
 Frequencies --    179.0029               204.2052               250.5866
 Red. masses --      2.8044                 3.3833                 2.6558
 Frc consts  --      0.0529                 0.0831                 0.0983
 IR Inten    --      1.7127                 6.1946                 0.5125

                     13                     14                     15
                      A                      A                      A
 Frequencies --    288.8244               310.3605               344.8474
 Red. masses --      2.9550                 2.6976                 3.4351
 Frc consts  --      0.1452                 0.1531                 0.2407
 IR Inten    --      4.0546                 4.7261                 2.6298

                     16                     17                     18
                      A                      A                      A
 Frequencies --    372.9180               403.9863               410.6599
 Red. masses --      3.3784                 3.9282                 3.5839
 Frc consts  --      0.2768                 0.3777                 0.3561
 IR Inten    --      0.7613                 3.9079                 1.8288

                     19                     20                     21
                      A                      A                      A
 Frequencies --    430.2007               449.0688               464.3527
 Red. masses --      2.8170                 3.2771                 3.1882
 Frc consts  --      0.3072                 0.3894                 0.4050
 IR Inten    --      1.4360                 1.4966                 3.8678

                     22                     23                     24
                      A                      A                      A
 Frequencies --    485.0646               495.4799               570.5231
 Red. masses --      3.4229                 3.5860                 3.8795
 Frc consts  --      0.4745                 0.5187                 0.7440
 IR Inten    --      4.7273                 2.3017                 2.4839

                     25                     26                     27
                      A                      A                      A
 Frequencies --    584.6074               616.3726               641.5852
 Red. masses --      4.1568                 2.2837                 2.8248
 Frc consts  --      0.8370                 0.5112                 0.6851
 IR Inten    --     10.3285                 5.6041                 3.1181

                     28                     29                     30
                      A                      A                      A
 Frequencies --    689.6313               718.9325               744.1202
 Red. masses --      4.8738                 3.5137                 3.4073
 Frc consts  --      1.3657                 1.0700                 1.1116
 IR Inten    --      9.2790                 3.4394                 0.3980

                     31                     32                     33
                      A                      A                      A
 Frequencies --    755.0374               777.0528               838.7706
 Red. masses --      3.9867                 2.9635                 1.3889
 Frc consts  --      1.3391                 1.0543                 0.5757
 IR Inten    --      8.5959                 0.5243                18.0865

                     34                     35                     36
                      A                      A                      A
 Frequencies --    875.4934               882.8308               910.6448
 Red. masses --      2.5236                 1.6525                 2.0463
 Frc consts  --      1.1397                 0.7588                 0.9998
 IR Inten    --      1.3631                 1.6415                 0.1959

                     37                     38                     39
                      A                      A                      A
 Frequencies --    915.1207               923.2417               927.1225
 Red. masses --      1.8852                 1.9856                 2.0420
 Frc consts  --      0.9302                 0.9972                 1.0342
 IR Inten    --      0.6507                 2.1381                 4.4847

                     40                     41                     42
                      A                      A                      A
 Frequencies --    947.6496               952.8489               974.9740
 Red. masses --      2.4789                 1.3691                 3.0063
 Frc consts  --      1.3116                 0.7324                 1.6837
 IR Inten    --      1.2845                 0.3778                 2.0240

                     43                     44                     45
                      A                      A                      A
 Frequencies --    980.3627              1007.8207              1019.8294
 Red. masses --      2.6648                 2.4137                 2.2284
 Frc consts  --      1.5090                 1.4444                 1.3655
 IR Inten    --      2.8826                 5.7379                 1.1120

                     46                     47                     48
                      A                      A                      A
 Frequencies --   1057.4476              1074.9400              1119.5199
 Red. masses --      2.0743                 1.7026                 2.6315
 Frc consts  --      1.3666                 1.1591                 1.9432
 IR Inten    --     13.4203                 3.8881                 0.6474

                     49                     50                     51
                      A                      A                      A
 Frequencies --   1125.8549              1158.7565              1161.5721
 Red. masses --      1.9148                 1.3271                 1.2886
 Frc consts  --      1.4300                 1.0499                 1.0244
 IR Inten    --      7.4849                13.4424                 2.3586

                     52                     53                     54
                      A                      A                      A
 Frequencies --   1172.8091              1200.4616              1205.5890
 Red. masses --      1.4411                 1.3429                 1.2749
 Frc consts  --      1.1679                 1.1402                 1.0918
 IR Inten    --      6.8728                35.5063                 0.6536

                     55                     56                     57
                      A                      A                      A
 Frequencies --   1228.4021              1237.5549              1252.6324
 Red. masses --      1.7679                 1.2249                 1.3288
 Frc consts  --      1.5718                 1.1053                 1.2284
 IR Inten    --      1.5287                 0.7744                 4.5960

                     58                     59                     60
                      A                      A                      A
 Frequencies --   1273.5742              1279.1774              1296.5790
 Red. masses --      2.5866                 1.4423                 3.2652
 Frc consts  --      2.4718                 1.3905                 3.2341
 IR Inten    --      6.2596                31.4122                18.2900

                     61                     62                     63
                      A                      A                      A
 Frequencies --   1307.5404              1323.0252              1326.7013
 Red. masses --      1.3003                 2.0833                 1.5086
 Frc consts  --      1.3098                 2.1485                 1.5644
 IR Inten    --      2.3237                 1.3067                 7.1587

                     64                     65                     66
                      A                      A                      A
 Frequencies --   1344.4725              1358.6354              1372.2144
 Red. masses --      1.3307                 1.3752                 1.4994
 Frc consts  --      1.4172                 1.4957                 1.6634
 IR Inten    --      1.5702                 0.4109                 5.7575

                     67                     68                     69
                      A                      A                      A
 Frequencies --   1380.7083              1408.7668              1446.5016
 Red. masses --      3.3165                 1.3372                 1.9572
 Frc consts  --      3.7251                 1.5636                 2.4129
 IR Inten    --      7.6390                13.2483                89.8339

                     70                     71                     72
                      A                      A                      A
 Frequencies --   1477.1503              1478.1554              1481.9209
 Red. masses --      1.5877                 1.7301                 1.2856
 Frc consts  --      2.0411                 2.2272                 1.6635
 IR Inten    --     41.0702                10.4479                 3.4269

                     73                     74                     75
                      A                      A                      A
 Frequencies --   1509.0324              1511.7700              1512.7083
 Red. masses --      1.1178                 1.1168                 1.1089
 Frc consts  --      1.4997                 1.5038                 1.4951
 IR Inten    --      3.3801                 1.9419                 0.5047

                     76                     77                     78
                      A                      A                      A
 Frequencies --   1515.7902              1531.2269              1532.7533
 Red. masses --      1.0877                 1.1062                 1.1141
 Frc consts  --      1.4724                 1.5282                 1.5421
 IR Inten    --     14.8284                 0.5265                 2.1969

                     79                     80                     81
                      A                      A                      A
 Frequencies --   1542.4637              1548.4868              1637.2238
 Red. masses --      2.2668                 1.1627                 6.4481
 Frc consts  --      3.1775                 1.6426                10.1835
 IR Inten    --      9.5353                20.9601                 1.7920

                     82                     83                     84
                      A                      A                      A
 Frequencies --   1674.0925              1768.2448              2366.7960
 Red. masses --      6.4836                 9.8725                12.5879
 Frc consts  --     10.7059                18.1870                41.5457
 IR Inten    --      1.2773               253.2442                14.7408

                     85                     86                     87
                      A                      A                      A
 Frequencies --   3027.6565              3029.9109              3042.2808
 Red. masses --      1.0701                 1.0697                 1.0477
 Frc consts  --      5.7794                 5.7860                 5.7134
 IR Inten    --     37.1978                28.4049                28.7390

                     88                     89                     90
                      A                      A                      A
 Frequencies --   3056.2846              3063.5358              3073.8989
 Red. masses --      1.0602                 1.0665                 1.0697
 Frc consts  --      5.8349                 5.8973                 5.9549
 IR Inten    --     25.9857                21.5631                52.3576

                     91                     92                     93
                      A                      A                      A
 Frequencies --   3090.8770              3091.3277              3097.7667
 Red. masses --      1.0700                 1.0830                 1.1043
 Frc consts  --      6.0226                 6.0977                 6.2436
 IR Inten    --     15.3544                26.0318                15.3921

                     94                     95                     96
                      A                      A                      A
 Frequencies --   3099.9711              3118.0653              3120.9623
 Red. masses --      1.0923                 1.0912                 1.1032
 Frc consts  --      6.1844                 6.2504                 6.3310
 IR Inten    --     18.4659                32.8584                46.7272

                     97                     98                     99
                      A                      A                      A
 Frequencies --   3144.3055              3158.7204              3175.0880
 Red. masses --      1.1011                 1.0947                 1.0871
 Frc consts  --      6.4142                 6.4353                 6.4572
 IR Inten    --      3.6879                10.3363                 8.6331

                    100                    101                    102
                      A                      A                      A
 Frequencies --   3182.8097              3187.7112              3193.6701
 Red. masses --      1.1011                 1.0902                 1.0942
 Frc consts  --      6.5721                 6.5269                 6.5754
 IR Inten    --      3.4416                17.5789                16.8807

 - Thermochemistry -
 -------------------
 Temperature   298.150 Kelvin.  Pressure   1.00000 Atm.
 Atom     1 has atomic number  6 and mass  12.00000

 Molecular mass:   242.14191 amu.
 Principal axes and moments of inertia in atomic units:
                           1         2         3
     Eigenvalues --  2940.590895782.137165822.41739
           X            0.99896   0.00256  -0.04544
           Y           -0.00184   0.99987   0.01588
           Z            0.04547  -0.01578   0.99884
 This molecule is an asymmetric top.
 Rotational symmetry number  1.
 Warning -- assumption of classical behavior for rotation
           may cause significant error
 Rotational temperatures (Kelvin)      0.02945     0.01498     0.01488
 Rotational constants (GHZ):           0.61373     0.31212     0.30996
 Zero-point vibrational energy     803360.5 (Joules/Mol)
                                  192.00777 (Kcal/Mol)
 Warning -- explicit consideration of  26 degrees of freedom as
           vibrations may cause significant error
 Vibrational temperatures:     51.52    60.65    68.37   112.27   132.00
          (Kelvin)            148.46   170.29   202.66   220.87   257.55
                              293.81   360.54   415.55   446.54   496.16
                              536.55   581.25   590.85   618.96   646.11
                              668.10   697.90   712.89   820.86   841.12
                              886.82   923.10   992.23  1034.38  1070.62
                             1086.33  1118.01  1206.80  1259.64  1270.20
                             1310.21  1316.65  1328.34  1333.92  1363.46
                             1370.94  1402.77  1410.52  1450.03  1467.31
                             1521.43  1546.60  1610.74  1619.85  1667.19
                             1671.24  1687.41  1727.20  1734.57  1767.40
                             1780.57  1802.26  1832.39  1840.45  1865.49
                             1881.26  1903.54  1908.83  1934.40  1954.77
                             1974.31  1986.53  2026.90  2081.19  2125.29
                             2126.74  2132.15  2171.16  2175.10  2176.45
                             2180.88  2203.09  2205.29  2219.26  2227.93
                             2355.60  2408.65  2544.11  3405.29  4356.12
                             4359.37  4377.16  4397.31  4407.74  4422.65
                             4447.08  4447.73  4457.00  4460.17  4486.20
                             4490.37  4523.95  4544.69  4568.24  4579.35
                             4586.41  4594.98

 Zero-point correction=                           0.305984 (Hartree/Particle)
 Thermal correction to Energy=                    0.322837
 Thermal correction to Enthalpy=                  0.323781
 Thermal correction to Gibbs Free Energy=         0.260583
 Sum of electronic and zero-point Energies=           -766.941012
 Sum of electronic and thermal Energies=              -766.924159
 Sum of electronic and thermal Enthalpies=            -766.923215
 Sum of electronic and thermal Free Energies=         -766.986413

                     E (Thermal)             CV                S
                      KCal/Mol        Cal/Mol-Kelvin    Cal/Mol-Kelvin
 Total                  202.583             64.088            133.012
 Electronic               0.000              0.000              0.000
 Translational            0.889              2.981             42.354
 Rotational               0.889              2.981             32.959
 Vibrational            200.806             58.127             57.699
 Vibration     1          0.594              1.982              5.478
 Vibration     2          0.595              1.980              5.155
 Vibration     3          0.595              1.979              4.918
 Vibration     4          0.599              1.964              3.940
 Vibration     5          0.602              1.955              3.623
 Vibration     6          0.605              1.947              3.393
 Vibration     7          0.609              1.934              3.127
 Vibration     8          0.615              1.912              2.792
 Vibration     9          0.619              1.899              2.628
 Vibration    10          0.629              1.868              2.339
 Vibration    11          0.640              1.834              2.095
 Vibration    12          0.663              1.762              1.726
 Vibration    13          0.685              1.694              1.481
 Vibration    14          0.699              1.654              1.360
 Vibration    15          0.723              1.586              1.190
 Vibration    16          0.744              1.528              1.068
 Vibration    17          0.769              1.462              0.948
 Vibration    18          0.775              1.447              0.924
 Vibration    19          0.791              1.404              0.858
 Vibration    20          0.808              1.363              0.799
 Vibration    21          0.822              1.329              0.754
 Vibration    22          0.841              1.283              0.697
 Vibration    23          0.851              1.260              0.670
 Vibration    24          0.927              1.095              0.503
 Vibration    25          0.942              1.065              0.477
 Vibration    26          0.976              0.997              0.422

                           ! Non-Optimized Parameters !
 Normal termination of Gaussian 16 at Fri Dec 11 19:23:06 2020.

 ----------------------------------------------------------------------
 # B3LYP/6-311++G(d,p) empiricaldispersion=gd3bj scf=xqc pop=npa geom=c
 heck
 ----------------------------------------------------------------------

 ---------------------------------------
 CID_115173335_JID_8120_Energie_neutraal
 ---------------------------------------
 Structure from the checkpoint file:  "JID_8120.chk"
 Charge =  0 Multiplicity = 1

 SCF Done:  E(RB3LYP) =  -767.451755543     A.U. after   16 cycles
 Normal termination of Gaussian 16 at Fri Dec 11 19:32:36 2020.

 ----------------------------------------------------------------------
 # B3LYP/6-311++G(d,p) empiricaldispersion=gd3bj scf=xqc pop=npa geom=c
 heck
 ----------------------------------------------------------------------

 -------------------------------------
 CID_115173335_JID_8120_Energie_kation
 -------------------------------------
 Structure from the checkpoint file:  "JID_8120.chk"
 Charge =  1 Multiplicity = 2

 SCF Done:  E(UB3LYP) =  -767.146212922     A.U. after   27 cycles
 Normal termination of Gaussian 16 at Fri Dec 11 19:55:35 2020.
 Gaussian 16:  ES64L-G16RevA.03 25-Dec-2016

 ----------------------------------------------------------------------
 # B3LYP/6-311++G(d,p) empiricaldispersion=gd3bj scf=xqc pop=npa geom=c
 heck
 ----------------------------------------------------------------------

 ------------------------------------
 CID_115173335_JID_8120_Energie_anion
 ------------------------------------
 Structure from the checkpoint file:  "JID_8120.chk"
 Charge = -1 Multiplicity = 2

                         Standard orientation:
 ---------------------------------------------------------------------
 Center     Atomic      Atomic             Coordinates (Angstroms)
 Number     Number       Type             X           Y           Z
 ---------------------------------------------------------------------
      1          6           0        2.717958   -1.795877   -1.227012
      2          7           0        2.279171   -0.688463   -0.384300
      3          6           0        2.376336    0.649881   -0.961205
      4          6           0        1.312860    0.928295   -2.052438
      5          6           0       -0.077610    0.878932   -1.472547
      6          6           0       -0.719033   -0.355076   -1.291210
      7          6           0       -1.899464   -0.423718   -0.560138
      8          6           0       -2.479100    0.738281   -0.031952
      9          6           0       -3.748806    0.397023    0.717075
     10          6           0       -3.600016   -1.124218    0.971523
     11          6           0       -2.714700   -1.642001   -0.189882
     12          6           0       -1.875183    1.975941   -0.241163
     13          6           0       -0.673261    2.037241   -0.952929
     14          6           0        1.517182   -1.020518    0.703869
     15          8           0        1.221822   -2.177598    0.973044
     16          6           0        1.040558    0.109406    1.643475
     17          6           0        2.116604    0.944420    2.172567
     18          7           0        2.979704    1.609195    2.573988
     19          1           0        1.940747   -2.108795   -1.936722
     20          1           0        2.960267   -2.649917   -0.595322
     21          1           0        3.602920   -1.482535   -1.787289
     22          1           0        2.294117    1.396693   -0.171154
     23          1           0        3.380246    0.754460   -1.387498
     24          1           0        1.523227    1.915913   -2.479318
     25          1           0        1.424756    0.197670   -2.861980
     26          1           0       -0.267608   -1.262887   -1.682848
     27          1           0       -4.627406    0.604066    0.088828
     28          1           0       -3.876029    0.973765    1.639672
     29          1           0       -3.072202   -1.279811    1.919590
     30          1           0       -4.561350   -1.641225    1.039758
     31          1           0       -2.089121   -2.493465    0.097540
     32          1           0       -3.331320   -1.964145   -1.041400
     33          1           0       -2.317588    2.884772    0.159035
     34          1           0       -0.175870    2.995163   -1.086224
     35          1           0        0.306463    0.745257    1.137641
     36          1           0        0.533093   -0.397402    2.467325
 ---------------------------------------------------------------------

 SCF Done:  E(UB3LYP) =  -767.444005040     A.U. after   33 cycles
 SCF Done:  E(UB3LYP) =  -767.444005040     a.u. after    1 cycles

 The electronic state is 2-A.
 Alpha  occ. eigenvalues --  -19.00626 -14.25918 -14.23160 -10.19606 -10.13382
 Alpha  occ. eigenvalues --  -10.13344 -10.11863 -10.10567 -10.08037 -10.07925
 Alpha  occ. eigenvalues --  -10.07917 -10.07852 -10.07664 -10.07637 -10.07461
 Alpha  occ. eigenvalues --  -10.07446 -10.07312 -10.06616  -0.95992  -0.85374
 Alpha  occ. eigenvalues --   -0.82850  -0.77688  -0.72661  -0.70532  -0.67992
 Alpha  occ. eigenvalues --   -0.65560  -0.62215  -0.60988  -0.59882  -0.55152
 Alpha  occ. eigenvalues --   -0.51286  -0.48729  -0.47268  -0.46283  -0.44976
 Alpha  occ. eigenvalues --   -0.41485  -0.41049  -0.39129  -0.38758  -0.37295
 Alpha  occ. eigenvalues --   -0.36846  -0.36012  -0.35191  -0.32891  -0.32845
 Alpha  occ. eigenvalues --   -0.31821  -0.31315  -0.30925  -0.30387  -0.29716
 Alpha  occ. eigenvalues --   -0.29236  -0.28267  -0.27655  -0.26832  -0.25885
 Alpha  occ. eigenvalues --   -0.25690  -0.25587  -0.24730  -0.23937  -0.23390
 Alpha  occ. eigenvalues --   -0.22981  -0.17942  -0.16235  -0.15527  -0.13862
 Alpha  occ. eigenvalues --    0.04049
 Alpha virt. eigenvalues --    0.06003   0.06872   0.07208   0.07985   0.08149
 Alpha virt. eigenvalues --    0.08446   0.08564   0.09034   0.09277   0.09641
 Alpha virt. eigenvalues --    0.10302   0.10469   0.11041   0.11501   0.11698

  Beta  occ. eigenvalues --  -19.00616 -14.25914 -14.23155 -10.19602 -10.13381
  Beta  occ. eigenvalues --  -10.13342 -10.11837 -10.10533 -10.08030 -10.07916
  Beta  occ. eigenvalues --  -10.07895 -10.07801 -10.07673 -10.07630 -10.07455
  Beta  occ. eigenvalues --  -10.07414 -10.07234 -10.06517  -0.95978  -0.85358
  Beta  occ. eigenvalues --   -0.82843  -0.77591  -0.72574  -0.70520  -0.67913
  Beta  occ. eigenvalues --   -0.65443  -0.62150  -0.60936  -0.59815  -0.55081
  Beta  occ. eigenvalues --   -0.51161  -0.48657  -0.47219  -0.46233  -0.44945
  Beta  occ. eigenvalues --   -0.41453  -0.40997  -0.39073  -0.38706  -0.37246
  Beta  occ. eigenvalues --   -0.36807  -0.35968  -0.35110  -0.32846  -0.32788
  Beta  occ. eigenvalues --   -0.31774  -0.31271  -0.30852  -0.30342  -0.29660
  Beta  occ. eigenvalues --   -0.29208  -0.28234  -0.27533  -0.26785  -0.25838
  Beta  occ. eigenvalues --   -0.25669  -0.25559  -0.24715  -0.23883  -0.23273
  Beta  occ. eigenvalues --   -0.22897  -0.17925  -0.16181  -0.15054  -0.13616
  Beta virt. eigenvalues --    0.06270   0.07002   0.07228   0.07635   0.08110
  Beta virt. eigenvalues --    0.08553   0.08890   0.08919   0.09194   0.09656
  Beta virt. eigenvalues --    0.09947   0.10590   0.10638   0.11347   0.11561

 Mulliken charges and spin densities:
               1          2
     1  C    0.594905  -0.834631
     2  N   -0.060057   0.110334
     3  C    0.502605  -0.809041
     4  C    1.492060  -2.032381
     5  C   -1.036406   1.645599
     6  C   -1.822087   1.636724
     7  C    1.156278  -0.767576
     8  C    1.791052  -1.624986
     9  C    0.397448  -1.048280
    10  C   -0.128357  -0.160137
    11  C   -0.739677   0.172782
    12  C   -0.990111   0.764622
    13  C   -0.230151  -0.135628
    14  C   -0.402305   0.111154
    15  O   -0.284102   0.010424
    16  C    0.111352   0.078764
    17  C    0.032175  -0.296951
    18  N   -0.304871   0.007600
    19  H   -0.017243   0.189229
    20  H    0.099149   0.072824
    21  H   -0.431124   0.589321
    22  H    0.157578  -0.053398
    23  H   -0.290423   0.516025
    24  H   -0.557375   0.754647
    25  H   -0.371472   0.556722
    26  H   -0.022144   0.209497
    27  H   -0.129872   0.293710
    28  H    0.136385   0.010532
    29  H    0.129409  -0.017242
    30  H   -0.132938   0.295804
    31  H    0.170067   0.000547
    32  H   -0.141680   0.310070
    33  H   -0.130625   0.278842
    34  H   -0.120570   0.279192
    35  H    0.362664  -0.154624
    36  H    0.210463   0.039911
 Sum of Mulliken charges =  -1.00000   1.00000

 Dipole moment (field-independent basis, Debye):
    X=             -2.8779    Y=             -0.5755    Z=              4.4648  Tot=              5.3430
 Quadrupole moment (field-independent basis, Debye-Ang):
   XX=           -187.2074   YY=           -148.7078   ZZ=           -156.4287
   XY=             -7.2363   XZ=             -0.0961   YZ=              0.3700

 Summary of Natural Population Analysis:

                                       Natural Population
                Natural  -----------------------------------------------
    Atom  No    Charge         Core      Valence    Rydberg      Total
 -----------------------------------------------------------------------
      C    1   -0.17751      0.99963     2.16957    0.00831     3.17751
      N    2   -0.25276      0.99963     2.74220    0.01092     3.75276
      C    3   -0.07939      0.99959     2.06752    0.01229     3.07939
      C    4   -0.20365      0.99959     2.19310    0.01097     3.20365
      C    5   -0.01491      0.99950     2.00411    0.01130     3.01491
      C    6   -0.08624      0.99945     2.07661    0.01018     3.08624
      C    7   -0.01278      0.99946     2.00308    0.01025     3.01278
      C    8   -0.01390      0.99946     2.00504    0.00941     3.01390
      C    9   -0.19706      0.99961     2.18942    0.00803     3.19706
      C   10   -0.18356      0.99965     2.17609    0.00782     3.18356
      C   11   -0.19832      0.99961     2.19038    0.00833     3.19832
      C   12   -0.08869      0.99951     2.08008    0.00911     3.08869
      C   13   -0.11037      0.99951     2.10113    0.00973     3.11037
      C   14    0.35319      0.99964     1.62292    0.02424     2.64681
      O   15   -0.31833      0.99988     3.31336    0.00510     4.31833
      C   16   -0.29112      0.99949     2.28494    0.00669     3.29112
      C   17    0.15647      0.99966     1.82694    0.01694     2.84353
      N   18   -0.18158      0.99979     2.67129    0.01051     3.68158
      H   19    0.09550      0.00000     0.40333    0.00118     0.40450
      H   20    0.10871      0.00000     0.39039    0.00089     0.39129
      H   21    0.10025      0.00000     0.39839    0.00136     0.39975
      H   22    0.10205      0.00000     0.39593    0.00202     0.39795
      H   23    0.10376      0.00000     0.39389    0.00235     0.39624
      H   24    0.10715      0.00000     0.39097    0.00188     0.39285
      H   25    0.10674      0.00000     0.39063    0.00263     0.39326
      H   26    0.10224      0.00000     0.39604    0.00171     0.39776
      H   27    0.10273      0.00000     0.39549    0.00179     0.39727
      H   28    0.09876      0.00000     0.40035    0.00090     0.40124
      H   29    0.09328      0.00000     0.40554    0.00118     0.40672
      H   30    0.09835      0.00000     0.40062    0.00103     0.40165
      H   31    0.10625      0.00000     0.39278    0.00097     0.39375
      H   32    0.10195      0.00000     0.39675    0.00131     0.39805
      H   33    0.09767      0.00000     0.40115    0.00119     0.40233
      H   34    0.10003      0.00000     0.39900    0.00097     0.39997
      H   35    0.14335      0.00000     0.35487    0.00177     0.35665
      H   36    0.13175      0.00000     0.36707    0.00118     0.36825
 =======================================================================
   * Total *    0.00000     17.99265    46.79095    0.21640    65.00000

 Normal termination of Gaussian 16 at Fri Dec 11 20:24:17 2020.
