 Gaussian 16, Revision A.03,

 -----------------------------------------------------------
 # opt freq B3LYP/6-31G(d) empiricaldispersion=gd3bj scf=xqc
 -----------------------------------------------------------

 -------------------------------
 CID_149566338_JID_1158_neutraal
 -------------------------------
 Symbolic Z-matrix:
 Charge =  0 Multiplicity = 1

 SCF Done:  E(RB3LYP) =  -431.261333625     A.U. after   13 cycles
 SCF Done:  E(RB3LYP) =  -431.262641586     A.U. after   11 cycles
 SCF Done:  E(RB3LYP) =  -431.262735304     A.U. after   10 cycles
 SCF Done:  E(RB3LYP) =  -431.262762800     A.U. after    9 cycles
 SCF Done:  E(RB3LYP) =  -431.262778769     A.U. after    9 cycles
 SCF Done:  E(RB3LYP) =  -431.262795375     A.U. after   10 cycles
 SCF Done:  E(RB3LYP) =  -431.262803627     A.U. after    9 cycles
 SCF Done:  E(RB3LYP) =  -431.262805665     A.U. after    8 cycles
 SCF Done:  E(RB3LYP) =  -431.262806161     A.U. after    7 cycles
 SCF Done:  E(RB3LYP) =  -431.262807970     A.U. after    8 cycles
 SCF Done:  E(RB3LYP) =  -431.264710423     A.U. after   13 cycles
 SCF Done:  E(RB3LYP) =  -431.264906815     A.U. after   10 cycles
 SCF Done:  E(RB3LYP) =  -431.264941262     A.U. after    9 cycles
 SCF Done:  E(RB3LYP) =  -431.264948779     A.U. after    9 cycles
 SCF Done:  E(RB3LYP) =  -431.264949360     A.U. after    7 cycles
 SCF Done:  E(RB3LYP) =  -431.264949447     A.U. after    6 cycles
 Optimization completed.
    -- Stationary point found.
 Normal termination of Gaussian 16 at Tue Dec  8 19:23:18 2020.

 --------------------------------------------------------------------
 #N Geom=AllCheck Guess=TCheck SCRF=Check GenChk RB3LYP/6-31G(d) Freq
 --------------------------------------------------------------------

 Structure from the checkpoint file:  "JID_1158.chk"
 -------------------------------
 CID_149566338_JID_1158_neutraal
 -------------------------------
 Charge =  0 Multiplicity = 1

 SCF Done:  E(RB3LYP) =  -431.264949447     A.U. after    1 cycles

  Exact polarizability: 131.555   4.947 102.137   4.415   2.537 104.608
 Approx polarizability: 167.894  10.964 143.234  12.001   7.492 159.488

                      1                      2                      3
                      A                      A                      A
 Frequencies --     56.8682                89.4543               146.7746
 Red. masses --      2.2499                 2.8163                 1.7343
 Frc consts  --      0.0043                 0.0133                 0.0220
 IR Inten    --      0.0390                 0.0253                 0.0519

                      4                      5                      6
                      A                      A                      A
 Frequencies --    164.1340               191.0357               213.5018
 Red. masses --      1.9333                 1.7689                 2.2773
 Frc consts  --      0.0307                 0.0380                 0.0612
 IR Inten    --      0.0512                 0.1558                 0.0584

                      7                      8                      9
                      A                      A                      A
 Frequencies --    222.1750               264.6710               288.8024
 Red. masses --      1.1580                 1.1462                 2.2253
 Frc consts  --      0.0337                 0.0473                 0.1094
 IR Inten    --      0.0192                 0.0040                 0.1214

                     10                     11                     12
                      A                      A                      A
 Frequencies --    310.1183               326.3588               366.3909
 Red. masses --      1.7063                 2.6668                 2.8357
 Frc consts  --      0.0967                 0.1673                 0.2243
 IR Inten    --      0.0071                 0.1305                 0.0999

                     13                     14                     15
                      A                      A                      A
 Frequencies --    411.6494               422.1194               431.3473
 Red. masses --      2.4315                 2.0977                 2.0691
 Frc consts  --      0.2428                 0.2202                 0.2268
 IR Inten    --      0.7577                 0.5781                 0.1163

                     16                     17                     18
                      A                      A                      A
 Frequencies --    462.0965               489.5580               541.9711
 Red. masses --      2.7525                 2.2760                 2.0175
 Frc consts  --      0.3463                 0.3214                 0.3492
 IR Inten    --      0.3163                 1.3661                 0.3231

                     19                     20                     21
                      A                      A                      A
 Frequencies --    687.5285               718.3215               750.0389
 Red. masses --      3.1744                 1.4802                 2.2099
 Frc consts  --      0.8841                 0.4500                 0.7325
 IR Inten    --      4.3088                23.7684                 2.6231

                     22                     23                     24
                      A                      A                      A
 Frequencies --    808.4825               860.6723               888.8553
 Red. masses --      2.2869                 1.5548                 2.4093
 Frc consts  --      0.8807                 0.6786                 1.1215
 IR Inten    --      1.6536                 3.4839                 1.2928

                     25                     26                     27
                      A                      A                      A
 Frequencies --    896.7631               919.2390               941.0222
 Red. masses --      1.9265                 2.2888                 1.9535
 Frc consts  --      0.9128                 1.1395                 1.0192
 IR Inten    --      2.2928                 0.1495                 3.1083

                     28                     29                     30
                      A                      A                      A
 Frequencies --    958.9650               964.5813               989.7939
 Red. masses --      1.5130                 1.7822                 1.7158
 Frc consts  --      0.8198                 0.9770                 0.9904
 IR Inten    --      0.1983                 0.8473                 5.3677

                     31                     32                     33
                      A                      A                      A
 Frequencies --   1002.5711              1032.2912              1037.7253
 Red. masses --      1.1871                 1.8247                 1.3900
 Frc consts  --      0.7030                 1.1456                 0.8819
 IR Inten    --      0.1976                 2.1535                 0.6112

                     34                     35                     36
                      A                      A                      A
 Frequencies --   1068.1983              1074.6507              1083.2839
 Red. masses --      1.7046                 1.4998                 1.8116
 Frc consts  --      1.1460                 1.0205                 1.2525
 IR Inten    --      0.1458                 0.5365                 0.7781

                     37                     38                     39
                      A                      A                      A
 Frequencies --   1112.1443              1119.1531              1142.9558
 Red. masses --      2.3627                 1.8111                 1.2806
 Frc consts  --      1.7218                 1.3365                 0.9857
 IR Inten    --      0.7870                 0.6530                 0.2300

                     40                     41                     42
                      A                      A                      A
 Frequencies --   1197.0375              1224.7866              1243.1167
 Red. masses --      1.9752                 1.9716                 1.6931
 Frc consts  --      1.6676                 1.7426                 1.5416
 IR Inten    --      2.3592                 3.3464                 3.1715

                     43                     44                     45
                      A                      A                      A
 Frequencies --   1286.2542              1310.3619              1328.5849
 Red. masses --      1.7810                 1.2742                 1.3425
 Frc consts  --      1.7360                 1.2891                 1.3962
 IR Inten    --      2.2908                 0.0547                 0.4489

                     46                     47                     48
                      A                      A                      A
 Frequencies --   1339.1450              1344.1090              1359.0461
 Red. masses --      1.3428                 1.4747                 1.2968
 Frc consts  --      1.4188                 1.5698                 1.4112
 IR Inten    --      0.2927                 2.8401                 1.0256

                     49                     50                     51
                      A                      A                      A
 Frequencies --   1391.8966              1396.3559              1403.4897
 Red. masses --      1.3553                 1.4116                 1.4359
 Frc consts  --      1.5471                 1.6216                 1.6665
 IR Inten    --      0.5499                 1.9336                 1.1188

                     52                     53                     54
                      A                      A                      A
 Frequencies --   1420.5126              1428.6118              1430.2656
 Red. masses --      1.4802                 1.2277                 1.2653
 Frc consts  --      1.7598                 1.4763                 1.5251
 IR Inten    --      0.1703                 6.2818                 5.4121

                     55                     56                     57
                      A                      A                      A
 Frequencies --   1449.7620              1457.0125              1507.5354
 Red. masses --      1.2340                 1.3963                 1.0771
 Frc consts  --      1.5282                 1.7465                 1.4422
 IR Inten    --      4.1067                 8.4616                 1.4782

                     58                     59                     60
                      A                      A                      A
 Frequencies --   1507.9844              1512.9719              1518.3225
 Red. masses --      1.0807                 1.0751                 1.0508
 Frc consts  --      1.4480                 1.4500                 1.4273
 IR Inten    --      0.5353                 3.4521                 0.5743

                     61                     62                     63
                      A                      A                      A
 Frequencies --   1519.7895              1523.3963              1527.2002
 Red. masses --      1.0521                 1.0724                 1.0653
 Frc consts  --      1.4317                 1.4663                 1.4638
 IR Inten    --      4.0456                 0.5346                 4.7645

                     64                     65                     66
                      A                      A                      A
 Frequencies --   1535.0150              1536.6479              1545.9094
 Red. masses --      1.0859                 1.0658                 1.0608
 Frc consts  --      1.5075                 1.4828                 1.4936
 IR Inten    --      5.3780                 4.2845                 4.3939

                     67                     68                     69
                      A                      A                      A
 Frequencies --   1745.7455              3016.2138              3024.8193
 Red. masses --      6.1817                 1.0627                 1.0807
 Frc consts  --     11.0999                 5.6962                 5.8257
 IR Inten    --      2.3557                26.8920                 9.5359

                     70                     71                     72
                      A                      A                      A
 Frequencies --   3033.8623              3034.3611              3036.1043
 Red. masses --      1.0386                 1.0429                 1.0619
 Frc consts  --      5.6323                 5.6576                 5.7673
 IR Inten    --     23.5758                19.6941                15.5419

                     73                     74                     75
                      A                      A                      A
 Frequencies --   3040.5664              3047.6656              3049.3090
 Red. masses --      1.0550                 1.0466                 1.0625
 Frc consts  --      5.7465                 5.7277                 5.8209
 IR Inten    --     50.2564                44.3997                15.3126

                     76                     77                     78
                      A                      A                      A
 Frequencies --   3060.9945              3073.2227              3074.4176
 Red. masses --      1.0936                 1.0997                 1.0997
 Frc consts  --      6.0374                 6.1195                 6.1242
 IR Inten    --     47.3754                41.8584                34.2222

                     79                     80                     81
                      A                      A                      A
 Frequencies --   3078.9270              3090.2603              3099.7609
 Red. masses --      1.1023                 1.1037                 1.1025
 Frc consts  --      6.1567                 6.2103                 6.2413
 IR Inten    --     18.7960                61.5807                 2.9587

                     82                     83                     84
                      A                      A                      A
 Frequencies --   3104.0929              3106.5830              3125.8764
 Red. masses --      1.1018                 1.1016                 1.0872
 Frc consts  --      6.2552                 6.2638                 6.2588
 IR Inten    --     60.3893                68.0938                12.5852

                     85                     86                     87
                      A                      A                      A
 Frequencies --   3126.9466              3151.3817              3165.2094
 Red. masses --      1.0948                 1.0927                 1.0941
 Frc consts  --      6.3071                 6.3935                 6.4582
 IR Inten    --     32.8939                27.7652                57.2191

 - Thermochemistry -
 -------------------
 Temperature   298.150 Kelvin.  Pressure   1.00000 Atm.
 Atom     1 has atomic number  6 and mass  12.00000

 Molecular mass:   152.15650 amu.
 Principal axes and moments of inertia in atomic units:
                           1         2         3
     Eigenvalues --  1071.567442575.702742803.08885
           X            0.99992  -0.00180   0.01231
           Y            0.00142   0.99952   0.03093
           Z           -0.01236  -0.03091   0.99945
 This molecule is an asymmetric top.
 Rotational symmetry number  1.
 Warning -- assumption of classical behavior for rotation
           may cause significant error
 Rotational temperatures (Kelvin)      0.08083     0.03363     0.03090
 Rotational constants (GHZ):           1.68421     0.70068     0.64384
 Zero-point vibrational energy     759555.2 (Joules/Mol)
                                  181.53804 (Kcal/Mol)
 Warning -- explicit consideration of  18 degrees of freedom as
           vibrations may cause significant error
 Vibrational temperatures:     81.82   128.70   211.18   236.15   274.86
          (Kelvin)            307.18   319.66   380.80   415.52   446.19
                              469.56   527.15   592.27   607.34   620.61
                              664.85   704.36   779.78   989.20  1033.50
                             1079.14  1163.23  1238.32  1278.86  1290.24
                             1322.58  1353.92  1379.74  1387.82  1424.09
                             1442.48  1485.24  1493.06  1536.90  1546.18
                             1558.60  1600.13  1610.21  1644.46  1722.27
                             1762.19  1788.57  1850.63  1885.32  1911.54
                             1926.73  1933.87  1955.36  2002.63  2009.04
                             2019.31  2043.80  2055.45  2057.83  2085.88
                             2096.32  2169.01  2169.65  2176.83  2184.53
                             2186.64  2191.83  2197.30  2208.54  2210.89
                             2224.22  2511.74  4339.66  4352.04  4365.05
                             4365.77  4368.28  4374.70  4384.91  4387.28
                             4404.09  4421.68  4423.40  4429.89  4446.20
                             4459.86  4466.10  4469.68  4497.44  4498.98
                             4534.14  4554.03

 Zero-point correction=                           0.289299 (Hartree/Particle)
 Thermal correction to Energy=                    0.301450
 Thermal correction to Enthalpy=                  0.302394
 Thermal correction to Gibbs Free Energy=         0.252155
 Sum of electronic and zero-point Energies=           -430.975650
 Sum of electronic and thermal Energies=              -430.963500
 Sum of electronic and thermal Enthalpies=            -430.962555
 Sum of electronic and thermal Free Energies=         -431.012795

                     E (Thermal)             CV                S
                      KCal/Mol        Cal/Mol-Kelvin    Cal/Mol-Kelvin
 Total                  189.163             47.836            105.737
 Electronic               0.000              0.000              0.000
 Translational            0.889              2.981             40.969
 Rotational               0.889              2.981             30.426
 Vibrational            187.385             41.874             34.342
 Vibration     1          0.596              1.975              4.563
 Vibration     2          0.602              1.957              3.672
 Vibration     3          0.617              1.906              2.714
 Vibration     4          0.623              1.886              2.502
 Vibration     5          0.634              1.852              2.218
 Vibration     6          0.644              1.820              2.014
 Vibration     7          0.648              1.807              1.941
 Vibration     8          0.671              1.738              1.631
 Vibration     9          0.685              1.695              1.481
 Vibration    10          0.699              1.654              1.362
 Vibration    11          0.710              1.623              1.278
 Vibration    12          0.739              1.541              1.095
 Vibration    13          0.776              1.445              0.921
 Vibration    14          0.784              1.422              0.885
 Vibration    15          0.792              1.402              0.854
 Vibration    16          0.820              1.334              0.760
 Vibration    17          0.845              1.273              0.685
 Vibration    18          0.897              1.157              0.561

 Optimization completed.
    -- Stationary point found.
 Normal termination of Gaussian 16 at Tue Dec  8 19:31:27 2020.

 ----------------------------------------------------------------------
 # B3LYP/6-311++G(d,p) empiricaldispersion=gd3bj scf=xqc pop=npa geom=c
 heck
 ----------------------------------------------------------------------

 ---------------------------------------
 CID_149566338_JID_1158_Energie_neutraal
 ---------------------------------------
 Structure from the checkpoint file:  "JID_1158.chk"
 Charge =  0 Multiplicity = 1

 SCF Done:  E(RB3LYP) =  -431.382981173     A.U. after   13 cycles
 Normal termination of Gaussian 16 at Tue Dec  8 19:35:06 2020.

 ----------------------------------------------------------------------
 # B3LYP/6-311++G(d,p) empiricaldispersion=gd3bj scf=xqc pop=npa geom=c
 heck
 ----------------------------------------------------------------------

 -------------------------------------
 CID_149566338_JID_1158_Energie_kation
 -------------------------------------
 Structure from the checkpoint file:  "JID_1158.chk"
 Charge =  1 Multiplicity = 2

 SCF Done:  E(UB3LYP) =  -431.065222807     A.U. after   19 cycles
 Normal termination of Gaussian 16 at Tue Dec  8 19:42:31 2020.
 Gaussian 16:  ES64L-G16RevA.03 25-Dec-2016

 ----------------------------------------------------------------------
 # B3LYP/6-311++G(d,p) empiricaldispersion=gd3bj scf=xqc pop=npa geom=c
 heck
 ----------------------------------------------------------------------

 ------------------------------------
 CID_149566338_JID_1158_Energie_anion
 ------------------------------------
 Structure from the checkpoint file:  "JID_1158.chk"
 Charge = -1 Multiplicity = 2

                         Standard orientation:
 ---------------------------------------------------------------------
 Center     Atomic      Atomic             Coordinates (Angstroms)
 Number     Number       Type             X           Y           Z
 ---------------------------------------------------------------------
      1          6           0       -3.056994   -0.747081   -1.118160
      2          6           0       -3.085872   -0.445381    0.354212
      3          6           0       -2.109971    0.023680    1.141393
      4          6           0       -0.682205    0.392555    0.782671
      5          6           0       -0.583228    1.555253   -0.227075
      6          6           0        0.877474    1.925687   -0.509214
      7          6           0        1.677755    0.707238   -0.986478
      8          6           0        1.623646   -0.488942   -0.009039
      9          6           0        0.145410   -0.819198    0.301757
     10          6           0        2.397682   -0.171453    1.283326
     11          6           0        2.274852   -1.711605   -0.673872
     12          1           0       -3.310499   -1.800110   -1.301182
     13          1           0       -2.088081   -0.552585   -1.579902
     14          1           0       -3.808772   -0.148454   -1.650348
     15          1           0       -4.047151   -0.643671    0.830471
     16          1           0       -2.366253    0.163293    2.191498
     17          1           0       -0.216642    0.750940    1.710521
     18          1           0       -1.135125    2.421961    0.156070
     19          1           0       -1.070180    1.269878   -1.167882
     20          1           0        1.332261    2.341983    0.399582
     21          1           0        0.924342    2.718677   -1.266094
     22          1           0        2.724929    0.984951   -1.166937
     23          1           0        1.271563    0.380592   -1.955329
     24          1           0       -0.315705   -1.228848   -0.605406
     25          1           0        0.096472   -1.616623    1.054697
     26          1           0        1.994426    0.694940    1.815666
     27          1           0        2.366256   -1.025525    1.970498
     28          1           0        3.450314    0.039853    1.059565
     29          1           0        2.242313   -2.584917   -0.010939
     30          1           0        1.758138   -1.976606   -1.604240
     31          1           0        3.326105   -1.514243   -0.917445
 ---------------------------------------------------------------------

 SCF Done:  E(UB3LYP) =  -431.366083597     A.U. after   30 cycles

 The electronic state is 2-A.
 Alpha  occ. eigenvalues --  -10.07659 -10.06877 -10.06522 -10.06122 -10.05992
 Alpha  occ. eigenvalues --  -10.05912 -10.05816 -10.05756 -10.05661 -10.05404
 Alpha  occ. eigenvalues --  -10.05244  -0.74345  -0.69665  -0.66582  -0.63757
 Alpha  occ. eigenvalues --   -0.58298  -0.58097  -0.57142  -0.50958  -0.48305
 Alpha  occ. eigenvalues --   -0.42770  -0.41970  -0.37537  -0.36471  -0.34807
 Alpha  occ. eigenvalues --   -0.33588  -0.33134  -0.31400  -0.31084  -0.30530
 Alpha  occ. eigenvalues --   -0.28818  -0.28328  -0.27402  -0.26823  -0.25222
 Alpha  occ. eigenvalues --   -0.25050  -0.24229  -0.23270  -0.22533  -0.20340
 Alpha  occ. eigenvalues --   -0.19797  -0.18920  -0.14113   0.04603
 Alpha virt. eigenvalues --    0.06708   0.07328   0.07573   0.09031   0.09200
 Alpha virt. eigenvalues --    0.09532   0.09938   0.10076   0.11157   0.11316
 Alpha virt. eigenvalues --    0.11621   0.12175   0.12352   0.13227   0.13556

  Beta  occ. eigenvalues --  -10.07658 -10.06869 -10.06509 -10.06087 -10.05984
  Beta  occ. eigenvalues --  -10.05895 -10.05803 -10.05737 -10.05646 -10.05381
  Beta  occ. eigenvalues --  -10.05212  -0.74325  -0.69635  -0.66550  -0.63722
  Beta  occ. eigenvalues --   -0.58244  -0.58045  -0.57099  -0.50908  -0.48254
  Beta  occ. eigenvalues --   -0.42719  -0.41930  -0.37488  -0.36428  -0.34777
  Beta  occ. eigenvalues --   -0.33554  -0.33102  -0.31376  -0.31049  -0.30497
  Beta  occ. eigenvalues --   -0.28778  -0.28293  -0.27370  -0.26796  -0.25193
  Beta  occ. eigenvalues --   -0.25017  -0.24193  -0.23238  -0.22500  -0.20312
  Beta  occ. eigenvalues --   -0.19763  -0.18891  -0.14093
  Beta virt. eigenvalues --    0.06690   0.07587   0.08017   0.08134   0.09639
  Beta virt. eigenvalues --    0.09680   0.10003   0.10418   0.10492   0.11369
  Beta virt. eigenvalues --    0.11661   0.12101   0.12550   0.12790   0.13603

 Mulliken charges and spin densities:
               1          2
     1  C    1.287413  -2.031493
     2  C    1.383234  -1.581321
     3  C    0.032276  -0.174648
     4  C   -0.701430   1.121700
     5  C   -1.441597   1.084286
     6  C    0.330576  -0.703881
     7  C    1.096182  -1.608830
     8  C   -1.181720   2.044139
     9  C   -0.132427  -0.658785
    10  C    1.119395  -1.789521
    11  C   -0.335150  -0.138653
    12  H   -0.271377   0.423942
    13  H   -0.176184   0.300506
    14  H   -0.306140   0.456559
    15  H   -0.359710   0.523444
    16  H   -0.516330   0.698576
    17  H    0.296931  -0.137183
    18  H   -0.234311   0.415793
    19  H    0.201398  -0.092491
    20  H    0.137022  -0.012693
    21  H   -0.441274   0.627396
    22  H   -0.085344   0.255137
    23  H    0.020822   0.108068
    24  H    0.299657  -0.177585
    25  H   -0.094371   0.277674
    26  H   -0.265306   0.396560
    27  H    0.020326   0.123403
    28  H   -0.320365   0.478534
    29  H   -0.092464   0.224486
    30  H   -0.220788   0.357517
    31  H   -0.048945   0.189362
 Sum of Mulliken charges =  -1.00000   1.00000

 Dipole moment (field-independent basis, Debye):
    X=              1.5011    Y=              0.3128    Z=              0.2461  Tot=              1.5529
 Quadrupole moment (field-independent basis, Debye-Ang):
   XX=           -143.2521   YY=           -112.1146   ZZ=           -112.1198
   XY=             -3.0347   XZ=             -0.8712   YZ=              0.1209

 Summary of Natural Population Analysis:

                                       Natural Population
                Natural  -----------------------------------------------
    Atom  No    Charge         Core      Valence    Rydberg      Total
 -----------------------------------------------------------------------
      C    1   -0.30621      0.99965     2.30000    0.00656     3.30621
      C    2   -0.08720      0.99953     2.07808    0.00959     3.08720
      C    3   -0.08988      0.99951     2.07756    0.01280     3.08988
      C    4   -0.12991      0.99957     2.11899    0.01135     3.12991
      C    5   -0.18214      0.99961     2.17451    0.00802     3.18214
      C    6   -0.18905      0.99963     2.18108    0.00835     3.18905
      C    7   -0.18708      0.99959     2.17725    0.01025     3.18708
      C    8   -0.04757      0.99957     2.03545    0.01255     3.04757
      C    9   -0.18185      0.99957     2.17244    0.00984     3.18185
      C   10   -0.28679      0.99962     2.27979    0.00738     3.28679
      C   11   -0.27936      0.99962     2.27353    0.00621     3.27936
      H   12    0.10368      0.00000     0.39499    0.00133     0.39632
      H   13    0.10023      0.00000     0.39833    0.00144     0.39977
      H   14    0.10334      0.00000     0.39539    0.00126     0.39666
      H   15    0.09201      0.00000     0.40673    0.00126     0.40799
      H   16    0.09566      0.00000     0.40312    0.00122     0.40434
      H   17    0.09709      0.00000     0.40074    0.00216     0.40291
      H   18    0.09986      0.00000     0.39906    0.00109     0.40014
      H   19    0.09382      0.00000     0.40456    0.00161     0.40618
      H   20    0.09312      0.00000     0.40543    0.00145     0.40688
      H   21    0.09836      0.00000     0.40064    0.00099     0.40164
      H   22    0.09968      0.00000     0.39911    0.00120     0.40032
      H   23    0.09585      0.00000     0.40268    0.00146     0.40415
      H   24    0.09781      0.00000     0.40039    0.00180     0.40219
      H   25    0.10105      0.00000     0.39774    0.00122     0.39895
      H   26    0.09963      0.00000     0.39896    0.00141     0.40037
      H   27    0.09932      0.00000     0.39967    0.00102     0.40068
      H   28    0.09979      0.00000     0.39912    0.00109     0.40021
      H   29    0.09849      0.00000     0.40050    0.00101     0.40151
      H   30    0.09935      0.00000     0.39959    0.00107     0.40065
      H   31    0.09888      0.00000     0.40008    0.00104     0.40112
 =======================================================================
   * Total *    0.00000     10.99547    31.87551    0.12903    43.00000

 Normal termination of Gaussian 16 at Tue Dec  8 19:54:06 2020.
