 Gaussian 16, Revision A.03,

 -----------------------------------------------------------
 # opt freq B3LYP/6-31G(d) empiricaldispersion=gd3bj scf=xqc
 -----------------------------------------------------------

 -------------------------------
 CID_140830374_JID_7248_neutraal
 -------------------------------
 Symbolic Z-matrix:
 Charge =  0 Multiplicity = 1

 SCF Done:  E(RB3LYP) =  -1083.03653570     A.U. after   17 cycles
 SCF Done:  E(RB3LYP) =  -1083.06506319     A.U. after   14 cycles
 SCF Done:  E(RB3LYP) =  -1083.05428916     A.U. after   16 cycles
 SCF Done:  E(RB3LYP) =  -1083.06598217     A.U. after   14 cycles
 SCF Done:  E(RB3LYP) =  -1083.06751377     A.U. after   14 cycles
 SCF Done:  E(RB3LYP) =  -1083.06845306     A.U. after   13 cycles
 SCF Done:  E(RB3LYP) =  -1083.06874968     A.U. after   12 cycles
 SCF Done:  E(RB3LYP) =  -1083.06880251     A.U. after   12 cycles
 SCF Done:  E(RB3LYP) =  -1083.06884035     A.U. after   11 cycles
 SCF Done:  E(RB3LYP) =  -1083.06886167     A.U. after   11 cycles
 SCF Done:  E(RB3LYP) =  -1083.06907756     A.U. after   13 cycles
 SCF Done:  E(RB3LYP) =  -1083.06920176     A.U. after   12 cycles
 SCF Done:  E(RB3LYP) =  -1083.06917482     A.U. after   11 cycles
 SCF Done:  E(RB3LYP) =  -1083.06920678     A.U. after   11 cycles
 SCF Done:  E(RB3LYP) =  -1083.06920719     A.U. after    8 cycles
 SCF Done:  E(RB3LYP) =  -1083.06920727     A.U. after    8 cycles
 Optimization completed.
    -- Stationary point found.
 Normal termination of Gaussian 16 at Mon Dec 14 16:45:35 2020.

 --------------------------------------------------------------------
 #N Geom=AllCheck Guess=TCheck SCRF=Check GenChk RB3LYP/6-31G(d) Freq
 --------------------------------------------------------------------

 Structure from the checkpoint file:  "JID_7248.chk"
 -------------------------------
 CID_140830374_JID_7248_neutraal
 -------------------------------
 Charge =  0 Multiplicity = 1

 SCF Done:  E(RB3LYP) =  -1083.06920727     A.U. after    1 cycles

  Exact polarizability: 238.696  -6.847 214.277   3.336  -0.263  81.159
 Approx polarizability: 393.133 -11.257 417.187  14.365   9.616 133.681

                      1                      2                      3
                      A                      A                      A
 Frequencies --     56.1522                67.0001                84.4863
 Red. masses --      9.6599                 7.0056                 2.5669
 Frc consts  --      0.0179                 0.0185                 0.0108
 IR Inten    --      2.9467                 1.2733                 0.4640

                      4                      5                      6
                      A                      A                      A
 Frequencies --    105.4964               109.4426               129.0152
 Red. masses --      5.6312                 1.3732                 8.5334
 Frc consts  --      0.0369                 0.0097                 0.0837
 IR Inten    --      1.1024                 0.3809                 5.0619

                      7                      8                      9
                      A                      A                      A
 Frequencies --    138.1240               162.5180               209.9052
 Red. masses --      8.4376                 4.5569                 5.0711
 Frc consts  --      0.0948                 0.0709                 0.1316
 IR Inten    --      2.6746                 1.8961                 1.4060

                     10                     11                     12
                      A                      A                      A
 Frequencies --    215.0559               231.2502               271.3113
 Red. masses --      8.2580                 4.8421                 2.3337
 Frc consts  --      0.2250                 0.1526                 0.1012
 IR Inten    --      1.9946                 2.0082                 0.4557

                     13                     14                     15
                      A                      A                      A
 Frequencies --    273.8443               328.9831               353.3186
 Red. masses --      1.6541                 8.1923                 4.4375
 Frc consts  --      0.0731                 0.5224                 0.3264
 IR Inten    --      1.6550                 6.8637                 2.0368

                     16                     17                     18
                      A                      A                      A
 Frequencies --    376.8972               387.2245               415.2362
 Red. masses --      4.5858                 7.9897                 6.5866
 Frc consts  --      0.3838                 0.7058                 0.6691
 IR Inten    --      2.0225                 0.3481                 1.5619

                     19                     20                     21
                      A                      A                      A
 Frequencies --    430.4415               475.6869               490.7269
 Red. masses --      7.7234                 3.9207                 4.1923
 Frc consts  --      0.8431                 0.5227                 0.5948
 IR Inten    --      3.1459                 0.5149                 3.2611

                     22                     23                     24
                      A                      A                      A
 Frequencies --    506.1052               541.9852               555.7272
 Red. masses --      6.6165                 5.9139                 5.0100
 Frc consts  --      0.9985                 1.0235                 0.9116
 IR Inten    --      0.9619                 1.1657                 2.4067

                     25                     26                     27
                      A                      A                      A
 Frequencies --    614.1689               619.1058               671.0183
 Red. masses --     12.2709                 7.5432                10.1280
 Frc consts  --      2.7271                 1.7035                 2.6868
 IR Inten    --      0.1879                 0.9275                 2.6973

                     28                     29                     30
                      A                      A                      A
 Frequencies --    706.8769               750.3799               772.0513
 Red. masses --      2.5180                 2.1697                 7.3514
 Frc consts  --      0.7413                 0.7198                 2.5817
 IR Inten    --     26.4748                44.9624                 1.5147

                     31                     32                     33
                      A                      A                      A
 Frequencies --    790.9421               820.6056               830.4417
 Red. masses --      5.0149                 6.8228                 6.4175
 Frc consts  --      1.8484                 2.7070                 2.6075
 IR Inten    --      8.2783                 5.9365                31.0914

                     34                     35                     36
                      A                      A                      A
 Frequencies --    894.7214               911.0476               964.1279
 Red. masses --      8.1810                 1.3276                 1.6600
 Frc consts  --      3.8586                 0.6492                 0.9092
 IR Inten    --     11.4934                 0.6073                 1.4638

                     37                     38                     39
                      A                      A                      A
 Frequencies --    973.1355               997.3793              1034.9439
 Red. masses --      2.1802                 1.3794                 2.7877
 Frc consts  --      1.2165                 0.8085                 1.7593
 IR Inten    --      3.6053                 4.3002                43.7844

                     40                     41                     42
                      A                      A                      A
 Frequencies --   1101.4322              1116.7654              1123.4176
 Red. masses --      2.9047                 1.3908                 2.0027
 Frc consts  --      2.0762                 1.0220                 1.4892
 IR Inten    --     12.1270                 2.0487                 9.2916

                     43                     44                     45
                      A                      A                      A
 Frequencies --   1184.3151              1231.7791              1272.9908
 Red. masses --      2.5665                 8.4610                 1.8487
 Frc consts  --      2.1209                 7.5637                 1.7651
 IR Inten    --      7.5768                28.8416                62.6560

                     46                     47                     48
                      A                      A                      A
 Frequencies --   1285.5967              1336.6012              1424.0628
 Red. masses --      4.1571                10.3686                 3.1126
 Frc consts  --      4.0481                10.9137                 3.7190
 IR Inten    --      7.3776                11.7105                69.0357

                     49                     50                     51
                      A                      A                      A
 Frequencies --   1427.8114              1439.8541              1494.9455
 Red. masses --      1.4729                 1.2043                 1.6275
 Frc consts  --      1.7691                 1.4711                 2.1430
 IR Inten    --     13.7953                 7.5427                 4.0672

                     52                     53                     54
                      A                      A                      A
 Frequencies --   1495.4542              1498.8884              1517.5247
 Red. masses --      1.9383                 1.1564                 1.0736
 Frc consts  --      2.5540                 1.5308                 1.4567
 IR Inten    --     32.5330                56.2625                 4.8300

                     55                     56                     57
                      A                      A                      A
 Frequencies --   1534.7215              1541.5067              1616.9823
 Red. masses --      1.0591                 6.8222                11.7087
 Frc consts  --      1.4697                 9.5514                18.0372
 IR Inten    --     21.4960                 7.3347                81.6671

                     58                     59                     60
                      A                      A                      A
 Frequencies --   1671.9845              1796.9168              2189.6152
 Red. masses --      5.6536                12.4955                13.0167
 Frc consts  --      9.3120                23.7718                36.7694
 IR Inten    --    171.2578               310.9682               174.3025

                     61                     62                     63
                      A                      A                      A
 Frequencies --   2335.8079              3038.8157              3053.3771
 Red. masses --     12.6830                 1.0433                 1.0405
 Frc consts  --     40.7705                 5.6764                 5.7152
 IR Inten    --     25.1348                13.3535                15.2244

                     64                     65                     66
                      A                      A                      A
 Frequencies --   3083.1284              3105.0145              3166.2080
 Red. masses --      1.0983                 1.0991                 1.0987
 Frc consts  --      6.1510                 6.2433                 6.4895
 IR Inten    --      8.8003                16.1064                 8.0639

                     67                     68                     69
                      A                      A                      A
 Frequencies --   3212.3092              3247.8012              3269.6389
 Red. masses --      1.0957                 1.0897                 1.0991
 Frc consts  --      6.6618                 6.7725                 6.9227
 IR Inten    --      4.2330                 2.4403                 0.0666

 - Thermochemistry -
 -------------------
 Temperature   298.150 Kelvin.  Pressure   1.00000 Atm.
 Atom     1 has atomic number  6 and mass  12.00000

 Molecular mass:   240.03573 amu.
 Principal axes and moments of inertia in atomic units:
                           1         2         3
     Eigenvalues --  3232.802644048.774156898.61272
           X            0.99963   0.02364  -0.01358
           Y           -0.02363   0.99972   0.00143
           Z            0.01361  -0.00111   0.99991
 This molecule is an asymmetric top.
 Rotational symmetry number  1.
 Warning -- assumption of classical behavior for rotation
           may cause significant error
 Rotational temperatures (Kelvin)      0.02679     0.02139     0.01256
 Rotational constants (GHZ):           0.55826     0.44575     0.26161
 Zero-point vibrational energy     461053.6 (Joules/Mol)
                                  110.19446 (Kcal/Mol)
 Warning -- explicit consideration of  26 degrees of freedom as
           vibrations may cause significant error
 Vibrational temperatures:     80.79    96.40   121.56   151.79   157.46
          (Kelvin)            185.62   198.73   233.83   302.01   309.42
                              332.72   390.36   394.00   473.33   508.35
                              542.27   557.13   597.43   619.31   684.41
                              706.05   728.17   779.80   799.57   883.65
                              890.76   965.45  1017.04  1079.63  1110.81
                             1137.99  1180.67  1194.82  1287.30  1310.79
                             1387.17  1400.12  1435.01  1489.05  1584.72
                             1606.78  1616.35  1703.97  1772.26  1831.55
                             1849.69  1923.07  2048.91  2054.30  2071.63
                             2150.89  2151.63  2156.57  2183.38  2208.12
                             2217.88  2326.48  2405.61  2585.36  3150.37
                             3360.71  4372.18  4393.13  4435.93  4467.42
                             4555.47  4621.80  4672.86  4704.28

 Zero-point correction=                           0.175606 (Hartree/Particle)
 Thermal correction to Energy=                    0.191181
 Thermal correction to Enthalpy=                  0.192125
 Thermal correction to Gibbs Free Energy=         0.132782
 Sum of electronic and zero-point Energies=          -1082.893601
 Sum of electronic and thermal Energies=             -1082.878027
 Sum of electronic and thermal Enthalpies=           -1082.877083
 Sum of electronic and thermal Free Energies=        -1082.936426

                     E (Thermal)             CV                S
                      KCal/Mol        Cal/Mol-Kelvin    Cal/Mol-Kelvin
 Total                  119.968             57.552            124.898
 Electronic               0.000              0.000              0.000
 Translational            0.889              2.981             42.328
 Rotational               0.889              2.981             32.868
 Vibrational            118.190             51.591             49.702
 Vibration     1          0.596              1.975              4.588
 Vibration     2          0.598              1.970              4.240
 Vibration     3          0.601              1.960              3.784
 Vibration     4          0.605              1.945              3.350
 Vibration     5          0.606              1.942              3.279
 Vibration     6          0.612              1.924              2.961
 Vibration     7          0.614              1.915              2.830
 Vibration     8          0.623              1.888              2.520
 Vibration     9          0.642              1.826              2.044
 Vibration    10          0.645              1.818              2.000
 Vibration    11          0.653              1.793              1.869
 Vibration    12          0.675              1.726              1.588
 Vibration    13          0.676              1.722              1.572
 Vibration    14          0.712              1.618              1.265
 Vibration    15          0.730              1.568              1.151
 Vibration    16          0.747              1.519              1.052
 Vibration    17          0.756              1.497              1.011
 Vibration    18          0.779              1.437              0.908
 Vibration    19          0.792              1.404              0.857
 Vibration    20          0.832              1.304              0.722
 Vibration    21          0.847              1.271              0.682
 Vibration    22          0.861              1.236              0.643
 Vibration    23          0.897              1.157              0.561
 Vibration    24          0.911              1.127              0.532
 Vibration    25          0.974              1.002              0.426
 Vibration    26          0.979              0.992              0.418

                           ! Non-Optimized Parameters !
 Normal termination of Gaussian 16 at Mon Dec 14 16:54:50 2020.

 ----------------------------------------------------------------------
 # B3LYP/6-311++G(d,p) empiricaldispersion=gd3bj scf=xqc pop=npa geom=c
 heck
 ----------------------------------------------------------------------

 ---------------------------------------
 CID_140830374_JID_7248_Energie_neutraal
 ---------------------------------------
 Structure from the checkpoint file:  "JID_7248.chk"
 Charge =  0 Multiplicity = 1

 SCF Done:  E(RB3LYP) =  -1083.27192172     A.U. after   18 cycles
 Normal termination of Gaussian 16 at Mon Dec 14 16:59:27 2020.

 ----------------------------------------------------------------------
 # B3LYP/6-311++G(d,p) empiricaldispersion=gd3bj scf=xqc pop=npa geom=c
 heck
 ----------------------------------------------------------------------

 -------------------------------------
 CID_140830374_JID_7248_Energie_kation
 -------------------------------------
 Structure from the checkpoint file:  "JID_7248.chk"
 Charge =  1 Multiplicity = 2

 SCF Done:  E(UB3LYP) =  -1082.95535076     A.U. after   31 cycles
 Normal termination of Gaussian 16 at Mon Dec 14 17:10:22 2020.
 Gaussian 16:  ES64L-G16RevA.03 25-Dec-2016

 ----------------------------------------------------------------------
 # B3LYP/6-311++G(d,p) empiricaldispersion=gd3bj scf=xqc pop=npa geom=c
 heck
 ----------------------------------------------------------------------

 ------------------------------------
 CID_140830374_JID_7248_Energie_anion
 ------------------------------------
 Structure from the checkpoint file:  "JID_7248.chk"
 Charge = -1 Multiplicity = 2

                         Standard orientation:
 ---------------------------------------------------------------------
 Center     Atomic      Atomic             Coordinates (Angstroms)
 Number     Number       Type             X           Y           Z
 ---------------------------------------------------------------------
      1          6           0       -3.176499   -2.071687    0.160752
      2          6           0       -2.367146   -0.817828    0.347707
      3          6           0       -1.070987   -0.729220   -0.056507
      4          6           0       -0.161600    0.436495    0.027752
      5          6           0       -0.442104    1.764645   -0.169227
      6          6           0        0.577295    2.756089   -0.039015
      7          7           0        1.421872    3.547177    0.089172
      8          7           0       -1.667387    2.228714   -0.585274
      9          6           0       -2.690454    2.651711   -1.001431
     10          6           0        1.185652   -0.106739    0.124194
     11          6           0        1.193762   -1.468304   -0.125875
     12          6           0       -0.190569   -1.935891   -0.356287
     13          8           0       -0.520389   -3.065685   -0.673284
     14          6           0        2.489560   -2.042170   -0.147352
     15          6           0        3.447256   -1.090781    0.093275
     16         16           0        2.788629    0.511984    0.325115
     17          6           0       -3.095263    0.271921    1.082113
     18          1           0       -2.640820   -2.847445   -0.380284
     19          1           0       -4.095356   -1.815503   -0.384307
     20          1           0       -3.496129   -2.460454    1.136514
     21          1           0        2.697022   -3.088713   -0.332445
     22          1           0        4.519429   -1.226600    0.149838
     23          1           0       -3.798428    0.795352    0.422557
     24          1           0       -3.687237   -0.179878    1.886497
     25          1           0       -2.428249    1.016287    1.518168
 ---------------------------------------------------------------------

 SCF Done:  E(UB3LYP) =  -1083.33778622     A.U. after   26 cycles

 The electronic state is 2-A.
 Alpha  occ. eigenvalues --  -88.76405 -18.98518 -14.23358 -14.18283 -10.13722
 Alpha  occ. eigenvalues --  -10.11437 -10.09201 -10.08985 -10.08697 -10.08549
 Alpha  occ. eigenvalues --  -10.08086 -10.07643 -10.07262 -10.07238 -10.06341
 Alpha  occ. eigenvalues --  -10.06136 -10.05204  -7.85005  -5.81305  -5.80925
 Alpha  occ. eigenvalues --   -5.80613  -0.92021  -0.84618  -0.78666  -0.77917
 Alpha  occ. eigenvalues --   -0.73129  -0.69548  -0.66527  -0.62874  -0.59445
 Alpha  occ. eigenvalues --   -0.59007  -0.54794  -0.50347  -0.48549  -0.44976
 Alpha  occ. eigenvalues --   -0.42227  -0.40391  -0.37880  -0.35981  -0.34181
 Alpha  occ. eigenvalues --   -0.33604  -0.31556  -0.30921  -0.30262  -0.29825
 Alpha  occ. eigenvalues --   -0.29109  -0.28582  -0.27112  -0.26678  -0.25785
 Alpha  occ. eigenvalues --   -0.25463  -0.24821  -0.24516  -0.22992  -0.22631
 Alpha  occ. eigenvalues --   -0.21196  -0.20274  -0.19374  -0.15058  -0.13915
 Alpha  occ. eigenvalues --   -0.12904  -0.11328  -0.01041
 Alpha virt. eigenvalues --    0.05009   0.07805   0.08083   0.09945   0.10254
 Alpha virt. eigenvalues --    0.10557   0.10955   0.11360   0.11760   0.12505
 Alpha virt. eigenvalues --    0.13368   0.13766   0.13924   0.14101   0.14424

  Beta  occ. eigenvalues --  -88.76360 -18.98358 -14.23465 -14.18049 -10.13669
  Beta  occ. eigenvalues --  -10.11142 -10.09105 -10.08964 -10.08599 -10.08498
  Beta  occ. eigenvalues --  -10.07874 -10.07329 -10.07325 -10.07240 -10.06346
  Beta  occ. eigenvalues --  -10.06144 -10.04988  -7.84964  -5.81282  -5.80904
  Beta  occ. eigenvalues --   -5.80469  -0.91740  -0.84435  -0.78358  -0.77600
  Beta  occ. eigenvalues --   -0.72849  -0.69164  -0.66058  -0.62658  -0.59424
  Beta  occ. eigenvalues --   -0.58830  -0.54214  -0.50147  -0.48206  -0.44700
  Beta  occ. eigenvalues --   -0.42082  -0.40258  -0.37673  -0.35851  -0.33982
  Beta  occ. eigenvalues --   -0.33429  -0.30898  -0.30659  -0.30020  -0.29271
  Beta  occ. eigenvalues --   -0.29011  -0.28374  -0.27011  -0.26565  -0.25408
  Beta  occ. eigenvalues --   -0.25060  -0.24649  -0.24289  -0.22665  -0.22134
  Beta  occ. eigenvalues --   -0.21053  -0.19121  -0.18705  -0.14398  -0.13522
  Beta  occ. eigenvalues --   -0.12454  -0.09542
  Beta virt. eigenvalues --    0.04632   0.05701   0.07804   0.08082   0.10022
  Beta virt. eigenvalues --    0.10326   0.10993   0.11126   0.11595   0.11812
  Beta virt. eigenvalues --    0.12895   0.13408   0.13853   0.13983   0.14112

 Mulliken charges and spin densities:
               1          2
     1  C   -0.716751  -0.008417
     2  C    0.338520   0.062296
     3  C    1.275926  -0.031533
     4  C    0.643231   0.269512
     5  C   -0.093108   0.224956
     6  C   -1.173972  -0.084037
     7  N   -0.252943   0.119040
     8  N    0.341568  -0.057454
     9  C   -0.335636   0.158349
    10  C   -0.437411  -0.027728
    11  C    1.684200   0.183694
    12  C   -2.169043  -0.016968
    13  O   -0.296211   0.055746
    14  C    0.337523  -0.037357
    15  C   -0.200497   0.126484
    16  S   -0.781377   0.054213
    17  C   -0.468527   0.004414
    18  H    0.212124  -0.000877
    19  H    0.134160   0.003932
    20  H    0.120512   0.003328
    21  H    0.148360   0.004871
    22  H    0.213256  -0.009527
    23  H    0.190907   0.001021
    24  H    0.112058   0.004345
    25  H    0.173133  -0.002303
 Sum of Mulliken charges =  -1.00000   1.00000

 Dipole moment (field-independent basis, Debye):
    X=              0.4901    Y=             -4.7184    Z=              2.3205  Tot=              5.2809
 Quadrupole moment (field-independent basis, Debye-Ang):
   XX=           -129.3651   YY=           -158.9448   ZZ=           -114.6848
   XY=             -0.2907   XZ=             -7.2743   YZ=              0.7414

 Summary of Natural Population Analysis:

                                       Natural Population
                Natural  -----------------------------------------------
    Atom  No    Charge         Core      Valence    Rydberg      Total
 -----------------------------------------------------------------------
      C    1   -0.30798      0.99962     2.30332    0.00504     3.30798
      C    2    0.06433      0.99949     1.92887    0.00731     2.93567
      C    3   -0.08496      0.99938     2.07441    0.01117     3.08496
      C    4    0.05372      0.99948     1.93028    0.01652     2.94628
      C    5    0.08673      0.99928     1.89919    0.01480     2.91327
      C    6    0.11644      0.99970     1.86423    0.01963     2.88356
      N    7   -0.15321      0.99979     2.64271    0.01071     3.65321
      N    8   -0.27755      0.99966     2.76331    0.01458     3.77755
      C    9    0.13959      0.99975     1.84921    0.01145     2.86041
      C   10   -0.08509      0.99934     2.07555    0.01021     3.08509
      C   11   -0.03915      0.99937     2.02956    0.01023     3.03915
      C   12    0.27938      0.99955     1.70066    0.02041     2.72062
      O   13   -0.28400      0.99987     3.27769    0.00643     4.28400
      C   14   -0.14012      0.99950     2.13077    0.00984     3.14012
      C   15   -0.15266      0.99957     2.14207    0.01102     3.15266
      S   16    0.24205      4.99942     2.73583    0.02270     7.75795
      C   17   -0.30619      0.99963     2.30100    0.00556     3.30619
      H   18    0.12369      0.00000     0.37518    0.00113     0.37631
      H   19    0.10094      0.00000     0.39804    0.00102     0.39906
      H   20    0.09753      0.00000     0.40142    0.00105     0.40247
      H   21    0.10757      0.00000     0.39131    0.00112     0.39243
      H   22    0.09968      0.00000     0.39937    0.00095     0.40032
      H   23    0.11498      0.00000     0.38377    0.00126     0.38502
      H   24    0.09691      0.00000     0.40217    0.00092     0.40309
      H   25    0.11024      0.00000     0.38893    0.00083     0.38976
 =======================================================================
   * Total *    0.00286     20.99240    40.78886    0.21589    61.99714

 Normal termination of Gaussian 16 at Mon Dec 14 17:20:25 2020.
