 Gaussian 16, Revision A.03,

 -----------------------------------------------------------
 # opt freq B3LYP/6-31G(d) empiricaldispersion=gd3bj scf=xqc
 -----------------------------------------------------------

 -------------------------------
 CID_143219138_JID_6026_neutraal
 -------------------------------
 Symbolic Z-matrix:
 Charge =  0 Multiplicity = 1

 SCF Done:  E(RB3LYP) =  -692.397746295     A.U. after   15 cycles
 SCF Done:  E(RB3LYP) =  -692.401167562     A.U. after   13 cycles
 SCF Done:  E(RB3LYP) =  -692.396960954     A.U. after   14 cycles
 SCF Done:  E(RB3LYP) =  -692.401483672     A.U. after   13 cycles
 SCF Done:  E(RB3LYP) =  -692.402489087     A.U. after   13 cycles
 SCF Done:  E(RB3LYP) =  -692.403746077     A.U. after   12 cycles
 SCF Done:  E(RB3LYP) =  -692.404151314     A.U. after   12 cycles
 SCF Done:  E(RB3LYP) =  -692.404441692     A.U. after   12 cycles
 SCF Done:  E(RB3LYP) =  -692.404506370     A.U. after   10 cycles
 SCF Done:  E(RB3LYP) =  -692.404516843     A.U. after   10 cycles
 SCF Done:  E(RB3LYP) =  -692.404522821     A.U. after    9 cycles
 SCF Done:  E(RB3LYP) =  -692.404523459     A.U. after    8 cycles
 SCF Done:  E(RB3LYP) =  -692.404523585     A.U. after    7 cycles
 SCF Done:  E(RB3LYP) =  -692.404523636     A.U. after    7 cycles
 Optimization completed.
    -- Stationary point found.
 Normal termination of Gaussian 16 at Thu Dec 10 21:14:30 2020.

 --------------------------------------------------------------------
 #N Geom=AllCheck Guess=TCheck SCRF=Check GenChk RB3LYP/6-31G(d) Freq
 --------------------------------------------------------------------

 Structure from the checkpoint file:  "JID_6026.chk"
 -------------------------------
 CID_143219138_JID_6026_neutraal
 -------------------------------
 Charge =  0 Multiplicity = 1

 SCF Done:  E(RB3LYP) =  -692.404523636     A.U. after    1 cycles

  Exact polarizability: 185.454  -4.436 151.205  -3.263   5.801  92.946
 Approx polarizability: 272.483   2.154 245.811  -9.727  12.282 154.472

                      1                      2                      3
                      A                      A                      A
 Frequencies --     54.1777                67.6202                84.8026
 Red. masses --      6.7172                 4.9817                 3.9563
 Frc consts  --      0.0116                 0.0134                 0.0168
 IR Inten    --      0.7992                 0.1686                 0.4188

                      4                      5                      6
                      A                      A                      A
 Frequencies --    110.2204               147.2161               177.3060
 Red. masses --      3.4589                 4.8189                 4.6194
 Frc consts  --      0.0248                 0.0615                 0.0856
 IR Inten    --      0.0879                 1.2178                 0.5257

                      7                      8                      9
                      A                      A                      A
 Frequencies --    212.5148               229.5541               251.2693
 Red. masses --      2.8895                 1.4015                 3.8854
 Frc consts  --      0.0769                 0.0435                 0.1445
 IR Inten    --      0.2085                 0.2368                 0.8000

                     10                     11                     12
                      A                      A                      A
 Frequencies --    297.0163               306.8980               340.4282
 Red. masses --      3.7135                 2.0067                 3.8935
 Frc consts  --      0.1930                 0.1114                 0.2659
 IR Inten    --      1.0770                 0.3979                 0.7206

                     13                     14                     15
                      A                      A                      A
 Frequencies --    368.0145               391.9019               419.7497
 Red. masses --      4.3452                 3.4928                 2.4150
 Frc consts  --      0.3467                 0.3161                 0.2507
 IR Inten    --      2.4450                 0.9495                 2.2413

                     16                     17                     18
                      A                      A                      A
 Frequencies --    472.2231               539.5238               549.2978
 Red. masses --      3.9940                 2.9179                 3.2217
 Frc consts  --      0.5247                 0.5004                 0.5727
 IR Inten    --      3.9069                 7.9747                 1.4177

                     19                     20                     21
                      A                      A                      A
 Frequencies --    570.2267               585.8105               623.0390
 Red. masses --      4.1598                 5.1001                 3.2167
 Frc consts  --      0.7969                 1.0312                 0.7357
 IR Inten    --      4.8774                 0.3773                11.1388

                     22                     23                     24
                      A                      A                      A
 Frequencies --    628.4857               641.5741               700.2593
 Red. masses --      1.3597                 4.9325                 3.7714
 Frc consts  --      0.3164                 1.1962                 1.0896
 IR Inten    --     54.7171                35.5857                15.5455

                     25                     26                     27
                      A                      A                      A
 Frequencies --    710.3527               754.5415               775.6856
 Red. masses --      1.5585                 3.8829                 1.5252
 Frc consts  --      0.4633                 1.3025                 0.5407
 IR Inten    --     43.9500                44.5565                39.6756

                     28                     29                     30
                      A                      A                      A
 Frequencies --    783.7219               797.9288               812.4356
 Red. masses --      4.3274                 1.6657                 2.7491
 Frc consts  --      1.5660                 0.6249                 1.0691
 IR Inten    --     10.2043                 2.0628                15.0055

                     31                     32                     33
                      A                      A                      A
 Frequencies --    863.6969               879.1956               901.9768
 Red. masses --      3.1013                 2.0627                 1.4347
 Frc consts  --      1.3631                 0.9394                 0.6877
 IR Inten    --      6.8147                 1.1877                 0.3085

                     34                     35                     36
                      A                      A                      A
 Frequencies --    950.6418               966.8436               970.9232
 Red. masses --      1.8797                 2.6935                 1.4158
 Frc consts  --      1.0009                 1.4835                 0.7864
 IR Inten    --      3.4158                 0.8967                 1.6272

                     37                     38                     39
                      A                      A                      A
 Frequencies --    978.5020               988.3697               994.8486
 Red. masses --      1.5363                 1.8462                 1.4865
 Frc consts  --      0.8667                 1.0626                 0.8668
 IR Inten    --      5.3230                 4.6231                 0.6826

                     40                     41                     42
                      A                      A                      A
 Frequencies --   1002.3399              1028.8883              1075.1497
 Red. masses --      1.2931                 1.7295                 3.3463
 Frc consts  --      0.7654                 1.0787                 2.2790
 IR Inten    --      0.8812                 4.0484                19.8833

                     43                     44                     45
                      A                      A                      A
 Frequencies --   1079.9707              1103.3800              1129.5086
 Red. masses --      3.4073                 2.6810                 2.3984
 Frc consts  --      2.3415                 1.9230                 1.8028
 IR Inten    --     21.0903                18.5719                81.4323

                     46                     47                     48
                      A                      A                      A
 Frequencies --   1161.9170              1164.0105              1203.1648
 Red. masses --      1.7449                 1.4424                 1.1150
 Frc consts  --      1.3879                 1.1514                 0.9510
 IR Inten    --      6.0369                 4.3097                 2.6915

                     49                     50                     51
                      A                      A                      A
 Frequencies --   1211.4136              1225.7074              1242.5180
 Red. masses --      1.1455                 1.8273                 2.0822
 Frc consts  --      0.9904                 1.6175                 1.8940
 IR Inten    --      0.4036               134.7017                11.3238

                     52                     53                     54
                      A                      A                      A
 Frequencies --   1252.4265              1289.6863              1321.3224
 Red. masses --      1.6433                 1.4020                 1.5579
 Frc consts  --      1.5187                 1.3740                 1.6026
 IR Inten    --     14.8102                 3.4568                 0.4236

                     55                     56                     57
                      A                      A                      A
 Frequencies --   1340.7345              1363.4895              1380.1403
 Red. masses --      5.6474                 1.5391                 2.3669
 Frc consts  --      5.9812                 1.6858                 2.6563
 IR Inten    --      6.3545                14.5041                58.3823

                     58                     59                     60
                      A                      A                      A
 Frequencies --   1405.8396              1431.0220              1458.6523
 Red. masses --      1.4868                 1.2702                 1.6357
 Frc consts  --      1.7313                 1.5325                 2.0505
 IR Inten    --      3.8763                 3.9241                 2.3409

                     61                     62                     63
                      A                      A                      A
 Frequencies --   1485.8486              1502.7459              1517.2155
 Red. masses --      2.1836                 1.0832                 1.0866
 Frc consts  --      2.8404                 1.4412                 1.4737
 IR Inten    --     14.3937                 1.1612                 3.5540

                     64                     65                     66
                      A                      A                      A
 Frequencies --   1533.7031              1548.0519              1626.8191
 Red. masses --      2.3613                 1.0577                 5.9389
 Frc consts  --      3.2725                 1.4935                 9.2604
 IR Inten    --     10.9942                 6.0698                 1.3292

                     67                     68                     69
                      A                      A                      A
 Frequencies --   1659.0503              1662.2591              1727.8114
 Red. masses --      5.8102                 7.1581                 5.5584
 Frc consts  --      9.4224                11.6532                 9.7767
 IR Inten    --     13.2164                 3.9774                 1.2438

                     70                     71                     72
                      A                      A                      A
 Frequencies --   1827.5158              3000.6159              3073.1095
 Red. masses --      9.7919                 1.0733                 1.0394
 Frc consts  --     19.2681                 5.6936                 5.7832
 IR Inten    --    310.4624                24.9743                18.7811

                     73                     74                     75
                      A                      A                      A
 Frequencies --   3129.7658              3137.9652              3168.9742
 Red. masses --      1.0873                 1.1020                 1.0838
 Frc consts  --      6.2754                 6.3935                 6.4126
 IR Inten    --      2.8029                15.8842                 1.8885

                     76                     77                     78
                      A                      A                      A
 Frequencies --   3175.6270              3178.3272              3189.0041
 Red. masses --      1.0861                 1.0961                 1.0906
 Frc consts  --      6.4531                 6.5238                 6.5348
 IR Inten    --      4.3115                17.4146                28.9559

                     79                     80                     81
                      A                      A                      A
 Frequencies --   3190.3316              3200.7343              3204.5870
 Red. masses --      1.0914                 1.0983                 1.0896
 Frc consts  --      6.5451                 6.6294                 6.5929
 IR Inten    --     17.9394                30.7912                14.6776

                     82                     83                     84
                      A                      A                      A
 Frequencies --   3212.5268              3221.7495              3674.3908
 Red. masses --      1.0930                 1.0960                 1.0638
 Frc consts  --      6.6458                 6.7024                 8.4619
 IR Inten    --     15.7588                13.1390                60.0730

 - Thermochemistry -
 -------------------
 Temperature   298.150 Kelvin.  Pressure   1.00000 Atm.
 Atom     1 has atomic number  6 and mass  12.00000

 Molecular mass:   214.09938 amu.
 Principal axes and moments of inertia in atomic units:
                           1         2         3
     Eigenvalues --  2101.654554122.372775426.09466
           X            0.99977  -0.02113   0.00360
           Y            0.02111   0.99977   0.00463
           Z           -0.00370  -0.00455   0.99998
 This molecule is an asymmetric top.
 Rotational symmetry number  1.
 Warning -- assumption of classical behavior for rotation
           may cause significant error
 Rotational temperatures (Kelvin)      0.04121     0.02101     0.01596
 Rotational constants (GHZ):           0.85872     0.43779     0.33260
 Zero-point vibrational energy     649684.7 (Joules/Mol)
                                  155.27838 (Kcal/Mol)
 Warning -- explicit consideration of  20 degrees of freedom as
           vibrations may cause significant error
 Vibrational temperatures:     77.95    97.29   122.01   158.58   211.81
          (Kelvin)            255.10   305.76   330.28   361.52   427.34
                              441.56   489.80   529.49   563.86   603.93
                              679.42   776.25   790.32   820.43   842.85
                              896.41   904.25   923.08  1007.52  1022.04
                             1085.62  1116.04  1127.60  1148.04  1168.91
                             1242.67  1264.97  1297.74  1367.76  1391.07
                             1396.94  1407.85  1422.04  1431.37  1442.14
                             1480.34  1546.90  1553.84  1587.52  1625.11
                             1671.74  1674.75  1731.09  1742.95  1763.52
                             1787.71  1801.96  1855.57  1901.09  1929.02
                             1961.76  1985.71  2022.69  2058.92  2098.68
                             2137.80  2162.12  2182.93  2206.66  2227.30
                             2340.63  2387.00  2391.62  2485.94  2629.39
                             4317.22  4421.52  4503.03  4514.83  4559.45
                             4569.02  4572.90  4588.27  4590.18  4605.14
                             4610.69  4622.11  4635.38  5286.63

 Zero-point correction=                           0.247452 (Hartree/Particle)
 Thermal correction to Energy=                    0.261182
 Thermal correction to Enthalpy=                  0.262126
 Thermal correction to Gibbs Free Energy=         0.207216
 Sum of electronic and zero-point Energies=           -692.157072
 Sum of electronic and thermal Energies=              -692.143342
 Sum of electronic and thermal Enthalpies=            -692.142397
 Sum of electronic and thermal Free Energies=         -692.197307

                     E (Thermal)             CV                S
                      KCal/Mol        Cal/Mol-Kelvin    Cal/Mol-Kelvin
 Total                  163.894             54.793            115.568
 Electronic               0.000              0.000              0.000
 Translational            0.889              2.981             41.987
 Rotational               0.889              2.981             32.219
 Vibrational            162.117             48.831             41.361
 Vibration     1          0.596              1.976              4.659
 Vibration     2          0.598              1.970              4.221
 Vibration     3          0.601              1.960              3.777
 Vibration     4          0.606              1.941              3.265
 Vibration     5          0.617              1.906              2.708
 Vibration     6          0.628              1.870              2.357
 Vibration     7          0.644              1.822              2.022
 Vibration     8          0.652              1.796              1.882
 Vibration     9          0.663              1.761              1.722
 Vibration    10          0.691              1.679              1.434
 Vibration    11          0.697              1.661              1.379
 Vibration    12          0.720              1.595              1.210
 Vibration    13          0.741              1.538              1.088
 Vibration    14          0.759              1.487              0.993
 Vibration    15          0.782              1.427              0.893
 Vibration    16          0.829              1.312              0.731
 Vibration    17          0.895              1.163              0.566
 Vibration    18          0.905              1.141              0.546
 Vibration    19          0.926              1.096              0.504
 Vibration    20          0.943              1.062              0.475

 Optimization completed.
    -- Stationary point found.
 Normal termination of Gaussian 16 at Thu Dec 10 21:25:43 2020.

 ----------------------------------------------------------------------
 # B3LYP/6-311++G(d,p) empiricaldispersion=gd3bj scf=xqc pop=npa geom=c
 heck
 ----------------------------------------------------------------------

 ---------------------------------------
 CID_143219138_JID_6026_Energie_neutraal
 ---------------------------------------
 Structure from the checkpoint file:  "JID_6026.chk"
 Charge =  0 Multiplicity = 1

 SCF Done:  E(RB3LYP) =  -692.598367000     A.U. after   16 cycles
 Normal termination of Gaussian 16 at Thu Dec 10 21:30:19 2020.

 ----------------------------------------------------------------------
 # B3LYP/6-311++G(d,p) empiricaldispersion=gd3bj scf=xqc pop=npa geom=c
 heck
 ----------------------------------------------------------------------

 -------------------------------------
 CID_143219138_JID_6026_Energie_kation
 -------------------------------------
 Structure from the checkpoint file:  "JID_6026.chk"
 Charge =  1 Multiplicity = 2

 SCF Done:  E(UB3LYP) =  -692.307214932     A.U. after   26 cycles
 Normal termination of Gaussian 16 at Thu Dec 10 21:42:08 2020.
 Gaussian 16:  ES64L-G16RevA.03 25-Dec-2016

 ----------------------------------------------------------------------
 # B3LYP/6-311++G(d,p) empiricaldispersion=gd3bj scf=xqc pop=npa geom=c
 heck
 ----------------------------------------------------------------------

 ------------------------------------
 CID_143219138_JID_6026_Energie_anion
 ------------------------------------
 Structure from the checkpoint file:  "JID_6026.chk"
 Charge = -1 Multiplicity = 2

                         Standard orientation:
 ---------------------------------------------------------------------
 Center     Atomic      Atomic             Coordinates (Angstroms)
 Number     Number       Type             X           Y           Z
 ---------------------------------------------------------------------
      1          6           0        0.932701   -1.216636    1.290023
      2          6           0        0.961733   -0.042552    0.279229
      3          6           0        1.543150   -0.500339   -1.089724
      4          6           0        3.036698   -0.701117   -1.076912
      5          6           0        3.819621    0.021457   -0.261487
      6          6           0        3.223600    0.966999    0.682173
      7          6           0        1.902108    0.978287    0.915245
      8          6           0       -0.422657    0.586547    0.041087
      9          6           0       -0.480631    1.975011   -0.160744
     10          6           0       -1.680249    2.661986   -0.327057
     11          6           0       -2.888523    1.971840   -0.270208
     12          6           0       -2.864713    0.594466   -0.091370
     13          6           0       -1.653675   -0.107516    0.022377
     14          6           0       -1.849998   -1.587395    0.075834
     15          8           0       -2.654102   -2.155421    0.783130
     16          8           0       -1.115713   -2.263597   -0.850093
     17          1           0        1.958459   -1.544111    1.480678
     18          1           0        0.378128   -2.078086    0.918530
     19          1           0        0.491130   -0.897561    2.239633
     20          1           0        1.020899   -1.404748   -1.409902
     21          1           0        1.309420    0.267891   -1.844599
     22          1           0        3.468141   -1.391193   -1.798244
     23          1           0        4.901698   -0.077577   -0.288627
     24          1           0        3.878913    1.642195    1.227063
     25          1           0        1.480664    1.638527    1.669281
     26          1           0        0.449945    2.532268   -0.180636
     27          1           0       -1.666291    3.737020   -0.483270
     28          1           0       -3.835084    2.494246   -0.369890
     29          1           0       -3.789943    0.029115   -0.053331
     30          1           0       -1.362558   -3.202077   -0.741783
 ---------------------------------------------------------------------

 SCF Done:  E(UB3LYP) =  -692.594304832     A.U. after   33 cycles
 SCF Done:  E(UB3LYP) =  -692.594304832     a.u. after    1 cycles

 The electronic state is 2-A.
 Alpha  occ. eigenvalues --  -19.03259 -18.96366 -10.14763 -10.05971 -10.04223
 Alpha  occ. eigenvalues --  -10.03565 -10.03417 -10.03374 -10.03262 -10.03248
 Alpha  occ. eigenvalues --  -10.03155 -10.02974 -10.02964 -10.02878 -10.02704
 Alpha  occ. eigenvalues --  -10.02460  -0.96971  -0.87632  -0.73036  -0.70525
 Alpha  occ. eigenvalues --   -0.64687  -0.62172  -0.60928  -0.59566  -0.54991
 Alpha  occ. eigenvalues --   -0.52005  -0.48108  -0.47017  -0.44694  -0.43690
 Alpha  occ. eigenvalues --   -0.39087  -0.36687  -0.35275  -0.35045  -0.33390
 Alpha  occ. eigenvalues --   -0.33231  -0.31292  -0.30903  -0.29642  -0.29336
 Alpha  occ. eigenvalues --   -0.28464  -0.27398  -0.26855  -0.25383  -0.24728
 Alpha  occ. eigenvalues --   -0.22962  -0.22857  -0.21771  -0.21241  -0.19206
 Alpha  occ. eigenvalues --   -0.18681  -0.18180  -0.17774  -0.14718  -0.11657
 Alpha  occ. eigenvalues --   -0.11448  -0.08726   0.05820
 Alpha virt. eigenvalues --    0.08109   0.08510   0.09140   0.09303   0.10180
 Alpha virt. eigenvalues --    0.10770   0.11483   0.11704   0.12030   0.12805
 Alpha virt. eigenvalues --    0.13184   0.13637   0.14377   0.14833   0.15266

  Beta  occ. eigenvalues --  -19.03203 -18.96157 -10.14531 -10.05978 -10.04095
  Beta  occ. eigenvalues --  -10.03579 -10.03383 -10.03243 -10.03226 -10.03154
  Beta  occ. eigenvalues --  -10.03120 -10.03018 -10.02874 -10.02763 -10.02508
  Beta  occ. eigenvalues --  -10.02172  -0.96718  -0.87316  -0.72773  -0.70255
  Beta  occ. eigenvalues --   -0.64455  -0.61689  -0.60629  -0.59370  -0.54882
  Beta  occ. eigenvalues --   -0.51513  -0.48021  -0.46719  -0.44391  -0.43427
  Beta  occ. eigenvalues --   -0.38955  -0.36535  -0.35046  -0.34826  -0.33026
  Beta  occ. eigenvalues --   -0.32880  -0.31117  -0.30701  -0.29382  -0.29066
  Beta  occ. eigenvalues --   -0.28292  -0.27274  -0.26693  -0.25218  -0.24593
  Beta  occ. eigenvalues --   -0.22732  -0.22356  -0.21571  -0.21039  -0.18550
  Beta  occ. eigenvalues --   -0.18456  -0.17879  -0.17199  -0.14341  -0.10944
  Beta  occ. eigenvalues --   -0.10264  -0.07840
  Beta virt. eigenvalues --    0.08291   0.09085   0.09159   0.09975   0.10165
  Beta virt. eigenvalues --    0.10631   0.10980   0.11525   0.11733   0.12186
  Beta virt. eigenvalues --    0.12800   0.13173   0.13591   0.14468   0.14808

 Mulliken charges and spin densities:
               1          2
     1  C   -0.971997  -0.005045
     2  C    1.744122  -0.067370
     3  C   -1.213873  -0.030501
     4  C   -0.152246   0.142226
     5  C   -0.320887   0.048757
     6  C   -0.392833   0.077021
     7  C   -0.307949   0.117976
     8  C    0.529822   0.117376
     9  C   -0.469291  -0.038217
    10  C   -0.441922   0.226369
    11  C   -0.430391   0.004974
    12  C   -0.199054   0.122510
    13  C    0.309014   0.079019
    14  C   -0.317716   0.145077
    15  O   -0.313443   0.068537
    16  O   -0.164806   0.005356
    17  H    0.166631  -0.002083
    18  H    0.141627   0.001358
    19  H    0.137365  -0.001269
    20  H    0.199713   0.002511
    21  H    0.141183   0.011007
    22  H    0.131383  -0.006564
    23  H    0.111487  -0.002878
    24  H    0.113921  -0.002095
    25  H    0.178928  -0.012197
    26  H    0.181056   0.003343
    27  H    0.113188  -0.017428
    28  H    0.103886  -0.000279
    29  H    0.150132   0.002373
    30  H    0.242948   0.010138
 Sum of Mulliken charges =  -1.00000   1.00000

 Dipole moment (field-independent basis, Debye):
    X=              1.5213    Y=             -0.3370    Z=             -0.8864  Tot=              1.7926
 Quadrupole moment (field-independent basis, Debye-Ang):
   XX=           -136.4761   YY=           -110.7974   ZZ=           -108.7823
   XY=             -4.0929   XZ=              4.8452   YZ=              5.4608

 Summary of Natural Population Analysis:

                                       Natural Population
                Natural  -----------------------------------------------
    Atom  No    Charge         Core      Valence    Rydberg      Total
 -----------------------------------------------------------------------
      C    1   -0.28161      0.99963     2.27662    0.00536     3.28161
      C    2   -0.05793      0.99954     2.04660    0.01179     3.05793
      C    3   -0.20703      0.99959     2.19883    0.00861     3.20703
      C    4   -0.04844      0.99955     2.03907    0.00982     3.04844
      C    5   -0.12295      0.99953     2.11326    0.01016     3.12295
      C    6   -0.12340      0.99952     2.11420    0.00968     3.12340
      C    7   -0.04377      0.99953     2.03356    0.01067     3.04377
      C    8    0.02788      0.99947     1.96039    0.01227     2.97212
      C    9   -0.11705      0.99952     2.10987    0.00766     3.11705
      C   10   -0.05079      0.99957     2.04195    0.00927     3.05079
      C   11   -0.11999      0.99957     2.11122    0.00921     3.11999
      C   12   -0.06733      0.99955     2.05955    0.00824     3.06733
      C   13   -0.04961      0.99941     2.03783    0.01237     3.04961
      C   14    0.43130      0.99966     1.54467    0.02438     2.56870
      O   15   -0.30605      0.99987     3.29983    0.00636     4.30605
      O   16   -0.35121      0.99988     3.34469    0.00665     4.35121
      H   17    0.10151      0.00000     0.39764    0.00085     0.39849
      H   18    0.10119      0.00000     0.39788    0.00093     0.39881
      H   19    0.09897      0.00000     0.40025    0.00079     0.40103
      H   20    0.11217      0.00000     0.38677    0.00105     0.38783
      H   21    0.10670      0.00000     0.39221    0.00109     0.39330
      H   22    0.08550      0.00000     0.41336    0.00115     0.41450
      H   23    0.08990      0.00000     0.40898    0.00112     0.41010
      H   24    0.08985      0.00000     0.40828    0.00187     0.41015
      H   25    0.09487      0.00000     0.40394    0.00119     0.40513
      H   26    0.10197      0.00000     0.39703    0.00101     0.39803
      H   27    0.08657      0.00000     0.41198    0.00145     0.41343
      H   28    0.09074      0.00000     0.40823    0.00103     0.40926
      H   29    0.09888      0.00000     0.40005    0.00107     0.40112
      H   30    0.22919      0.00000     0.26658    0.00422     0.27081
 =======================================================================
   * Total *   -0.00000     15.99337    40.82531    0.18131    57.00000

 Normal termination of Gaussian 16 at Thu Dec 10 21:55:14 2020.
