 Gaussian 16, Revision A.03,

 -----------------------------------------------------------
 # opt freq B3LYP/6-31G(d) empiricaldispersion=gd3bj scf=xqc
 -----------------------------------------------------------

 -------------------------------
 CID_154200451_JID_2924_neutraal
 -------------------------------
 Symbolic Z-matrix:
 Charge =  0 Multiplicity = 1

 SCF Done:  E(RB3LYP) =  -570.622761473     A.U. after   14 cycles
 SCF Done:  E(RB3LYP) =  -570.626024165     A.U. after   12 cycles
 SCF Done:  E(RB3LYP) =  -570.625608615     A.U. after   12 cycles
 SCF Done:  E(RB3LYP) =  -570.627077994     A.U. after   11 cycles
 SCF Done:  E(RB3LYP) =  -570.627379027     A.U. after   11 cycles
 SCF Done:  E(RB3LYP) =  -570.627453065     A.U. after   12 cycles
 SCF Done:  E(RB3LYP) =  -570.627610665     A.U. after   11 cycles
 SCF Done:  E(RB3LYP) =  -570.627754833     A.U. after   11 cycles
 SCF Done:  E(RB3LYP) =  -570.627815451     A.U. after   10 cycles
 SCF Done:  E(RB3LYP) =  -570.627838814     A.U. after   11 cycles
 SCF Done:  E(RB3LYP) =  -570.627843715     A.U. after   10 cycles
 SCF Done:  E(RB3LYP) =  -570.627844441     A.U. after    8 cycles
 SCF Done:  E(RB3LYP) =  -570.627844534     A.U. after    7 cycles
 SCF Done:  E(RB3LYP) =  -570.627844559     A.U. after    6 cycles
 Optimization completed.
    -- Stationary point found.
 Normal termination of Gaussian 16 at Wed Dec  9 18:20:58 2020.

 --------------------------------------------------------------------
 #N Geom=AllCheck Guess=TCheck SCRF=Check GenChk RB3LYP/6-31G(d) Freq
 --------------------------------------------------------------------

 Structure from the checkpoint file:  "JID_2924.chk"
 -------------------------------
 CID_154200451_JID_2924_neutraal
 -------------------------------
 Charge =  0 Multiplicity = 1

 SCF Done:  E(RB3LYP) =  -570.627844559     A.U. after    1 cycles

  Exact polarizability: 119.421   0.548  98.477  -0.422  -3.024  87.523
 Approx polarizability: 151.215  -2.959 148.260  -0.461  -8.506 127.100

                      1                      2                      3
                      A                      A                      A
 Frequencies --     41.2886                65.7147                82.0601
 Red. masses --      3.4311                 3.7312                 3.8630
 Frc consts  --      0.0034                 0.0095                 0.0153
 IR Inten    --      1.0823                 2.9245                 2.1795

                      4                      5                      6
                      A                      A                      A
 Frequencies --     98.3643               160.9726               212.2539
 Red. masses --      2.8846                 3.8300                 1.9224
 Frc consts  --      0.0164                 0.0585                 0.0510
 IR Inten    --      0.3162                 0.6654                 0.6133

                      7                      8                      9
                      A                      A                      A
 Frequencies --    241.5084               270.4186               274.9259
 Red. masses --      1.3236                 1.8292                 1.3262
 Frc consts  --      0.0455                 0.0788                 0.0591
 IR Inten    --      8.8565                12.9700                35.6201

                     10                     11                     12
                      A                      A                      A
 Frequencies --    290.6750               325.5150               350.1890
 Red. masses --      2.1149                 4.6475                 2.7865
 Frc consts  --      0.1053                 0.2901                 0.2013
 IR Inten    --      1.0872                 0.9630                 3.7364

                     13                     14                     15
                      A                      A                      A
 Frequencies --    407.8762               421.1722               474.8616
 Red. masses --      2.8938                 1.9266                 2.7770
 Frc consts  --      0.2836                 0.2013                 0.3689
 IR Inten    --     41.8259                 2.2423                 9.3492

                     16                     17                     18
                      A                      A                      A
 Frequencies --    486.7522               542.5801               562.3951
 Red. masses --      3.3884                 3.3675                 2.4371
 Frc consts  --      0.4730                 0.5841                 0.4542
 IR Inten    --      6.1143                 0.6344                 0.9395

                     19                     20                     21
                      A                      A                      A
 Frequencies --    638.0883               734.6887               781.8938
 Red. masses --      2.5387                 3.7854                 2.4583
 Frc consts  --      0.6090                 1.2038                 0.8855
 IR Inten    --     11.2985                23.9267                 5.3800

                     22                     23                     24
                      A                      A                      A
 Frequencies --    800.8997               813.3355               851.6045
 Red. masses --      1.7763                 2.2708                 1.6013
 Frc consts  --      0.6713                 0.8851                 0.6842
 IR Inten    --     22.0547               132.3148                 0.8644

                     25                     26                     27
                      A                      A                      A
 Frequencies --    873.2486               918.3335               934.2526
 Red. masses --      2.1453                 2.1956                 2.2682
 Frc consts  --      0.9639                 1.0910                 1.1664
 IR Inten    --     23.8112                 2.6819                 1.6068

                     28                     29                     30
                      A                      A                      A
 Frequencies --    959.1673              1005.9002              1035.5110
 Red. masses --      2.4209                 2.4280                 2.1918
 Frc consts  --      1.3122                 1.4475                 1.3847
 IR Inten    --     28.5278                49.9885                32.9366

                     31                     32                     33
                      A                      A                      A
 Frequencies --   1044.1082              1051.4816              1099.7297
 Red. masses --      1.6238                 2.2215                 2.2192
 Frc consts  --      1.0430                 1.4471                 1.5813
 IR Inten    --      5.6406                 0.8487                73.2313

                     34                     35                     36
                      A                      A                      A
 Frequencies --   1115.1119              1151.6514              1166.6649
 Red. masses --      1.8551                 3.7856                 1.9956
 Frc consts  --      1.3591                 2.9582                 1.6003
 IR Inten    --     31.6281                36.3461                 8.6772

                     37                     38                     39
                      A                      A                      A
 Frequencies --   1209.3528              1216.9568              1217.9502
 Red. masses --      2.0322                 2.4908                 1.2564
 Frc consts  --      1.7511                 2.1734                 1.0981
 IR Inten    --     34.8232                 7.0863                 6.1568

                     40                     41                     42
                      A                      A                      A
 Frequencies --   1263.3314              1285.6473              1303.0932
 Red. masses --      2.0542                 1.8161                 1.6946
 Frc consts  --      1.9316                 1.7686                 1.6954
 IR Inten    --     30.0745               208.4597                48.2748

                     43                     44                     45
                      A                      A                      A
 Frequencies --   1354.6161              1362.2289              1364.5359
 Red. masses --      1.1801                 1.2609                 1.2584
 Frc consts  --      1.2758                 1.3786                 1.3805
 IR Inten    --     14.6026                 2.3836                 0.9400

                     46                     47                     48
                      A                      A                      A
 Frequencies --   1378.8161              1393.4752              1399.8869
 Red. masses --      1.2560                 1.3080                 1.3007
 Frc consts  --      1.4069                 1.4964                 1.5018
 IR Inten    --      7.3896                 9.2455                22.6741

                     49                     50                     51
                      A                      A                      A
 Frequencies --   1415.0831              1421.3408              1433.0231
 Red. masses --      1.3698                 1.4636                 1.2812
 Frc consts  --      1.6161                 1.7420                 1.5502
 IR Inten    --      7.1291                16.4154                23.4466

                     52                     53                     54
                      A                      A                      A
 Frequencies --   1444.6804              1497.8437              1505.4514
 Red. masses --      2.5848                 1.0768                 1.1472
 Frc consts  --      3.1785                 1.4234                 1.5319
 IR Inten    --    251.6441                 0.2260                10.6758

                     55                     56                     57
                      A                      A                      A
 Frequencies --   1507.8814              1511.9616              1522.4304
 Red. masses --      1.1171                 1.1029                 1.0778
 Frc consts  --      1.4965                 1.4854                 1.4719
 IR Inten    --      8.2732                17.9529                 0.2891

                     58                     59                     60
                      A                      A                      A
 Frequencies --   1522.8383              1534.0276              1536.8455
 Red. masses --      1.0830                 1.0695                 1.0815
 Frc consts  --      1.4797                 1.4829                 1.5049
 IR Inten    --      2.4216                 9.1739                 3.7114

                     61                     62                     63
                      A                      A                      A
 Frequencies --   1727.5573              1753.8024              2969.9496
 Red. masses --      1.1652                 6.1400                 1.0748
 Frc consts  --      2.0488                11.1270                 5.5856
 IR Inten    --     87.1878               214.4390                44.6871

                     64                     65                     66
                      A                      A                      A
 Frequencies --   2986.5059              3044.6040              3051.2071
 Red. masses --      1.0738                 1.0622                 1.0626
 Frc consts  --      5.6431                 5.8013                 5.8288
 IR Inten    --     70.1407                33.4745                40.7893

                     67                     68                     69
                      A                      A                      A
 Frequencies --   3053.9408              3097.2707              3099.7382
 Red. masses --      1.0360                 1.0656                 1.1026
 Frc consts  --      5.6930                 6.0226                 6.2421
 IR Inten    --     19.3813                10.7057                46.2196

                     70                     71                     72
                      A                      A                      A
 Frequencies --   3102.6923              3119.5738              3133.8146
 Red. masses --      1.1039                 1.0971                 1.1021
 Frc consts  --      6.2612                 6.2907                 6.3769
 IR Inten    --     43.8477                36.4739                 7.3596

                     73                     74                     75
                      A                      A                      A
 Frequencies --   3148.6899              3152.9805              3160.8466
 Red. masses --      1.0899                 1.1024                 1.0908
 Frc consts  --      6.3667                 6.4570                 6.4209
 IR Inten    --      7.8581                48.5649                 8.9260

                     76                     77                     78
                      A                      A                      A
 Frequencies --   3426.1846              3464.1432              3513.5924
 Red. masses --      1.0494                 1.0736                 1.0919
 Frc consts  --      7.2577                 7.5906                 7.9418
 IR Inten    --     10.7319                 2.3338                 2.6747

 - Thermochemistry -
 -------------------
 Temperature   298.150 Kelvin.  Pressure   1.00000 Atm.
 Atom     1 has atomic number  6 and mass  12.00000

 Molecular mass:   172.13241 amu.
 Principal axes and moments of inertia in atomic units:
                           1         2         3
     Eigenvalues --  1115.238472977.200403314.92728
           X            0.99979   0.01800   0.00936
           Y           -0.01814   0.99973   0.01477
           Z           -0.00909  -0.01493   0.99985
 This molecule is an asymmetric top.
 Rotational symmetry number  1.
 Warning -- assumption of classical behavior for rotation
           may cause significant error
 Rotational temperatures (Kelvin)      0.07766     0.02909     0.02613
 Rotational constants (GHZ):           1.61826     0.60619     0.54443
 Zero-point vibrational energy     657321.6 (Joules/Mol)
                                  157.10363 (Kcal/Mol)
 Warning -- explicit consideration of  18 degrees of freedom as
           vibrations may cause significant error
 Vibrational temperatures:     59.41    94.55   118.07   141.52   231.60
          (Kelvin)            305.39   347.48   389.07   395.56   418.22
                              468.34   503.84   586.84   605.97   683.22
                              700.33   780.65   809.16   918.07  1057.05
                             1124.97  1152.32  1170.21  1225.27  1256.41
                             1321.28  1344.18  1380.03  1447.27  1489.87
                             1502.24  1512.85  1582.27  1604.40  1656.97
                             1678.57  1739.99  1750.93  1752.36  1817.65
                             1849.76  1874.86  1948.99  1959.94  1963.26
                             1983.81  2004.90  2014.13  2035.99  2044.99
                             2061.80  2078.57  2155.06  2166.01  2169.51
                             2175.38  2190.44  2191.02  2207.12  2211.18
                             2485.57  2523.33  4273.09  4296.92  4380.51
                             4390.01  4393.94  4456.28  4459.83  4464.08
                             4488.37  4508.86  4530.26  4536.44  4547.75
                             4929.52  4984.13  5055.28

 Zero-point correction=                           0.250361 (Hartree/Particle)
 Thermal correction to Energy=                    0.262717
 Thermal correction to Enthalpy=                  0.263661
 Thermal correction to Gibbs Free Energy=         0.211558
 Sum of electronic and zero-point Energies=           -570.377484
 Sum of electronic and thermal Energies=              -570.365127
 Sum of electronic and thermal Enthalpies=            -570.364183
 Sum of electronic and thermal Free Energies=         -570.416287

                     E (Thermal)             CV                S
                      KCal/Mol        Cal/Mol-Kelvin    Cal/Mol-Kelvin
 Total                  164.857             46.660            109.661
 Electronic               0.000              0.000              0.000
 Translational            0.889              2.981             41.337
 Rotational               0.889              2.981             30.777
 Vibrational            163.080             40.698             37.547
 Vibration     1          0.594              1.981              5.196
 Vibration     2          0.597              1.971              4.278
 Vibration     3          0.600              1.961              3.841
 Vibration     4          0.604              1.950              3.486
 Vibration     5          0.622              1.890              2.538
 Vibration     6          0.643              1.822              2.024
 Vibration     7          0.658              1.777              1.792
 Vibration     8          0.674              1.728              1.594
 Vibration     9          0.677              1.720              1.565
 Vibration    10          0.687              1.691              1.470
 Vibration    11          0.710              1.624              1.282
 Vibration    12          0.727              1.575              1.165
 Vibration    13          0.772              1.453              0.934
 Vibration    14          0.784              1.424              0.888
 Vibration    15          0.832              1.306              0.724
 Vibration    16          0.843              1.279              0.692
 Vibration    17          0.898              1.156              0.560
 Vibration    18          0.918              1.113              0.519

 Optimization completed.
    -- Stationary point found.
 Normal termination of Gaussian 16 at Wed Dec  9 18:28:59 2020.

 ----------------------------------------------------------------------
 # B3LYP/6-311++G(d,p) empiricaldispersion=gd3bj scf=xqc pop=npa geom=c
 heck
 ----------------------------------------------------------------------

 ---------------------------------------
 CID_154200451_JID_2924_Energie_neutraal
 ---------------------------------------
 Structure from the checkpoint file:  "JID_2924.chk"
 Charge =  0 Multiplicity = 1

 SCF Done:  E(RB3LYP) =  -570.800727961     A.U. after   13 cycles
 Normal termination of Gaussian 16 at Wed Dec  9 18:32:11 2020.

 ----------------------------------------------------------------------
 # B3LYP/6-311++G(d,p) empiricaldispersion=gd3bj scf=xqc pop=npa geom=c
 heck
 ----------------------------------------------------------------------

 -------------------------------------
 CID_154200451_JID_2924_Energie_kation
 -------------------------------------
 Structure from the checkpoint file:  "JID_2924.chk"
 Charge =  1 Multiplicity = 2

 SCF Done:  E(UB3LYP) =  -570.501359406     A.U. after   23 cycles
 Normal termination of Gaussian 16 at Wed Dec  9 18:39:47 2020.
 Gaussian 16:  ES64L-G16RevA.03 25-Dec-2016

 ----------------------------------------------------------------------
 # B3LYP/6-311++G(d,p) empiricaldispersion=gd3bj scf=xqc pop=npa geom=c
 heck
 ----------------------------------------------------------------------

 ------------------------------------
 CID_154200451_JID_2924_Energie_anion
 ------------------------------------
 Structure from the checkpoint file:  "JID_2924.chk"
 Charge = -1 Multiplicity = 2

                         Standard orientation:
 ---------------------------------------------------------------------
 Center     Atomic      Atomic             Coordinates (Angstroms)
 Number     Number       Type             X           Y           Z
 ---------------------------------------------------------------------
      1          6           0        2.211064    1.337917    1.527168
      2          6           0        1.787674    1.408912    0.060806
      3          7           0        1.767731    0.090016   -0.604251
      4          6           0        0.815015   -0.851548   -0.167707
      5          8           0        1.133912   -1.984081    0.185051
      6          7           0       -0.491026   -0.397896   -0.142504
      7          6           0       -1.492015   -1.272953    0.466276
      8          6           0       -2.633610   -0.410645    1.018548
      9          7           0       -3.220306    0.504262    0.034095
     10          6           0       -2.185755    1.298080   -0.633160
     11          6           0       -1.044285    0.449143   -1.203215
     12          7           0        3.092152   -0.437461   -0.705294
     13          1           0        1.495314    0.747019    2.109960
     14          1           0        2.257542    2.342689    1.962138
     15          1           0        3.199768    0.878582    1.616421
     16          1           0        0.796162    1.858179   -0.020626
     17          1           0        2.483005    2.028174   -0.511099
     18          1           0       -1.881042   -1.985687   -0.280804
     19          1           0       -1.008817   -1.854987    1.252373
     20          1           0       -2.246694    0.195798    1.847561
     21          1           0       -3.427244   -1.050911    1.418853
     22          1           0       -3.716983   -0.043580   -0.669056
     23          1           0       -1.774288    2.001139    0.103199
     24          1           0       -2.651482    1.886894   -1.431150
     25          1           0       -0.255720    1.063323   -1.637258
     26          1           0       -1.439729   -0.194498   -2.009031
     27          1           0        3.134773   -1.241104   -0.073534
     28          1           0        3.175743   -0.824268   -1.644974
 ---------------------------------------------------------------------

 SCF Done:  E(UB3LYP) =  -570.786386986     A.U. after   30 cycles

 The electronic state is 2-A.
 Alpha  occ. eigenvalues --  -18.99274 -14.25288 -14.23514 -14.22729 -14.19664
 Alpha  occ. eigenvalues --  -10.19155 -10.10353 -10.09993 -10.09670 -10.09333
 Alpha  occ. eigenvalues --  -10.09095 -10.06408  -0.96035  -0.87361  -0.84947
 Alpha  occ. eigenvalues --   -0.79546  -0.71426  -0.66763  -0.64525  -0.59568
 Alpha  occ. eigenvalues --   -0.54817  -0.53543  -0.50131  -0.46146  -0.43732
 Alpha  occ. eigenvalues --   -0.40716  -0.38446  -0.37127  -0.36692  -0.35735
 Alpha  occ. eigenvalues --   -0.35196  -0.34003  -0.32853  -0.31940  -0.31016
 Alpha  occ. eigenvalues --   -0.29523  -0.28646  -0.27366  -0.25898  -0.25767
 Alpha  occ. eigenvalues --   -0.25051  -0.24577  -0.18754  -0.18142  -0.15644
 Alpha  occ. eigenvalues --   -0.14468  -0.12180   0.04589
 Alpha virt. eigenvalues --    0.06634   0.07381   0.07783   0.08990   0.09309
 Alpha virt. eigenvalues --    0.09975   0.10408   0.10961   0.11710   0.12153
 Alpha virt. eigenvalues --    0.12412   0.12965   0.13119   0.14460   0.14928

  Beta  occ. eigenvalues --  -18.99257 -14.25283 -14.23518 -14.22707 -14.19638
  Beta  occ. eigenvalues --  -10.19140 -10.10337 -10.09962 -10.09652 -10.09315
  Beta  occ. eigenvalues --  -10.09065 -10.06387  -0.96007  -0.87334  -0.84923
  Beta  occ. eigenvalues --   -0.79499  -0.71388  -0.66720  -0.64488  -0.59523
  Beta  occ. eigenvalues --   -0.54756  -0.53490  -0.50060  -0.46090  -0.43697
  Beta  occ. eigenvalues --   -0.40672  -0.38410  -0.37072  -0.36631  -0.35703
  Beta  occ. eigenvalues --   -0.35160  -0.33969  -0.32825  -0.31904  -0.30977
  Beta  occ. eigenvalues --   -0.29478  -0.28580  -0.27319  -0.25857  -0.25725
  Beta  occ. eigenvalues --   -0.25003  -0.24534  -0.18721  -0.18118  -0.15609
  Beta  occ. eigenvalues --   -0.14440  -0.12139
  Beta virt. eigenvalues --    0.06831   0.07734   0.08008   0.08527   0.09493
  Beta virt. eigenvalues --    0.09812   0.10439   0.10846   0.11260   0.12168
  Beta virt. eigenvalues --    0.12466   0.12833   0.13250   0.13612   0.14736

 Mulliken charges and spin densities:
               1          2
     1  C    0.402617  -0.946584
     2  C   -0.288057   0.141056
     3  N   -0.130196   0.125117
     4  C   -0.117724  -0.069358
     5  O   -0.352309   0.014568
     6  N   -0.056740   0.112729
     7  C    0.246548  -0.304807
     8  C    0.505346  -1.058324
     9  N   -0.436839   0.333149
    10  C    1.840789  -2.244600
    11  C   -0.543385   0.253045
    12  N   -0.225351  -0.074405
    13  H    0.034167   0.124505
    14  H   -0.383137   0.535054
    15  H    0.154106  -0.011820
    16  H    0.364471  -0.258300
    17  H   -0.318046   0.501895
    18  H   -0.204785   0.379457
    19  H    0.131839   0.037734
    20  H    0.059539   0.091766
    21  H   -0.240735   0.423848
    22  H   -0.158187   0.396088
    23  H   -0.179307   0.348511
    24  H   -0.432432   0.622898
    25  H   -0.391200   0.571326
    26  H   -0.494166   0.680572
    27  H    0.160384   0.075541
    28  H    0.052791   0.199343
 Sum of Mulliken charges =  -1.00000   1.00000

 Dipole moment (field-independent basis, Debye):
    X=              3.3688    Y=             -1.3710    Z=              2.6887  Tot=              4.5230
 Quadrupole moment (field-independent basis, Debye-Ang):
   XX=           -140.3720   YY=           -117.1919   ZZ=           -110.9463
   XY=             -2.1801   XZ=             -7.1272   YZ=              0.8144

 Summary of Natural Population Analysis:

                                       Natural Population
                Natural  -----------------------------------------------
    Atom  No    Charge         Core      Valence    Rydberg      Total
 -----------------------------------------------------------------------
      C    1   -0.29758      0.99966     2.29257    0.00534     3.29758
      C    2   -0.08180      0.99961     2.07112    0.01108     3.08180
      N    3   -0.19730      0.99967     2.68415    0.01349     3.69730
      C    4    0.41801      0.99963     1.55787    0.02449     2.58199
      O    5   -0.33621      0.99988     3.33122    0.00512     4.33621
      N    6   -0.27526      0.99964     2.76456    0.01106     3.77526
      C    7   -0.09298      0.99961     2.08217    0.01120     3.09298
      C    8   -0.09249      0.99962     2.08109    0.01178     3.09249
      N    9   -0.33558      0.99976     2.82220    0.01361     3.83558
      C   10   -0.09304      0.99962     2.08106    0.01236     3.09304
      C   11   -0.09450      0.99960     2.08286    0.01204     3.09450
      N   12   -0.32570      0.99977     2.81440    0.01153     3.82570
      H   13    0.09850      0.00000     0.40047    0.00103     0.40150
      H   14    0.10140      0.00000     0.39737    0.00123     0.39860
      H   15    0.10192      0.00000     0.39703    0.00105     0.39808
      H   16    0.09814      0.00000     0.39981    0.00205     0.40186
      H   17    0.09866      0.00000     0.39994    0.00140     0.40134
      H   18    0.08981      0.00000     0.40854    0.00165     0.41019
      H   19    0.11037      0.00000     0.38864    0.00099     0.38963
      H   20    0.09006      0.00000     0.40841    0.00153     0.40994
      H   21    0.09735      0.00000     0.40162    0.00103     0.40265
      H   22    0.17287      0.00000     0.32270    0.00443     0.32713
      H   23    0.08975      0.00000     0.40841    0.00184     0.41025
      H   24    0.10097      0.00000     0.39710    0.00193     0.39903
      H   25    0.10827      0.00000     0.38931    0.00242     0.39173
      H   26    0.09118      0.00000     0.40576    0.00306     0.40882
      H   27    0.18044      0.00000     0.31761    0.00195     0.31956
      H   28    0.17473      0.00000     0.32349    0.00177     0.32527
 =======================================================================
   * Total *   -0.00000     11.99607    34.83149    0.17244    47.00000

 Normal termination of Gaussian 16 at Wed Dec  9 18:49:10 2020.
