 Gaussian 16, Revision A.03,

 -----------------------------------------------------------
 # opt freq B3LYP/6-31G(d) empiricaldispersion=gd3bj scf=xqc
 -----------------------------------------------------------

 -------------------------------
 CID_154306067_JID_6389_neutraal
 -------------------------------
 Symbolic Z-matrix:
 Charge =  0 Multiplicity = 1

 SCF Done:  E(RB3LYP) =  -1106.81615699     A.U. after   14 cycles
 SCF Done:  E(RB3LYP) =  -1106.81936081     A.U. after   13 cycles
 SCF Done:  E(RB3LYP) =  -1106.81741479     A.U. after   13 cycles
 SCF Done:  E(RB3LYP) =  -1106.82202096     A.U. after   12 cycles
 SCF Done:  E(RB3LYP) =  -1106.82321554     A.U. after   14 cycles
 SCF Done:  E(RB3LYP) =  -1106.82438810     A.U. after   12 cycles
 SCF Done:  E(RB3LYP) =  -1106.82449754     A.U. after   12 cycles
 SCF Done:  E(RB3LYP) =  -1106.82465117     A.U. after   11 cycles
 SCF Done:  E(RB3LYP) =  -1106.82466338     A.U. after   10 cycles
 SCF Done:  E(RB3LYP) =  -1106.82466583     A.U. after    8 cycles
 SCF Done:  E(RB3LYP) =  -1106.82466726     A.U. after    8 cycles
 SCF Done:  E(RB3LYP) =  -1106.82466736     A.U. after    7 cycles
 SCF Done:  E(RB3LYP) =  -1106.82466742     A.U. after    7 cycles
 SCF Done:  E(RB3LYP) =  -1106.82466749     A.U. after    7 cycles
 SCF Done:  E(RB3LYP) =  -1106.82466754     A.U. after    7 cycles
 Optimization completed.
    -- Stationary point found.
 Normal termination of Gaussian 16 at Thu Dec 10 22:33:55 2020.

 --------------------------------------------------------------------
 #N Geom=AllCheck Guess=TCheck SCRF=Check GenChk RB3LYP/6-31G(d) Freq
 --------------------------------------------------------------------

 Structure from the checkpoint file:  "JID_6389.chk"
 -------------------------------
 CID_154306067_JID_6389_neutraal
 -------------------------------
 Charge =  0 Multiplicity = 1

 SCF Done:  E(RB3LYP) =  -1106.82466754     A.U. after    1 cycles

  Exact polarizability: 156.383 -11.777 164.519 -18.503  -3.009 104.397
 Approx polarizability: 224.258 -19.769 258.521 -35.331 -10.904 179.452

                      1                      2                      3
                      A                      A                      A
 Frequencies --     35.2216                41.7372                81.2177
 Red. masses --      4.9256                 4.5820                 3.7689
 Frc consts  --      0.0036                 0.0047                 0.0146
 IR Inten    --      1.9413                 0.3440                 0.7862

                      4                      5                      6
                      A                      A                      A
 Frequencies --     94.2303               145.1316               159.9904
 Red. masses --      5.0329                 4.8372                 6.1994
 Frc consts  --      0.0263                 0.0600                 0.0935
 IR Inten    --      1.6502                 3.9942                 3.3366

                      7                      8                      9
                      A                      A                      A
 Frequencies --    165.8713               224.9564               287.9887
 Red. masses --      3.6210                 6.0087                 4.2222
 Frc consts  --      0.0587                 0.1792                 0.2063
 IR Inten    --      1.2883                 1.0130                 2.5574

                     10                     11                     12
                      A                      A                      A
 Frequencies --    300.9128               320.3966               351.3213
 Red. masses --      2.8979                 2.2897                 3.0101
 Frc consts  --      0.1546                 0.1385                 0.2189
 IR Inten    --      3.4260                 0.0277                 0.1290

                     13                     14                     15
                      A                      A                      A
 Frequencies --    395.3387               426.8056               446.8902
 Red. masses --      3.4484                 3.2331                 3.1819
 Frc consts  --      0.3175                 0.3470                 0.3744
 IR Inten    --     26.6719                 4.1028                 1.0058

                     16                     17                     18
                      A                      A                      A
 Frequencies --    454.7510               464.5486               473.5078
 Red. masses --      3.5806                 5.4138                 4.0003
 Frc consts  --      0.4363                 0.6884                 0.5284
 IR Inten    --     12.1494                12.7047                 6.6948

                     19                     20                     21
                      A                      A                      A
 Frequencies --    501.7748               515.7601               534.8149
 Red. masses --      4.3537                 1.4169                 2.6218
 Frc consts  --      0.6458                 0.2221                 0.4418
 IR Inten    --     14.7646               121.6851                 3.8764

                     22                     23                     24
                      A                      A                      A
 Frequencies --    552.4078               574.5224               610.4330
 Red. masses --      3.1588                 3.7679                 2.5173
 Frc consts  --      0.5679                 0.7328                 0.5527
 IR Inten    --      6.6337                 6.4444                 2.4653

                     25                     26                     27
                      A                      A                      A
 Frequencies --    689.0742               711.5448               730.4251
 Red. masses --      5.9597                 4.1699                 4.0532
 Frc consts  --      1.6673                 1.2439                 1.2741
 IR Inten    --     44.3388                 3.1307                 1.5763

                     28                     29                     30
                      A                      A                      A
 Frequencies --    762.5903               802.0558               815.1402
 Red. masses --      1.2875                 4.2179                 5.0307
 Frc consts  --      0.4412                 1.5987                 1.9694
 IR Inten    --     64.9024                36.9907                86.5627

                     31                     32                     33
                      A                      A                      A
 Frequencies --    857.5813               879.5737               898.6647
 Red. masses --      1.3509                 2.2235                 1.5785
 Frc consts  --      0.5853                 1.0135                 0.7511
 IR Inten    --     15.9714                 8.9627                 2.4102

                     34                     35                     36
                      A                      A                      A
 Frequencies --    909.3959               943.1935               950.6604
 Red. masses --      2.1636                 1.4372                 2.1555
 Frc consts  --      1.0542                 0.7533                 1.1478
 IR Inten    --      8.0387                 6.7420                22.3758

                     37                     38                     39
                      A                      A                      A
 Frequencies --    958.4131               972.4119              1019.8437
 Red. masses --      2.1222                 1.2414                 2.4711
 Frc consts  --      1.1485                 0.6916                 1.5143
 IR Inten    --     10.5828                 1.0305                17.3565

                     40                     41                     42
                      A                      A                      A
 Frequencies --   1061.9107              1072.2798              1098.1014
 Red. masses --      1.9205                 3.3331                 2.1907
 Frc consts  --      1.2760                 2.2579                 1.5564
 IR Inten    --      3.6670                 7.2326                10.1255

                     43                     44                     45
                      A                      A                      A
 Frequencies --   1111.5616              1138.8976              1150.2040
 Red. masses --      1.7929                 2.9897                 3.2218
 Frc consts  --      1.3052                 2.2848                 2.5113
 IR Inten    --      5.6787                50.2793               108.3474

                     46                     47                     48
                      A                      A                      A
 Frequencies --   1180.9063              1202.3988              1211.7248
 Red. masses --      1.4527                 1.2160                 1.3513
 Frc consts  --      1.1936                 1.0358                 1.1690
 IR Inten    --     51.5279                 2.2709                 2.1968

                     49                     50                     51
                      A                      A                      A
 Frequencies --   1223.6956              1226.5414              1246.7408
 Red. masses --      1.3245                 1.4491                 1.6100
 Frc consts  --      1.1686                 1.2844                 1.4745
 IR Inten    --     47.4699                 0.6019                19.3172

                     52                     53                     54
                      A                      A                      A
 Frequencies --   1264.8438              1279.2308              1302.8335
 Red. masses --      2.1640                 1.4342                 1.3416
 Frc consts  --      2.0397                 1.3828                 1.3417
 IR Inten    --     53.2003                35.0727                 1.6853

                     55                     56                     57
                      A                      A                      A
 Frequencies --   1339.3683              1346.8653              1353.4361
 Red. masses --      1.7239                 1.4441                 3.6405
 Frc consts  --      1.8221                 1.5434                 3.9290
 IR Inten    --     72.2716                 6.9115                29.7805

                     58                     59                     60
                      A                      A                      A
 Frequencies --   1382.6262              1386.9118              1398.6134
 Red. masses --      2.9366                 1.5551                 1.4877
 Frc consts  --      3.3075                 1.7624                 1.7146
 IR Inten    --     94.2788                19.8487                11.3527

                     61                     62                     63
                      A                      A                      A
 Frequencies --   1402.6002              1411.7089              1455.8905
 Red. masses --      1.4938                 1.4642                 1.6465
 Frc consts  --      1.7314                 1.7192                 2.0562
 IR Inten    --     56.9607                99.3160                 8.6227

                     64                     65                     66
                      A                      A                      A
 Frequencies --   1477.7694              1504.2289              1507.8723
 Red. masses --      1.0900                 1.8373                 1.2575
 Frc consts  --      1.4025                 2.4493                 1.6846
 IR Inten    --      5.5443                33.3913                 2.1313

                     67                     68                     69
                      A                      A                      A
 Frequencies --   1517.7065              1523.5424              1544.3755
 Red. masses --      1.1586                 1.1146                 1.2397
 Frc consts  --      1.5724                 1.5243                 1.7421
 IR Inten    --      7.8520                11.9072                15.9513

                     70                     71                     72
                      A                      A                      A
 Frequencies --   1560.3291              1632.7985              1664.8208
 Red. masses --      1.9233                 5.7625                 5.5584
 Frc consts  --      2.7589                 9.0516                 9.0768
 IR Inten    --    113.3041                12.7346                63.9798

                     73                     74                     75
                      A                      A                      A
 Frequencies --   2979.1312              3022.5933              3046.3975
 Red. masses --      1.0720                 1.0696                 1.0742
 Frc consts  --      5.6055                 5.7573                 5.8738
 IR Inten    --     50.7679                25.7565                35.5977

                     76                     77                     78
                      A                      A                      A
 Frequencies --   3058.3615              3076.2578              3083.0328
 Red. masses --      1.0640                 1.0897                 1.0902
 Frc consts  --      5.8639                 6.0755                 6.1054
 IR Inten    --     10.3508                49.7941                41.4707

                     79                     80                     81
                      A                      A                      A
 Frequencies --   3093.0652              3107.4952              3148.1847
 Red. masses --      1.0610                 1.1056                 1.0986
 Frc consts  --      5.9805                 6.2905                 6.4153
 IR Inten    --      5.2854                35.6464                 0.4818

                     82                     83                     84
                      A                      A                      A
 Frequencies --   3160.4725              3174.4398              3196.7235
 Red. masses --      1.0968                 1.0884                 1.0883
 Frc consts  --      6.4547                 6.4618                 6.5523
 IR Inten    --      5.9457                14.7264                 8.0621

                     85                     86                     87
                      A                      A                      A
 Frequencies --   3216.3899              3245.3065              3474.1905
 Red. masses --      1.0958                 1.0899                 1.0668
 Frc consts  --      6.6792                 6.7630                 7.5866
 IR Inten    --     24.0669                 1.3768               518.1012

 - Thermochemistry -
 -------------------
 Temperature   298.150 Kelvin.  Pressure   1.00000 Atm.
 Atom     1 has atomic number  6 and mass  12.00000

 Molecular mass:   241.07727 amu.
 Principal axes and moments of inertia in atomic units:
                           1         2         3
     Eigenvalues --  2361.413564677.821495963.07849
           X            0.99985  -0.00175  -0.01743
           Y            0.00176   1.00000   0.00045
           Z            0.01743  -0.00048   0.99985
 This molecule is an asymmetric top.
 Rotational symmetry number  1.
 Warning -- assumption of classical behavior for rotation
           may cause significant error
 Rotational temperatures (Kelvin)      0.03668     0.01852     0.01453
 Rotational constants (GHZ):           0.76426     0.38581     0.30265
 Zero-point vibrational energy     671861.5 (Joules/Mol)
                                  160.57876 (Kcal/Mol)
 Warning -- explicit consideration of  24 degrees of freedom as
           vibrations may cause significant error
 Vibrational temperatures:     50.68    60.05   116.85   135.58   208.81
          (Kelvin)            230.19   238.65   323.66   414.35   432.95
                              460.98   505.47   568.80   614.08   642.98
                              654.29   668.38   681.27   721.94   742.06
                              769.48   794.79   826.61   878.28   991.42
                             1023.75  1050.92  1097.20  1153.98  1172.80
                             1233.87  1265.51  1292.98  1308.42  1357.05
                             1367.79  1378.94  1399.08  1467.33  1527.85
                             1542.77  1579.92  1599.29  1638.62  1654.89
                             1699.06  1729.98  1743.40  1760.63  1764.72
                             1793.78  1819.83  1840.53  1874.49  1927.05
                             1937.84  1947.29  1989.29  1995.46  2012.29
                             2018.03  2031.13  2094.70  2126.18  2164.25
                             2169.49  2183.64  2192.04  2222.01  2244.97
                             2349.23  2395.31  4286.31  4348.84  4383.09
                             4400.30  4426.05  4435.80  4450.23  4470.99
                             4529.54  4547.21  4567.31  4599.37  4627.67
                             4669.27  4998.59

 Zero-point correction=                           0.255899 (Hartree/Particle)
 Thermal correction to Energy=                    0.270157
 Thermal correction to Enthalpy=                  0.271102
 Thermal correction to Gibbs Free Energy=         0.214133
 Sum of electronic and zero-point Energies=          -1106.568769
 Sum of electronic and thermal Energies=             -1106.554510
 Sum of electronic and thermal Enthalpies=           -1106.553566
 Sum of electronic and thermal Free Energies=        -1106.610534

                     E (Thermal)             CV                S
                      KCal/Mol        Cal/Mol-Kelvin    Cal/Mol-Kelvin
 Total                  169.526             56.465            119.900
 Electronic               0.000              0.000              0.000
 Translational            0.889              2.981             42.341
 Rotational               0.889              2.981             32.554
 Vibrational            167.749             50.504             45.005
 Vibration     1          0.594              1.982              5.511
 Vibration     2          0.594              1.980              5.175
 Vibration     3          0.600              1.962              3.861
 Vibration     4          0.603              1.953              3.570
 Vibration     5          0.617              1.908              2.735
 Vibration     6          0.622              1.891              2.550
 Vibration     7          0.624              1.884              2.482
 Vibration     8          0.650              1.803              1.919
 Vibration     9          0.685              1.696              1.486
 Vibration    10          0.693              1.672              1.412
 Vibration    11          0.706              1.635              1.308
 Vibration    12          0.728              1.573              1.160
 Vibration    13          0.762              1.480              0.980
 Vibration    14          0.788              1.412              0.869
 Vibration    15          0.806              1.368              0.805
 Vibration    16          0.813              1.350              0.782
 Vibration    17          0.822              1.329              0.753
 Vibration    18          0.830              1.309              0.728
 Vibration    19          0.857              1.246              0.654
 Vibration    20          0.871              1.215              0.620
 Vibration    21          0.890              1.173              0.577
 Vibration    22          0.908              1.134              0.539
 Vibration    23          0.931              1.086              0.496
 Vibration    24          0.969              1.010              0.432

 Optimization completed.
    -- Stationary point found.
 Normal termination of Gaussian 16 at Thu Dec 10 22:45:41 2020.

 ----------------------------------------------------------------------
 # B3LYP/6-311++G(d,p) empiricaldispersion=gd3bj scf=xqc pop=npa geom=c
 heck
 ----------------------------------------------------------------------

 ---------------------------------------
 CID_154306067_JID_6389_Energie_neutraal
 ---------------------------------------
 Structure from the checkpoint file:  "JID_6389.chk"
 Charge =  0 Multiplicity = 1

 SCF Done:  E(RB3LYP) =  -1107.05145252     A.U. after   15 cycles
 Normal termination of Gaussian 16 at Thu Dec 10 22:50:52 2020.

 ----------------------------------------------------------------------
 # B3LYP/6-311++G(d,p) empiricaldispersion=gd3bj scf=xqc pop=npa geom=c
 heck
 ----------------------------------------------------------------------

 -------------------------------------
 CID_154306067_JID_6389_Energie_kation
 -------------------------------------
 Structure from the checkpoint file:  "JID_6389.chk"
 Charge =  1 Multiplicity = 2

 SCF Done:  E(UB3LYP) =  -1106.77591829     A.U. after   21 cycles
 Normal termination of Gaussian 16 at Thu Dec 10 23:02:39 2020.
 Gaussian 16:  ES64L-G16RevA.03 25-Dec-2016

 ----------------------------------------------------------------------
 # B3LYP/6-311++G(d,p) empiricaldispersion=gd3bj scf=xqc pop=npa geom=c
 heck
 ----------------------------------------------------------------------

 ------------------------------------
 CID_154306067_JID_6389_Energie_anion
 ------------------------------------
 Structure from the checkpoint file:  "JID_6389.chk"
 Charge = -1 Multiplicity = 2

                         Standard orientation:
 ---------------------------------------------------------------------
 Center     Atomic      Atomic             Coordinates (Angstroms)
 Number     Number       Type             X           Y           Z
 ---------------------------------------------------------------------
      1          6           0        2.429498    2.363921   -0.099877
      2          6           0        2.904295    1.137606   -0.875595
      3          6           0        2.314882   -0.135129   -0.306311
      4          6           0        2.942357   -1.355179   -0.551917
      5          6           0        2.435940   -2.566128   -0.080862
      6          6           0        1.265874   -2.543837    0.670795
      7          6           0        0.617521   -1.338274    0.946574
      8          6           0        1.125402   -0.108683    0.469490
      9          7           0        0.493458    1.107096    0.746136
     10          6           0        0.912160    2.309933    0.033713
     11          6           0       -0.799842    1.197707    1.391390
     12          6           0       -2.015750    1.302076    0.452043
     13         16           0       -2.547381   -0.240185   -0.328482
     14          8           0       -2.622847   -1.269094    0.710657
     15          8           0       -3.681228    0.062561   -1.187285
     16          8           0       -1.310302   -0.588079   -1.330221
     17          1           0        2.723000    3.287887   -0.609292
     18          1           0        2.875688    2.377122    0.901584
     19          1           0        2.608050    1.242804   -1.929516
     20          1           0        3.998410    1.074371   -0.869341
     21          1           0        3.856531   -1.348021   -1.141700
     22          1           0        2.943339   -3.500269   -0.298634
     23          1           0        0.835532   -3.465253    1.052174
     24          1           0       -0.292507   -1.373867    1.530824
     25          1           0        0.545804    3.173766    0.599892
     26          1           0        0.453545    2.358263   -0.968549
     27          1           0       -0.943354    0.370057    2.086402
     28          1           0       -0.803331    2.112471    1.997836
     29          1           0       -2.897399    1.620489    1.017497
     30          1           0       -1.854371    2.016337   -0.358713
     31          1           0       -0.624054   -1.080056   -0.819578
 ---------------------------------------------------------------------

 SCF Done:  E(UB3LYP) =  -1107.04543276     A.U. after   33 cycles
 SCF Done:  E(UB3LYP) =  -1107.04543276     a.u. after    1 cycles

 The electronic state is 2-A.
 Alpha  occ. eigenvalues --  -88.98837 -19.08202 -19.03725 -19.03533 -14.24283
 Alpha  occ. eigenvalues --  -10.13190 -10.12844 -10.12366 -10.10543 -10.08791
 Alpha  occ. eigenvalues --  -10.08726 -10.08423 -10.08063 -10.08036 -10.07884
 Alpha  occ. eigenvalues --  -10.07426  -8.04928  -6.01330  -6.01135  -6.00942
 Alpha  occ. eigenvalues --   -1.06025  -0.95061  -0.93125  -0.86864  -0.76571
 Alpha  occ. eigenvalues --   -0.72231  -0.70018  -0.66470  -0.64973  -0.60914
 Alpha  occ. eigenvalues --   -0.56888  -0.54472  -0.53846  -0.50836  -0.46407
 Alpha  occ. eigenvalues --   -0.45727  -0.43862  -0.42069  -0.40470  -0.40124
 Alpha  occ. eigenvalues --   -0.39553  -0.38123  -0.35867  -0.35405  -0.34820
 Alpha  occ. eigenvalues --   -0.33928  -0.33346  -0.32195  -0.32076  -0.30643
 Alpha  occ. eigenvalues --   -0.29684  -0.29116  -0.28065  -0.27247  -0.25545
 Alpha  occ. eigenvalues --   -0.25262  -0.24278  -0.23957  -0.23740  -0.22844
 Alpha  occ. eigenvalues --   -0.22345  -0.20510  -0.16345  -0.10965   0.04008
 Alpha virt. eigenvalues --    0.06282   0.06459   0.06859   0.08117   0.08413
 Alpha virt. eigenvalues --    0.08628   0.08928   0.10076   0.10336   0.10600
 Alpha virt. eigenvalues --    0.11102   0.11582   0.12605   0.13353   0.13679

  Beta  occ. eigenvalues --  -88.98833 -19.08176 -19.03716 -19.03529 -14.24286
  Beta  occ. eigenvalues --  -10.13184 -10.12811 -10.12333 -10.10498 -10.08768
  Beta  occ. eigenvalues --  -10.08692 -10.08400 -10.08048 -10.08028 -10.07888
  Beta  occ. eigenvalues --  -10.07394  -8.04925  -6.01324  -6.01132  -6.00939
  Beta  occ. eigenvalues --   -1.05994  -0.95013  -0.93107  -0.86844  -0.76530
  Beta  occ. eigenvalues --   -0.72179  -0.69966  -0.66416  -0.64924  -0.60860
  Beta  occ. eigenvalues --   -0.56836  -0.54430  -0.53775  -0.50781  -0.46351
  Beta  occ. eigenvalues --   -0.45686  -0.43827  -0.42026  -0.40431  -0.40081
  Beta  occ. eigenvalues --   -0.39522  -0.38090  -0.35827  -0.35355  -0.34791
  Beta  occ. eigenvalues --   -0.33885  -0.33294  -0.32143  -0.32024  -0.30594
  Beta  occ. eigenvalues --   -0.29648  -0.29052  -0.28032  -0.27212  -0.25514
  Beta  occ. eigenvalues --   -0.25201  -0.24246  -0.23923  -0.23703  -0.22816
  Beta  occ. eigenvalues --   -0.22328  -0.20453  -0.16194  -0.10915
  Beta virt. eigenvalues --    0.06197   0.06676   0.07241   0.07512   0.08326
  Beta virt. eigenvalues --    0.08925   0.09136   0.09293   0.10510   0.10575
  Beta virt. eigenvalues --    0.11090   0.11470   0.11930   0.12926   0.13537

 Mulliken charges and spin densities:
               1          2
     1  C    0.695327  -1.206822
     2  C    0.796116  -1.348280
     3  C   -0.208239   0.693439
     4  C    0.076861  -0.258710
     5  C   -0.512666   0.079677
     6  C    0.454219  -0.735719
     7  C   -0.371227   0.070175
     8  C   -0.693525   0.482839
     9  N    0.257170   0.083981
    10  C    0.613664  -0.791278
    11  C   -0.149485  -0.012267
    12  C   -0.063619  -0.733035
    13  S    0.532325  -0.191441
    14  O   -0.187244  -0.012446
    15  O   -0.168008   0.029375
    16  O   -0.250873   0.028497
    17  H   -0.654444   0.853347
    18  H    0.112962   0.044758
    19  H    0.002741   0.185677
    20  H   -0.010832   0.149997
    21  H   -0.113412   0.276985
    22  H    0.050263   0.087109
    23  H    0.139974   0.017030
    24  H    0.171112  -0.000904
    25  H   -0.703116   0.906603
    26  H    0.182386  -0.047216
    27  H    0.031411   0.164887
    28  H   -0.872533   1.102502
    29  H   -0.323964   0.562283
    30  H   -0.216234   0.494972
    31  H    0.382889   0.023986
 Sum of Mulliken charges =  -1.00000   1.00000

 Dipole moment (field-independent basis, Debye):
    X=              2.2497    Y=             -7.3437    Z=             -0.0860  Tot=              7.6811
 Quadrupole moment (field-independent basis, Debye-Ang):
   XX=           -162.8523   YY=           -165.0992   ZZ=           -138.3975
   XY=             -4.5508   XZ=              0.9311   YZ=             -6.0196

 Summary of Natural Population Analysis:

                                       Natural Population
                Natural  -----------------------------------------------
    Atom  No    Charge         Core      Valence    Rydberg      Total
 -----------------------------------------------------------------------
      C    1   -0.19025      0.99963     2.18188    0.00874     3.19025
      C    2   -0.19462      0.99960     2.18620    0.00883     3.19462
      C    3   -0.03254      0.99948     2.02277    0.01029     3.03254
      C    4   -0.08420      0.99952     2.07604    0.00864     3.08420
      C    5   -0.12858      0.99956     2.11862    0.01040     3.12858
      C    6   -0.08880      0.99957     2.07954    0.00969     3.08880
      C    7   -0.16286      0.99954     2.15436    0.00895     3.16286
      C    8    0.09773      0.99944     1.89136    0.01148     2.90227
      N    9   -0.25477      0.99965     2.74140    0.01372     3.75477
      C   10   -0.08185      0.99960     2.07013    0.01211     3.08185
      C   11   -0.09296      0.99959     2.07927    0.01409     3.09296
      C   12   -0.29800      0.99956     2.28487    0.01357     3.29800
      S   13    1.12600      4.99936     1.77145    0.10318     6.87400
      O   14   -0.46351      0.99990     3.45781    0.00580     4.46351
      O   15   -0.45111      0.99990     3.44543    0.00578     4.45111
      O   16   -0.44177      0.99991     3.43549    0.00637     4.44177
      H   17    0.10661      0.00000     0.39120    0.00219     0.39339
      H   18    0.09790      0.00000     0.40064    0.00146     0.40210
      H   19    0.10461      0.00000     0.39399    0.00140     0.39539
      H   20    0.10249      0.00000     0.39648    0.00103     0.39751
      H   21    0.09831      0.00000     0.40075    0.00094     0.40169
      H   22    0.09888      0.00000     0.40036    0.00076     0.40112
      H   23    0.09997      0.00000     0.39926    0.00077     0.40003
      H   24    0.11367      0.00000     0.38468    0.00165     0.38633
      H   25    0.10646      0.00000     0.38909    0.00445     0.39354
      H   26    0.08925      0.00000     0.40870    0.00204     0.41075
      H   27    0.10653      0.00000     0.39164    0.00183     0.39347
      H   28    0.11299      0.00000     0.38335    0.00366     0.38701
      H   29    0.12363      0.00000     0.37457    0.00181     0.37637
      H   30    0.12221      0.00000     0.37641    0.00137     0.37779
      H   31    0.25858      0.00000     0.23745    0.00398     0.24142
 =======================================================================
   * Total *    0.00000     19.99381    43.72520    0.28098    64.00000

 Normal termination of Gaussian 16 at Thu Dec 10 23:18:51 2020.
