 Gaussian 16, Revision A.03,

 -----------------------------------------------------------
 # opt freq B3LYP/6-31G(d) empiricaldispersion=gd3bj scf=xqc
 -----------------------------------------------------------

 -------------------------------
 CID_103339554_JID_8012_neutraal
 -------------------------------
 Symbolic Z-matrix:
 Charge =  0 Multiplicity = 1

 SCF Done:  E(RB3LYP) =  -1561.47207613     A.U. after   15 cycles
 SCF Done:  E(RB3LYP) =  -1561.48193866     A.U. after   12 cycles
 SCF Done:  E(RB3LYP) =  -1561.48312247     A.U. after   14 cycles
 SCF Done:  E(RB3LYP) =  -1561.48437854     A.U. after   12 cycles
 SCF Done:  E(RB3LYP) =  -1561.48536888     A.U. after   12 cycles
 SCF Done:  E(RB3LYP) =  -1561.48603016     A.U. after   14 cycles
 SCF Done:  E(RB3LYP) =  -1561.48705862     A.U. after   12 cycles
 SCF Done:  E(RB3LYP) =  -1561.48755773     A.U. after   12 cycles
 SCF Done:  E(RB3LYP) =  -1561.48794383     A.U. after   12 cycles
 SCF Done:  E(RB3LYP) =  -1561.48822553     A.U. after   12 cycles
 SCF Done:  E(RB3LYP) =  -1561.48849274     A.U. after   10 cycles
 SCF Done:  E(RB3LYP) =  -1561.48849493     A.U. after   10 cycles
 SCF Done:  E(RB3LYP) =  -1561.48849533     A.U. after    8 cycles
 SCF Done:  E(RB3LYP) =  -1561.48849536     A.U. after    7 cycles
 SCF Done:  E(RB3LYP) =  -1561.48849537     A.U. after    6 cycles
 Optimization completed.
    -- Stationary point found.
 Normal termination of Gaussian 16 at Fri Dec 11 18:43:00 2020.

 --------------------------------------------------------------------
 #N Geom=AllCheck Guess=TCheck SCRF=Check GenChk RB3LYP/6-31G(d) Freq
 --------------------------------------------------------------------

 Structure from the checkpoint file:  "JID_8012.chk"
 -------------------------------
 CID_103339554_JID_8012_neutraal
 -------------------------------
 Charge =  0 Multiplicity = 1

 SCF Done:  E(RB3LYP) =  -1561.48849537     A.U. after    1 cycles

  Exact polarizability: 217.284   5.592 167.565 -12.378  10.854 121.781
 Approx polarizability: 302.569  23.634 270.617 -24.157  30.590 203.014

                      1                      2                      3
                      A                      A                      A
 Frequencies --     22.0771                30.1861                46.5778
 Red. masses --      4.5985                 5.0977                 4.9176
 Frc consts  --      0.0013                 0.0027                 0.0063
 IR Inten    --      0.5585                 0.6802                 1.1275

                      4                      5                      6
                      A                      A                      A
 Frequencies --     56.3113                73.0931                75.6211
 Red. masses --      3.0717                 4.6212                 3.4086
 Frc consts  --      0.0057                 0.0145                 0.0115
 IR Inten    --      0.6919                 0.6303                 3.0986

                      7                      8                      9
                      A                      A                      A
 Frequencies --     95.6486                98.6615               118.3360
 Red. masses --      5.0629                 2.5050                 5.0631
 Frc consts  --      0.0273                 0.0144                 0.0418
 IR Inten    --      0.9155                 0.9039                 2.7785

                     10                     11                     12
                      A                      A                      A
 Frequencies --    126.1462               158.2800               167.6834
 Red. masses --      2.7484                 3.4262                 3.8653
 Frc consts  --      0.0258                 0.0506                 0.0640
 IR Inten    --      3.8271                 1.8550                 2.6278

                     13                     14                     15
                      A                      A                      A
 Frequencies --    197.1544               234.9667               251.6694
 Red. masses --      4.9485                 1.4815                 2.0210
 Frc consts  --      0.1133                 0.0482                 0.0754
 IR Inten    --      1.2370                 2.2850                14.9613

                     16                     17                     18
                      A                      A                      A
 Frequencies --    269.3308               271.8660               281.3422
 Red. masses --      3.6199                 3.0693                 3.2978
 Frc consts  --      0.1547                 0.1337                 0.1538
 IR Inten    --     17.3914                11.1565                 8.6972

                     19                     20                     21
                      A                      A                      A
 Frequencies --    309.6926               332.6856               350.1745
 Red. masses --      2.2624                 2.5225                 4.0461
 Frc consts  --      0.1278                 0.1645                 0.2923
 IR Inten    --     10.7423                 9.9420                 9.8862

                     22                     23                     24
                      A                      A                      A
 Frequencies --    362.0685               374.8283               400.7018
 Red. masses --      3.4529                 2.2529                 3.5120
 Frc consts  --      0.2667                 0.1865                 0.3322
 IR Inten    --     10.9095                 5.1484                 2.1577

                     25                     26                     27
                      A                      A                      A
 Frequencies --    450.6667               480.0245               499.2248
 Red. masses --      4.0729                 3.1503                 3.6944
 Frc consts  --      0.4874                 0.4277                 0.5425
 IR Inten    --     17.5954                 7.8298                 7.1887

                     28                     29                     30
                      A                      A                      A
 Frequencies --    525.5978               555.5458               573.0832
 Red. masses --      2.2618                 3.9117                 3.9715
 Frc consts  --      0.3681                 0.7113                 0.7685
 IR Inten    --      3.8591                32.0218                17.7470

                     31                     32                     33
                      A                      A                      A
 Frequencies --    596.9072               627.2843               651.2555
 Red. masses --      4.6346                 3.1716                 4.0627
 Frc consts  --      0.9729                 0.7353                 1.0152
 IR Inten    --     46.4577                29.0458                61.8302

                     34                     35                     36
                      A                      A                      A
 Frequencies --    688.0283               708.8014               759.2935
 Red. masses --      6.5949                 4.0392                 5.8952
 Frc consts  --      1.8394                 1.1956                 2.0025
 IR Inten    --      1.4971                97.4687                 6.9020

                     37                     38                     39
                      A                      A                      A
 Frequencies --    812.7480               847.2212               859.3773
 Red. masses --      1.2375                 2.8216                 1.2783
 Frc consts  --      0.4816                 1.1933                 0.5562
 IR Inten    --     28.2593                11.0824                98.7256

                     40                     41                     42
                      A                      A                      A
 Frequencies --    877.2812               901.1384               937.0537
 Red. masses --      2.4336                 1.3910                 1.9088
 Frc consts  --      1.1035                 0.6655                 0.9875
 IR Inten    --    103.5886                 6.1166                10.4914

                     43                     44                     45
                      A                      A                      A
 Frequencies --    942.1550               973.9946               979.3906
 Red. masses --      1.3782                 1.6437                 2.2343
 Frc consts  --      0.7208                 0.9187                 1.2627
 IR Inten    --     57.4633                40.2530                12.0226

                     46                     47                     48
                      A                      A                      A
 Frequencies --    998.2720              1020.3167              1026.2211
 Red. masses --      2.2392                 1.2448                 2.1537
 Frc consts  --      1.3147                 0.7635                 1.3363
 IR Inten    --     15.2975                14.7620                73.7901

                     49                     50                     51
                      A                      A                      A
 Frequencies --   1030.2081              1069.3169              1093.6244
 Red. masses --      2.7284                 3.4146                 2.3610
 Frc consts  --      1.7061                 2.3004                 1.6637
 IR Inten    --     27.1162                 4.0540                43.3665

                     52                     53                     54
                      A                      A                      A
 Frequencies --   1104.7891              1130.8789              1159.5907
 Red. masses --      2.2561                 5.0425                 2.8291
 Frc consts  --      1.6225                 3.7995                 2.2413
 IR Inten    --     21.8932               118.2917                76.1830

                     55                     56                     57
                      A                      A                      A
 Frequencies --   1172.7962              1180.4423              1183.1363
 Red. masses --      2.9942                 1.5178                 2.4313
 Frc consts  --      2.4265                 1.2461                 2.0052
 IR Inten    --     61.9793                 6.3619                16.8064

                     58                     59                     60
                      A                      A                      A
 Frequencies --   1203.6143              1205.7070              1243.0921
 Red. masses --      1.4377                 2.3081                 1.7976
 Frc consts  --      1.2271                 1.9770                 1.6366
 IR Inten    --      5.4224                 2.7553                40.7931

                     61                     62                     63
                      A                      A                      A
 Frequencies --   1245.1595              1303.6409              1307.4017
 Red. masses --      1.3696                 1.2783                 6.1268
 Frc consts  --      1.2511                 1.2800                 6.1703
 IR Inten    --      8.1827                 4.1801               205.7421

                     64                     65                     66
                      A                      A                      A
 Frequencies --   1318.0942              1332.2504              1336.6530
 Red. masses --      1.5316                 1.2861                 1.2393
 Frc consts  --      1.5678                 1.3449                 1.3046
 IR Inten    --     12.2899                 0.5681                12.8998

                     67                     68                     69
                      A                      A                      A
 Frequencies --   1371.8875              1375.6417              1379.6474
 Red. masses --      1.2078                 2.0404                 1.2404
 Frc consts  --      1.3393                 2.2750                 1.3911
 IR Inten    --      4.0055                 5.9049                26.4673

                     70                     71                     72
                      A                      A                      A
 Frequencies --   1414.1106              1431.6831              1437.3925
 Red. masses --      1.2669                 1.5441                 1.2699
 Frc consts  --      1.4926                 1.8647                 1.5459
 IR Inten    --     13.0533                44.3760                11.6750

                     73                     74                     75
                      A                      A                      A
 Frequencies --   1477.6210              1498.0437              1499.0998
 Red. masses --      1.1870                 1.2045                 3.5995
 Frc consts  --      1.5270                 1.5926                 4.7660
 IR Inten    --      7.1583                 6.4335                13.7500

                     76                     77                     78
                      A                      A                      A
 Frequencies --   1502.6076              1510.2990              1511.9988
 Red. masses --      1.1090                 1.0789                 1.0883
 Frc consts  --      1.4753                 1.4499                 1.4659
 IR Inten    --      6.6865                 8.5385                 7.2165

                     79                     80                     81
                      A                      A                      A
 Frequencies --   1526.0409              1527.3876              1547.3108
 Red. masses --      1.1132                 1.0985                 1.0512
 Frc consts  --      1.5274                 1.5099                 1.4828
 IR Inten    --      2.9666                 0.2672                 9.7016

                     82                     83                     84
                      A                      A                      A
 Frequencies --   1597.6058              1694.8188              1733.7723
 Red. masses --      5.4719                 1.0926                 4.4966
 Frc consts  --      8.2286                 1.8490                 7.9638
 IR Inten    --      4.2312                36.0160                 1.2952

                     85                     86                     87
                      A                      A                      A
 Frequencies --   2973.2824              2977.2644              3003.8209
 Red. masses --      1.0721                 1.0701                 1.0471
 Frc consts  --      5.5843                 5.5886                 5.5663
 IR Inten    --     66.7422                49.8127                54.2752

                     88                     89                     90
                      A                      A                      A
 Frequencies --   3029.5470              3055.3235              3056.8828
 Red. masses --      1.0710                 1.0891                 1.0658
 Frc consts  --      5.7917                 5.9899                 5.8676
 IR Inten    --     36.7399                20.9740                21.4425

                     91                     92                     93
                      A                      A                      A
 Frequencies --   3091.2076              3096.3053              3110.1254
 Red. masses --      1.0917                 1.0857                 1.0973
 Frc consts  --      6.1460                 6.1329                 6.2535
 IR Inten    --     52.2436                29.5710                12.1906

                     94                     95                     96
                      A                      A                      A
 Frequencies --   3132.4749              3145.9436              3160.5407
 Red. masses --      1.1062                 1.0930                 1.0591
 Frc consts  --      6.3954                 6.3733                 6.2333
 IR Inten    --     42.6255                 2.5389                11.3561

                     97                     98                     99
                      A                      A                      A
 Frequencies --   3177.8218              3217.4809              3243.7077
 Red. masses --      1.0922                 1.0913                 1.1153
 Frc consts  --      6.4984                 6.6560                 6.9140
 IR Inten    --      5.5103                 8.0917                18.4503

                    100                    101                    102
                      A                      A                      A
 Frequencies --   3244.1698              3483.9097              3574.2447
 Red. masses --      1.0958                 1.0497                 1.0936
 Frc consts  --      6.7949                 7.5070                 8.2315
 IR Inten    --      1.0460                 0.1195                 0.2877

 - Thermochemistry -
 -------------------
 Temperature   298.150 Kelvin.  Pressure   1.00000 Atm.
 Atom     1 has atomic number  6 and mass  12.00000

 Molecular mass:   290.07589 amu.
 Principal axes and moments of inertia in atomic units:
                           1         2         3
     Eigenvalues --  3071.576427996.944349004.96315
           X            1.00000  -0.00267  -0.00127
           Y            0.00267   1.00000   0.00059
           Z            0.00127  -0.00059   1.00000
 This molecule is an asymmetric top.
 Rotational symmetry number  1.
 Warning -- assumption of classical behavior for rotation
           may cause significant error
 Rotational temperatures (Kelvin)      0.02820     0.01083     0.00962
 Rotational constants (GHZ):           0.58756     0.22568     0.20042
 Zero-point vibrational energy     768166.5 (Joules/Mol)
                                  183.59619 (Kcal/Mol)
 Warning -- explicit consideration of  31 degrees of freedom as
           vibrations may cause significant error
 Vibrational temperatures:     31.76    43.43    67.02    81.02   105.16
          (Kelvin)            108.80   137.62   141.95   170.26   181.50
                              227.73   241.26   283.66   338.06   362.10
                              387.51   391.15   404.79   445.58   478.66
                              503.82   520.94   539.29   576.52   648.41
                              690.65   718.27   756.22   799.31   824.54
                              858.82   902.52   937.01   989.92  1019.81
                             1092.45  1169.36  1218.96  1236.45  1262.21
                             1296.54  1348.21  1355.55  1401.36  1409.12
                             1436.29  1468.01  1476.50  1482.24  1538.51
                             1573.48  1589.55  1627.08  1668.39  1687.39
                             1698.39  1702.27  1731.73  1734.74  1788.53
                             1791.51  1875.65  1881.06  1896.44  1916.81
                             1923.15  1973.84  1979.24  1985.00  2034.59
                             2059.87  2068.09  2125.97  2155.35  2156.87
                             2161.92  2172.98  2175.43  2195.63  2197.57
                             2226.24  2298.60  2438.47  2494.51  4277.89
                             4283.62  4321.83  4358.84  4395.93  4398.17
                             4447.56  4454.89  4474.78  4506.93  4526.31
                             4547.31  4572.18  4629.24  4666.97  4667.64
                             5012.57  5142.54

 Zero-point correction=                           0.292579 (Hartree/Particle)
 Thermal correction to Energy=                    0.312647
 Thermal correction to Enthalpy=                  0.313591
 Thermal correction to Gibbs Free Energy=         0.242096
 Sum of electronic and zero-point Energies=          -1561.195916
 Sum of electronic and thermal Energies=             -1561.175849
 Sum of electronic and thermal Enthalpies=           -1561.174905
 Sum of electronic and thermal Free Energies=        -1561.246400

                     E (Thermal)             CV                S
                      KCal/Mol        Cal/Mol-Kelvin    Cal/Mol-Kelvin
 Total                  196.189             72.734            150.474
 Electronic               0.000              0.000              0.000
 Translational            0.889              2.981             42.892
 Rotational               0.889              2.981             33.758
 Vibrational            194.411             66.772             73.823
 Vibration     1          0.593              1.985              6.438
 Vibration     2          0.594              1.984              5.817
 Vibration     3          0.595              1.979              4.958
 Vibration     4          0.596              1.975              4.582
 Vibration     5          0.599              1.967              4.068
 Vibration     6          0.599              1.965              4.001
 Vibration     7          0.603              1.952              3.541
 Vibration     8          0.604              1.950              3.481
 Vibration     9          0.608              1.934              3.127
 Vibration    10          0.611              1.927              3.004
 Vibration    11          0.621              1.893              2.570
 Vibration    12          0.624              1.882              2.461
 Vibration    13          0.637              1.844              2.159
 Vibration    14          0.655              1.787              1.841
 Vibration    15          0.664              1.760              1.719
 Vibration    16          0.674              1.730              1.600
 Vibration    17          0.675              1.725              1.584
 Vibration    18          0.681              1.708              1.525
 Vibration    19          0.699              1.655              1.364
 Vibration    20          0.715              1.610              1.247
 Vibration    21          0.727              1.575              1.165
 Vibration    22          0.736              1.550              1.113
 Vibration    23          0.746              1.524              1.060
 Vibration    24          0.767              1.469              0.960
 Vibration    25          0.809              1.359              0.794
 Vibration    26          0.836              1.294              0.710
 Vibration    27          0.855              1.252              0.660
 Vibration    28          0.881              1.193              0.597
 Vibration    29          0.911              1.128              0.533
 Vibration    30          0.929              1.089              0.498
 Vibration    31          0.955              1.038              0.455

 Optimization completed.
    -- Stationary point found.
 Normal termination of Gaussian 16 at Fri Dec 11 18:58:29 2020.

 ----------------------------------------------------------------------
 # B3LYP/6-311++G(d,p) empiricaldispersion=gd3bj scf=xqc pop=npa geom=c
 heck
 ----------------------------------------------------------------------

 ---------------------------------------
 CID_103339554_JID_8012_Energie_neutraal
 ---------------------------------------
 Structure from the checkpoint file:  "JID_8012.chk"
 Charge =  0 Multiplicity = 1

 SCF Done:  E(RB3LYP) =  -1561.76875622     A.U. after   16 cycles
 Normal termination of Gaussian 16 at Fri Dec 11 19:05:18 2020.

 ----------------------------------------------------------------------
 # B3LYP/6-311++G(d,p) empiricaldispersion=gd3bj scf=xqc pop=npa geom=c
 heck
 ----------------------------------------------------------------------

 -------------------------------------
 CID_103339554_JID_8012_Energie_kation
 -------------------------------------
 Structure from the checkpoint file:  "JID_8012.chk"
 Charge =  1 Multiplicity = 2

 SCF Done:  E(UB3LYP) =  -1561.46608230     A.U. after   30 cycles
 Normal termination of Gaussian 16 at Fri Dec 11 19:22:19 2020.
 Gaussian 16:  ES64L-G16RevA.03 25-Dec-2016

 ----------------------------------------------------------------------
 # B3LYP/6-311++G(d,p) empiricaldispersion=gd3bj scf=xqc pop=npa geom=c
 heck
 ----------------------------------------------------------------------

 ------------------------------------
 CID_103339554_JID_8012_Energie_anion
 ------------------------------------
 Structure from the checkpoint file:  "JID_8012.chk"
 Charge = -1 Multiplicity = 2

                         Standard orientation:
 ---------------------------------------------------------------------
 Center     Atomic      Atomic             Coordinates (Angstroms)
 Number     Number       Type             X           Y           Z
 ---------------------------------------------------------------------
      1          6           0       -3.200827   -2.146467   -0.921629
      2          8           0       -4.271161   -1.225387   -0.781426
      3          6           0       -3.932675    0.126179   -0.986960
      4          6           0       -3.024432    0.739593    0.085405
      5          7           0       -1.596946    0.444529   -0.158282
      6          6           0       -0.924451    1.323259   -1.134755
      7          6           0       -0.536127    2.693193   -0.642836
      8          6           0        0.647421    3.249731   -0.891484
      9         16           0       -0.713739    0.055179    1.239204
     10          8           0       -0.309820    1.239486    2.007265
     11          8           0       -1.480294   -1.008813    1.896428
     12          6           0        0.747052   -0.624538    0.526295
     13          6           0        0.836584   -1.822174   -0.137373
     14          6           0        2.155591   -2.066842   -0.605409
     15          6           0        3.036144   -1.062044   -0.279746
     16         16           0        2.262371    0.227322    0.595469
     17          6           0        4.512425   -0.991615   -0.542531
     18          7           0        4.932023    0.399914   -0.712862
     19          1           0       -3.656718   -3.137181   -1.006691
     20          1           0       -2.532537   -2.128857   -0.054207
     21          1           0       -2.613006   -1.942360   -1.830535
     22          1           0       -3.482833    0.262965   -1.985910
     23          1           0       -4.885661    0.666746   -0.976457
     24          1           0       -3.186522    1.825837    0.129703
     25          1           0       -3.310665    0.319620    1.051615
     26          1           0       -0.047090    0.798711   -1.524446
     27          1           0       -1.630561    1.407287   -1.969898
     28          1           0       -1.283100    3.234990   -0.065796
     29          1           0        0.895811    4.247955   -0.543746
     30          1           0        1.420598    2.719474   -1.443173
     31          1           0       -0.009141   -2.483429   -0.283080
     32          1           0        2.448701   -2.955631   -1.154155
     33          1           0        5.054265   -1.389878    0.325396
     34          1           0        4.743767   -1.659699   -1.390312
     35          1           0        5.946900    0.466896   -0.725214
     36          1           0        4.594109    0.763489   -1.601851
 ---------------------------------------------------------------------

 SCF Done:  E(UB3LYP) =  -1561.77472124     A.U. after   33 cycles
 SCF Done:  E(UB3LYP) =  -1561.77472124     a.u. after    1 cycles

 The electronic state is 2-A.
 Alpha  occ. eigenvalues --  -88.94121 -88.73609 -19.04060 -18.99580 -18.99398
 Alpha  occ. eigenvalues --  -14.23822 -14.18402 -10.13894 -10.11847 -10.11773
 Alpha  occ. eigenvalues --  -10.11686 -10.08740 -10.08451 -10.07295 -10.06876
 Alpha  occ. eigenvalues --  -10.06213 -10.04922 -10.04623  -8.00210  -7.82204
 Alpha  occ. eigenvalues --   -5.96510  -5.96464  -5.96303  -5.78518  -5.78126
 Alpha  occ. eigenvalues --   -5.77810  -0.99804  -0.95285  -0.88689  -0.83620
 Alpha  occ. eigenvalues --   -0.78003  -0.74705  -0.69858  -0.67281  -0.63516
 Alpha  occ. eigenvalues --   -0.60902  -0.60762  -0.59501  -0.55596  -0.52125
 Alpha  occ. eigenvalues --   -0.49789  -0.47295  -0.44586  -0.41900  -0.41354
 Alpha  occ. eigenvalues --   -0.41124  -0.39977  -0.38930  -0.38054  -0.36871
 Alpha  occ. eigenvalues --   -0.36644  -0.36036  -0.34892  -0.34193  -0.33359
 Alpha  occ. eigenvalues --   -0.32058  -0.30967  -0.29914  -0.29555  -0.29332
 Alpha  occ. eigenvalues --   -0.28326  -0.27331  -0.26092  -0.25605  -0.24382
 Alpha  occ. eigenvalues --   -0.23715  -0.23274  -0.21762  -0.21315  -0.19875
 Alpha  occ. eigenvalues --   -0.18985  -0.17731  -0.16960  -0.14658  -0.13926
 Alpha  occ. eigenvalues --   -0.12894  -0.11368   0.04121
 Alpha virt. eigenvalues --    0.06435   0.06913   0.07855   0.08223   0.08909
 Alpha virt. eigenvalues --    0.09179   0.09294   0.09781   0.10720   0.10977
 Alpha virt. eigenvalues --    0.11320   0.11495   0.12297   0.13052   0.13242

  Beta  occ. eigenvalues --  -88.94112 -88.73542 -19.04059 -18.99540 -18.99375
  Beta  occ. eigenvalues --  -14.23791 -14.18338 -10.13892 -10.11848 -10.11757
  Beta  occ. eigenvalues --  -10.11684 -10.08748 -10.08442 -10.07297 -10.06614
  Beta  occ. eigenvalues --  -10.05870 -10.04782 -10.04681  -8.00200  -7.82144
  Beta  occ. eigenvalues --   -5.96489  -5.96439  -5.96304  -5.78490  -5.78099
  Beta  occ. eigenvalues --   -5.77586  -0.99699  -0.95283  -0.88616  -0.83550
  Beta  occ. eigenvalues --   -0.77803  -0.74389  -0.69842  -0.67211  -0.63100
  Beta  occ. eigenvalues --   -0.60811  -0.60506  -0.59362  -0.55413  -0.52049
  Beta  occ. eigenvalues --   -0.49720  -0.47195  -0.44453  -0.41620  -0.41325
  Beta  occ. eigenvalues --   -0.40959  -0.39795  -0.38871  -0.37972  -0.36815
  Beta  occ. eigenvalues --   -0.36562  -0.35994  -0.34867  -0.34068  -0.33277
  Beta  occ. eigenvalues --   -0.32044  -0.30866  -0.29870  -0.29327  -0.29166
  Beta  occ. eigenvalues --   -0.28302  -0.27294  -0.25936  -0.25293  -0.23925
  Beta  occ. eigenvalues --   -0.23449  -0.23168  -0.21473  -0.21200  -0.19752
  Beta  occ. eigenvalues --   -0.18875  -0.17683  -0.16910  -0.14554  -0.13730
  Beta  occ. eigenvalues --   -0.11969  -0.09825
  Beta virt. eigenvalues --    0.06428   0.07265   0.07819   0.08239   0.08631
  Beta virt. eigenvalues --    0.09098   0.09293   0.09526   0.10415   0.10771
  Beta virt. eigenvalues --    0.11091   0.11418   0.11563   0.12443   0.13122

 Mulliken charges and spin densities:
               1          2
     1  C   -0.360871  -0.009878
     2  O   -0.138106   0.000580
     3  C   -0.252450   0.004743
     4  C   -0.297915  -0.008416
     5  N    0.161841   0.022211
     6  C   -0.933581  -0.013057
     7  C    0.509211   0.010939
     8  C   -0.616326  -0.004697
     9  S    0.538135   0.055838
    10  O   -0.147514   0.001621
    11  O   -0.107990  -0.011052
    12  C   -0.363332   0.057599
    13  C    0.155926   0.197702
    14  C   -0.168399  -0.129031
    15  C   -0.396401   0.644715
    16  S   -0.177301   0.098833
    17  C    0.375020  -1.176914
    18  N   -0.359961  -0.003850
    19  H    0.144586   0.002022
    20  H    0.181267  -0.000331
    21  H    0.109615   0.007648
    22  H    0.113602   0.001977
    23  H    0.162080  -0.000013
    24  H    0.087310   0.007469
    25  H    0.237630   0.003957
    26  H    0.272419  -0.000022
    27  H    0.082874  -0.003608
    28  H    0.160377  -0.000142
    29  H    0.127006   0.000566
    30  H    0.106418   0.001427
    31  H    0.140857  -0.007653
    32  H    0.129285  -0.002483
    33  H   -0.297593   0.490184
    34  H   -0.051771   0.193225
    35  H   -0.185190   0.431267
    36  H    0.059240   0.136624
 Sum of Mulliken charges =  -1.00000   1.00000

 Dipole moment (field-independent basis, Debye):
    X=             -8.5657    Y=              1.6068    Z=             -5.0548  Tot=             10.0749
 Quadrupole moment (field-independent basis, Debye-Ang):
   XX=           -207.3436   YY=           -141.2242   ZZ=           -147.7346
   XY=             -6.8598   XZ=              2.3327   YZ=              0.7661

 Summary of Natural Population Analysis:

                                       Natural Population
                Natural  -----------------------------------------------
    Atom  No    Charge         Core      Valence    Rydberg      Total
 -----------------------------------------------------------------------
      C    1   -0.10409      0.99962     2.09571    0.00877     3.10409
      O    2   -0.30031      0.99989     3.29013    0.01030     4.30031
      C    3   -0.00776      0.99958     1.99669    0.01149     3.00776
      C    4   -0.10623      0.99961     2.09732    0.00931     3.10623
      N    5   -0.37435      0.99974     2.85791    0.01670     3.87435
      C    6   -0.10870      0.99958     2.09778    0.01134     3.10870
      C    7   -0.09336      0.99956     2.08523    0.00856     3.09336
      C    8   -0.18212      0.99957     2.17541    0.00713     3.18212
      S    9    1.12233      4.99901     1.77776    0.10089     6.87767
      O   10   -0.46390      0.99991     3.45786    0.00613     4.46390
      O   11   -0.46739      0.99990     3.46222    0.00527     4.46739
      C   12   -0.23146      0.99938     2.21451    0.01758     3.23146
      C   13   -0.08695      0.99946     2.07569    0.01180     3.08695
      C   14   -0.15769      0.99947     2.14704    0.01119     3.15769
      C   15   -0.03841      0.99951     2.02474    0.01416     3.03841
      S   16    0.26817      4.99933     2.71030    0.02220     7.73183
      C   17   -0.10430      0.99957     2.09144    0.01329     3.10430
      N   18   -0.41754      0.99977     2.90646    0.01130     3.91754
      H   19    0.08257      0.00000     0.41658    0.00085     0.41743
      H   20    0.09828      0.00000     0.40054    0.00118     0.40172
      H   21    0.07679      0.00000     0.42197    0.00124     0.42321
      H   22    0.07502      0.00000     0.42373    0.00124     0.42498
      H   23    0.08700      0.00000     0.41187    0.00113     0.41300
      H   24    0.08877      0.00000     0.40988    0.00135     0.41123
      H   25    0.11688      0.00000     0.38158    0.00154     0.38312
      H   26    0.11417      0.00000     0.38465    0.00118     0.38583
      H   27    0.09864      0.00000     0.39996    0.00140     0.40136
      H   28    0.09280      0.00000     0.40607    0.00113     0.40720
      H   29    0.09146      0.00000     0.40755    0.00100     0.40854
      H   30    0.09435      0.00000     0.40364    0.00201     0.40565
      H   31    0.10293      0.00000     0.39595    0.00113     0.39707
      H   32    0.09963      0.00000     0.39936    0.00101     0.40037
      H   33    0.10321      0.00000     0.39416    0.00263     0.39679
      H   34    0.08260      0.00000     0.41578    0.00162     0.41740
      H   35    0.17704      0.00000     0.31865    0.00431     0.32296
      H   36    0.17190      0.00000     0.32618    0.00192     0.32810
 =======================================================================
   * Total *    0.00000     25.99246    50.68230    0.32525    77.00000

 Normal termination of Gaussian 16 at Fri Dec 11 19:40:43 2020.
