 Gaussian 16, Revision A.03,

 -----------------------------------------------------------
 # opt freq B3LYP/6-31G(d) empiricaldispersion=gd3bj scf=xqc
 -----------------------------------------------------------

 ------------------------------
 CID_79345196_JID_9670_neutraal
 ------------------------------
 Symbolic Z-matrix:
 Charge =  0 Multiplicity = 1

 SCF Done:  E(RB3LYP) =  -894.387773617     A.U. after   15 cycles
 SCF Done:  E(RB3LYP) =  -894.385648101     A.U. after   13 cycles
 SCF Done:  E(RB3LYP) =  -894.391420965     A.U. after   12 cycles
 SCF Done:  E(RB3LYP) =  -894.391395350     A.U. after   12 cycles
 SCF Done:  E(RB3LYP) =  -894.392948837     A.U. after   11 cycles
 SCF Done:  E(RB3LYP) =  -894.393174059     A.U. after   12 cycles
 SCF Done:  E(RB3LYP) =  -894.393656921     A.U. after   12 cycles
 SCF Done:  E(RB3LYP) =  -894.393956960     A.U. after   12 cycles
 SCF Done:  E(RB3LYP) =  -894.394164651     A.U. after   12 cycles
 SCF Done:  E(RB3LYP) =  -894.394304334     A.U. after   12 cycles
 SCF Done:  E(RB3LYP) =  -894.394478312     A.U. after   10 cycles
 SCF Done:  E(RB3LYP) =  -894.394479479     A.U. after   10 cycles
 SCF Done:  E(RB3LYP) =  -894.394479802     A.U. after    8 cycles
 SCF Done:  E(RB3LYP) =  -894.394479846     A.U. after    8 cycles
 SCF Done:  E(RB3LYP) =  -894.394479873     A.U. after    8 cycles
 Optimization completed.
    -- Stationary point found.
 Normal termination of Gaussian 16 at Mon Dec 14 17:18:46 2020.

 --------------------------------------------------------------------
 #N Geom=AllCheck Guess=TCheck SCRF=Check GenChk RB3LYP/6-31G(d) Freq
 --------------------------------------------------------------------

 Structure from the checkpoint file:  "JID_9670.chk"
 ------------------------------
 CID_79345196_JID_9670_neutraal
 ------------------------------
 Charge =  0 Multiplicity = 1

 SCF Done:  E(RB3LYP) =  -894.394479873     A.U. after    1 cycles

  Exact polarizability: 217.233   5.816 166.749  -1.397 -12.971 106.465
 Approx polarizability: 281.943  12.357 269.662  -9.177 -31.201 175.993

                      1                      2                      3
                      A                      A                      A
 Frequencies --      9.5192                23.0487                28.5518
 Red. masses --      4.3915                 4.4203                 4.9072
 Frc consts  --      0.0002                 0.0014                 0.0024
 IR Inten    --      0.8786                 0.9183                 0.6430

                      4                      5                      6
                      A                      A                      A
 Frequencies --     41.9795                49.7488                82.6442
 Red. masses --      4.9292                 5.8999                 6.9523
 Frc consts  --      0.0051                 0.0086                 0.0280
 IR Inten    --      3.2529                 1.1918                 0.5753

                      7                      8                      9
                      A                      A                      A
 Frequencies --     97.8035               102.2640               160.7686
 Red. masses --      3.7364                 4.3337                 6.0460
 Frc consts  --      0.0211                 0.0267                 0.0921
 IR Inten    --      2.5460                 1.8194                 1.7299

                     10                     11                     12
                      A                      A                      A
 Frequencies --    192.5597               204.4262               267.3858
 Red. masses --      5.3384                 5.5952                 5.0143
 Frc consts  --      0.1166                 0.1378                 0.2112
 IR Inten    --      2.5595                 2.4531                 2.2295

                     13                     14                     15
                      A                      A                      A
 Frequencies --    282.6576               315.6084               353.2663
 Red. masses --      5.3179                 4.4514                 5.1207
 Frc consts  --      0.2503                 0.2612                 0.3765
 IR Inten    --      8.5836                 2.2341                10.3041

                     16                     17                     18
                      A                      A                      A
 Frequencies --    366.6039               384.2790               417.6168
 Red. masses --      2.1311                 2.8811                 3.1751
 Frc consts  --      0.1688                 0.2507                 0.3263
 IR Inten    --      5.4951                 2.9599                 0.4879

                     19                     20                     21
                      A                      A                      A
 Frequencies --    435.4367               493.7879               526.8281
 Red. masses --      6.4530                 2.4711                 2.8645
 Frc consts  --      0.7209                 0.3550                 0.4684
 IR Inten    --     17.5040                10.2103                 6.9244

                     22                     23                     24
                      A                      A                      A
 Frequencies --    588.5232               601.0461               612.8742
 Red. masses --      1.0822                 1.2812                 3.3113
 Frc consts  --      0.2208                 0.2727                 0.7328
 IR Inten    --     85.1429                96.9871                11.1800

                     25                     26                     27
                      A                      A                      A
 Frequencies --    638.3439               648.2885               672.6369
 Red. masses --      3.9109                 5.6272                 6.5661
 Frc consts  --      0.9389                 1.3934                 1.7503
 IR Inten    --      1.4766                 6.3685                 3.1112

                     28                     29                     30
                      A                      A                      A
 Frequencies --    704.2405               723.5624               754.3272
 Red. masses --      4.2554                 3.9793                 1.2161
 Frc consts  --      1.2434                 1.2274                 0.4077
 IR Inten    --      3.1291                 1.5238                49.3234

                     31                     32                     33
                      A                      A                      A
 Frequencies --    756.1067               774.5753               781.7696
 Red. masses --      9.2259                 4.2126                 3.8757
 Frc consts  --      3.1076                 1.4891                 1.3956
 IR Inten    --     64.6492                29.3797                 6.4682

                     34                     35                     36
                      A                      A                      A
 Frequencies --    823.9719               826.6109               838.5964
 Red. masses --      1.9355                 1.3397                 1.9138
 Frc consts  --      0.7742                 0.5394                 0.7930
 IR Inten    --     20.1007                 1.0617                 6.6308

                     37                     38                     39
                      A                      A                      A
 Frequencies --    858.3279               880.5088               880.9938
 Red. masses --      1.5638                 1.6412                 2.3994
 Frc consts  --      0.6788                 0.7497                 1.0972
 IR Inten    --     16.1389                 4.9048                 2.3266

                     40                     41                     42
                      A                      A                      A
 Frequencies --    938.8230               942.8354               958.6919
 Red. masses --      1.3788                 5.0973                 3.1381
 Frc consts  --      0.7160                 2.6697                 1.6993
 IR Inten    --      0.6256                 4.2572                10.2478

                     43                     44                     45
                      A                      A                      A
 Frequencies --    967.3237               974.1984               989.7505
 Red. masses --      1.9107                 2.3936                 1.6600
 Frc consts  --      1.0534                 1.3385                 0.9581
 IR Inten    --      3.4934                10.0950                 7.4766

                     46                     47                     48
                      A                      A                      A
 Frequencies --    999.4272              1042.6162              1077.2025
 Red. masses --      1.8654                 2.8200                 1.4392
 Frc consts  --      1.0978                 1.8061                 0.9839
 IR Inten    --      7.8672                 4.9571                22.4907

                     49                     50                     51
                      A                      A                      A
 Frequencies --   1096.3419              1106.2456              1118.4915
 Red. masses --      2.9641                 3.4356                 1.8854
 Frc consts  --      2.0991                 2.4771                 1.3897
 IR Inten    --    114.9723                64.7276                17.2570

                     52                     53                     54
                      A                      A                      A
 Frequencies --   1139.9875              1161.4699              1188.3953
 Red. masses --      3.5291                 1.3969                 1.4201
 Frc consts  --      2.7022                 1.1103                 1.1817
 IR Inten    --     87.2557                 1.3050                12.4088

                     55                     56                     57
                      A                      A                      A
 Frequencies --   1223.2731              1239.9396              1256.4167
 Red. masses --      1.2193                 2.3162                 1.6888
 Frc consts  --      1.0750                 2.0981                 1.5707
 IR Inten    --     12.9615                 3.1366                 4.3166

                     58                     59                     60
                      A                      A                      A
 Frequencies --   1259.5807              1266.8498              1321.2120
 Red. masses --      1.0903                 2.4366                 1.1581
 Frc consts  --      1.0192                 2.3040                 1.1911
 IR Inten    --     41.2193                41.8866                35.3633

                     61                     62                     63
                      A                      A                      A
 Frequencies --   1328.3251              1350.6045              1356.7694
 Red. masses --      3.4934                 2.1836                 2.5372
 Frc consts  --      3.6317                 2.3468                 2.7518
 IR Inten    --     17.7934                18.5031                22.4201

                     64                     65                     66
                      A                      A                      A
 Frequencies --   1379.1947              1390.2297              1406.5829
 Red. masses --      1.7554                 2.0521                 1.6978
 Frc consts  --      1.9673                 2.3368                 1.9790
 IR Inten    --    459.0078                 9.6365                19.3473

                     67                     68                     69
                      A                      A                      A
 Frequencies --   1416.2227              1442.0777              1444.5960
 Red. masses --      1.3282                 3.9241                 2.1237
 Frc consts  --      1.5696                 4.8080                 2.6111
 IR Inten    --     94.6522                33.7263               259.9318

                     70                     71                     72
                      A                      A                      A
 Frequencies --   1459.7398              1488.3709              1494.8457
 Red. masses --      2.0279                 2.0380                 1.2138
 Frc consts  --      2.5460                 2.6600                 1.5980
 IR Inten    --     67.0765                 6.1928               148.8571

                     73                     74                     75
                      A                      A                      A
 Frequencies --   1508.5973              1510.1347              1527.0107
 Red. masses --      1.3782                 1.2538                 1.1310
 Frc consts  --      1.8480                 1.6847                 1.5538
 IR Inten    --     11.5492                20.2400                 3.6779

                     76                     77                     78
                      A                      A                      A
 Frequencies --   1532.7842              1570.0336              1571.3804
 Red. masses --      1.8766                 2.7003                 3.8884
 Frc consts  --      2.5976                 3.9218                 5.6570
 IR Inten    --     48.6648               132.7060                43.7408

                     79                     80                     81
                      A                      A                      A
 Frequencies --   1644.6023              1679.7626              1788.1172
 Red. masses --      5.7583                 5.7352                 6.6730
 Frc consts  --      9.1763                 9.5345                12.5709
 IR Inten    --      9.0531                46.2832               719.4212

                     82                     83                     84
                      A                      A                      A
 Frequencies --   2976.0588              3074.5194              3077.2876
 Red. masses --      1.0724                 1.0864                 1.0601
 Frc consts  --      5.5961                 6.0506                 5.9144
 IR Inten    --     58.2666                28.8908                26.0568

                     85                     86                     87
                      A                      A                      A
 Frequencies --   3095.2693              3126.1524              3153.4535
 Red. masses --      1.0627                 1.1050                 1.1095
 Frc consts  --      5.9988                 6.3627                 6.5005
 IR Inten    --     43.5591                 4.4840                14.5040

                     88                     89                     90
                      A                      A                      A
 Frequencies --   3173.6067              3190.8651              3206.5402
 Red. masses --      1.0871                 1.0944                 1.0909
 Frc consts  --      6.4507                 6.5653                 6.6084
 IR Inten    --     15.2002                20.1618                 0.5380

                     91                     92                     93
                      A                      A                      A
 Frequencies --   3257.6266              3270.9965              3279.7016
 Red. masses --      1.0926                 1.0931                 1.0911
 Frc consts  --      6.8317                 6.8911                 6.9147
 IR Inten    --      6.1448                 3.3337                 0.1729

                     94                     95                     96
                      A                      A                      A
 Frequencies --   3289.0880              3618.5323              3627.8561
 Red. masses --      1.1063                 1.0759                 1.0657
 Frc consts  --      7.0515                 8.3000                 8.2637
 IR Inten    --      2.6130                62.3303               283.8597

 - Thermochemistry -
 -------------------
 Temperature   298.150 Kelvin.  Pressure   1.00000 Atm.
 Atom     1 has atomic number  6 and mass  12.00000

 Molecular mass:   261.11134 amu.
 Principal axes and moments of inertia in atomic units:
                           1         2         3
     Eigenvalues --  2165.07872********************
           X            0.99996  -0.00751   0.00370
           Y            0.00754   0.99995  -0.00720
           Z           -0.00365   0.00722   0.99997
 This molecule is an asymmetric top.
 Rotational symmetry number  1.
 Warning -- assumption of classical behavior for rotation
           may cause significant error
 Rotational temperatures (Kelvin)      0.04000     0.00678     0.00613
 Rotational constants (GHZ):           0.83357     0.14134     0.12763
 Zero-point vibrational energy     724809.6 (Joules/Mol)
                                  173.23365 (Kcal/Mol)
 Warning -- explicit consideration of  24 degrees of freedom as
           vibrations may cause significant error
 Vibrational temperatures:     13.70    33.16    41.08    60.40    71.58
          (Kelvin)            118.91   140.72   147.14   231.31   277.05
                              294.12   384.71   406.68   454.09   508.27
                              527.46   552.89   600.86   626.50   710.45
                              757.99   846.75   864.77   881.79   918.43
                              932.74   967.77  1013.25  1041.04  1085.31
                             1087.87  1114.44  1124.79  1185.51  1189.31
                             1206.55  1234.94  1266.86  1267.55  1350.76
                             1356.53  1379.34  1391.76  1401.65  1424.03
                             1437.95  1500.09  1549.85  1577.39  1591.64
                             1609.26  1640.19  1671.10  1709.84  1760.02
                             1784.00  1807.70  1812.26  1822.71  1900.93
                             1911.16  1943.22  1952.09  1984.35  2000.23
                             2023.76  2037.63  2074.83  2078.45  2100.24
                             2141.43  2150.75  2170.54  2172.75  2197.03
                             2205.33  2258.93  2260.87  2366.22  2416.80
                             2572.70  4281.88  4423.55  4427.53  4453.40
                             4497.84  4537.12  4566.11  4590.94  4613.50
                             4687.00  4706.23  4718.76  4732.26  5206.26
                             5219.68

 Zero-point correction=                           0.276065 (Hartree/Particle)
 Thermal correction to Energy=                    0.293122
 Thermal correction to Enthalpy=                  0.294066
 Thermal correction to Gibbs Free Energy=         0.226459
 Sum of electronic and zero-point Energies=           -894.118414
 Sum of electronic and thermal Energies=              -894.101358
 Sum of electronic and thermal Enthalpies=            -894.100413
 Sum of electronic and thermal Free Energies=         -894.168020

                     E (Thermal)             CV                S
                      KCal/Mol        Cal/Mol-Kelvin    Cal/Mol-Kelvin
 Total                  183.937             63.804            142.291
 Electronic               0.000              0.000              0.000
 Translational            0.889              2.981             42.579
 Rotational               0.889              2.981             34.324
 Vibrational            182.160             57.842             65.388
 Vibration     1          0.593              1.987              8.109
 Vibration     2          0.593              1.985              6.353
 Vibration     3          0.593              1.984              5.928
 Vibration     4          0.595              1.980              5.163
 Vibration     5          0.595              1.978              4.827
 Vibration     6          0.600              1.961              3.827
 Vibration     7          0.603              1.951              3.498
 Vibration     8          0.604              1.947              3.411
 Vibration     9          0.622              1.890              2.541
 Vibration    10          0.635              1.850              2.203
 Vibration    11          0.640              1.834              2.093
 Vibration    12          0.672              1.733              1.613
 Vibration    13          0.682              1.706              1.518
 Vibration    14          0.703              1.644              1.333
 Vibration    15          0.729              1.569              1.152
 Vibration    16          0.740              1.541              1.094
 Vibration    17          0.753              1.504              1.022
 Vibration    18          0.781              1.432              0.900
 Vibration    19          0.796              1.393              0.841
 Vibration    20          0.849              1.264              0.674
 Vibration    21          0.882              1.191              0.594
 Vibration    22          0.946              1.056              0.470
 Vibration    23          0.959              1.030              0.448
 Vibration    24          0.972              1.005              0.428

                           ! Non-Optimized Parameters !
 Normal termination of Gaussian 16 at Mon Dec 14 17:32:07 2020.

 ----------------------------------------------------------------------
 # B3LYP/6-311++G(d,p) empiricaldispersion=gd3bj scf=xqc pop=npa geom=c
 heck
 ----------------------------------------------------------------------

 --------------------------------------
 CID_79345196_JID_9670_Energie_neutraal
 --------------------------------------
 Structure from the checkpoint file:  "JID_9670.chk"
 Charge =  0 Multiplicity = 1

 SCF Done:  E(RB3LYP) =  -894.653366816     A.U. after   15 cycles
 Normal termination of Gaussian 16 at Mon Dec 14 17:38:09 2020.

 ----------------------------------------------------------------------
 # B3LYP/6-311++G(d,p) empiricaldispersion=gd3bj scf=xqc pop=npa geom=c
 heck
 ----------------------------------------------------------------------

 ------------------------------------
 CID_79345196_JID_9670_Energie_kation
 ------------------------------------
 Structure from the checkpoint file:  "JID_9670.chk"
 Charge =  1 Multiplicity = 2

 SCF Done:  E(UB3LYP) =  -894.355353938     A.U. after   27 cycles
 Normal termination of Gaussian 16 at Mon Dec 14 17:54:41 2020.
 Gaussian 16:  ES64L-G16RevA.03 25-Dec-2016

 ----------------------------------------------------------------------
 # B3LYP/6-311++G(d,p) empiricaldispersion=gd3bj scf=xqc pop=npa geom=c
 heck
 ----------------------------------------------------------------------

 -----------------------------------
 CID_79345196_JID_9670_Energie_anion
 -----------------------------------
 Structure from the checkpoint file:  "JID_9670.chk"
 Charge = -1 Multiplicity = 2

                         Standard orientation:
 ---------------------------------------------------------------------
 Center     Atomic      Atomic             Coordinates (Angstroms)
 Number     Number       Type             X           Y           Z
 ---------------------------------------------------------------------
      1          6           0       -4.987400   -1.590361   -1.299750
      2          6           0       -4.570689   -0.281658   -1.146045
      3          7           0       -4.192025   -0.140130    0.151858
      4          7           0       -4.316437   -1.292055    0.853685
      5          6           0       -4.805396   -2.169369   -0.024566
      6          6           0       -3.550108    1.009069    0.771134
      7          6           0       -2.069448    1.093689    0.465699
      8          6           0       -1.245399   -0.025786    0.620438
      9          6           0        0.118541    0.033290    0.353228
     10          6           0        0.693468    1.241984   -0.066864
     11          6           0       -0.127374    2.366620   -0.226945
     12          6           0       -1.492270    2.287772    0.031200
     13          7           0        2.059624    1.407933   -0.380908
     14          6           0        3.176567    0.660296   -0.119934
     15          8           0        4.294437    1.058383   -0.428885
     16          8           0        2.912933   -0.507298    0.484105
     17          6           0        4.045259   -1.298592    0.938447
     18          6           0        4.840535   -1.955165   -0.190246
     19          8           0        5.904980   -1.177776   -0.681350
     20          1           0       -5.375672   -2.052854   -2.195301
     21          1           0       -4.513588    0.544085   -1.840665
     22          1           0       -5.017205   -3.181378    0.294339
     23          1           0       -4.061812    1.915946    0.433575
     24          1           0       -3.728837    0.902950    1.844770
     25          1           0       -1.686400   -0.964767    0.941925
     26          1           0        0.731566   -0.848115    0.467272
     27          1           0        0.306524    3.307026   -0.558619
     28          1           0       -2.110591    3.171702   -0.105229
     29          1           0        2.307253    2.285686   -0.817905
     30          1           0        4.701617   -0.670359    1.547445
     31          1           0        3.569121   -2.052421    1.568726
     32          1           0        5.284143   -2.876866    0.205510
     33          1           0        4.127551   -2.252672   -0.979792
     34          1           0        5.551672   -0.275406   -0.804235
 ---------------------------------------------------------------------

 SCF Done:  E(UB3LYP) =  -894.645739820     A.U. after   33 cycles
 SCF Done:  E(UB3LYP) =  -894.645739820     a.u. after    1 cycles

 The electronic state is 2-A.
 Alpha  occ. eigenvalues --  -19.09494 -19.02882 -19.02791 -14.30260 -14.27560
 Alpha  occ. eigenvalues --  -14.24291 -10.25176 -10.15708 -10.14214 -10.13529
 Alpha  occ. eigenvalues --  -10.12874 -10.11922 -10.10517 -10.08889 -10.08613
 Alpha  occ. eigenvalues --  -10.08517 -10.08357 -10.08334 -10.08186  -1.04264
 Alpha  occ. eigenvalues --   -0.96477  -0.94916  -0.93723  -0.86846  -0.77717
 Alpha  occ. eigenvalues --   -0.75092  -0.70290  -0.69022  -0.66956  -0.66097
 Alpha  occ. eigenvalues --   -0.61118  -0.58512  -0.53920  -0.53228  -0.51803
 Alpha  occ. eigenvalues --   -0.49802  -0.47870  -0.46639  -0.45000  -0.44563
 Alpha  occ. eigenvalues --   -0.44099  -0.40782  -0.40244  -0.38731  -0.38523
 Alpha  occ. eigenvalues --   -0.37275  -0.36679  -0.35685  -0.34480  -0.34173
 Alpha  occ. eigenvalues --   -0.33581  -0.33009  -0.32516  -0.32135  -0.30792
 Alpha  occ. eigenvalues --   -0.30166  -0.29118  -0.27982  -0.27202  -0.25443
 Alpha  occ. eigenvalues --   -0.23484  -0.22855  -0.21458  -0.21177  -0.19162
 Alpha  occ. eigenvalues --   -0.17210  -0.16870  -0.16697  -0.13719   0.03797
 Alpha virt. eigenvalues --    0.05314   0.06227   0.06362   0.06959   0.07086
 Alpha virt. eigenvalues --    0.07933   0.08219   0.08592   0.08711   0.09027
 Alpha virt. eigenvalues --    0.09516   0.09904   0.10442   0.11608   0.11973

  Beta  occ. eigenvalues --  -19.09490 -19.02879 -19.02760 -14.30252 -14.27561
  Beta  occ. eigenvalues --  -14.24275 -10.25134 -10.15689 -10.14200 -10.13480
  Beta  occ. eigenvalues --  -10.12855 -10.11894 -10.10512 -10.08851 -10.08598
  Beta  occ. eigenvalues --  -10.08472 -10.08361 -10.08332 -10.08154  -1.04225
  Beta  occ. eigenvalues --   -0.96454  -0.94875  -0.93715  -0.86806  -0.77655
  Beta  occ. eigenvalues --   -0.75046  -0.70249  -0.68977  -0.66890  -0.66023
  Beta  occ. eigenvalues --   -0.61062  -0.58469  -0.53873  -0.53144  -0.51778
  Beta  occ. eigenvalues --   -0.49757  -0.47809  -0.46590  -0.44956  -0.44509
  Beta  occ. eigenvalues --   -0.44061  -0.40727  -0.40182  -0.38631  -0.38476
  Beta  occ. eigenvalues --   -0.37234  -0.36631  -0.35631  -0.34440  -0.34122
  Beta  occ. eigenvalues --   -0.33535  -0.32964  -0.32475  -0.32093  -0.30735
  Beta  occ. eigenvalues --   -0.30127  -0.28987  -0.27927  -0.27170  -0.25395
  Beta  occ. eigenvalues --   -0.23443  -0.22739  -0.21434  -0.21151  -0.19148
  Beta  occ. eigenvalues --   -0.17133  -0.16769  -0.16622  -0.13532
  Beta virt. eigenvalues --    0.05854   0.06332   0.06660   0.06865   0.07155
  Beta virt. eigenvalues --    0.07674   0.08099   0.08240   0.08755   0.09082
  Beta virt. eigenvalues --    0.09261   0.09803   0.10398   0.10859   0.11601

 Mulliken charges and spin densities:
               1          2
     1  C    0.183636  -0.120678
     2  C    0.060019  -0.433518
     3  N    0.324137  -0.008817
     4  N   -0.258103   0.105464
     5  C    0.000915  -0.298248
     6  C    0.759418  -1.574229
     7  C    0.833004   0.331977
     8  C   -1.380663   0.983869
     9  C   -0.978811   0.545727
    10  C    1.884044  -1.747353
    11  C    0.181214  -0.504346
    12  C   -0.019506  -0.488103
    13  N   -0.273144  -0.000256
    14  C    0.147105   0.065118
    15  O   -0.362051   0.029717
    16  O   -0.105631   0.019182
    17  C    0.029747  -0.261258
    18  C    0.065832  -0.352560
    19  O   -0.269044   0.012244
    20  H   -0.006677   0.159973
    21  H   -0.372214   0.521037
    22  H    0.101871   0.024024
    23  H   -0.310294   0.525422
    24  H    0.032895   0.155622
    25  H    0.049658   0.160527
    26  H    0.016980   0.206063
    27  H   -0.774715   0.934187
    28  H   -0.911495   1.089963
    29  H    0.211174   0.117627
    30  H    0.156621   0.057017
    31  H   -0.248471   0.395017
    32  H   -0.087614   0.249594
    33  H    0.096116   0.061044
    34  H    0.224046   0.038953
 Sum of Mulliken charges =  -1.00000   1.00000

 Dipole moment (field-independent basis, Debye):
    X=              0.3773    Y=             -4.4612    Z=              0.3303  Tot=              4.4893
 Quadrupole moment (field-independent basis, Debye-Ang):
   XX=           -222.7947   YY=           -166.2191   ZZ=           -138.8906
   XY=             16.8564   XZ=              4.0134   YZ=              5.6102

 Summary of Natural Population Analysis:

                                       Natural Population
                Natural  -----------------------------------------------
    Atom  No    Charge         Core      Valence    Rydberg      Total
 -----------------------------------------------------------------------
      C    1   -0.16804      0.99957     2.16046    0.00801     3.16804
      C    2   -0.00064      0.99956     1.98962    0.01146     3.00064
      N    3   -0.10536      0.99966     2.59137    0.01433     3.60536
      N    4   -0.15246      0.99974     2.64198    0.01074     3.65246
      C    5   -0.01944      0.99964     2.00538    0.01442     3.01944
      C    6   -0.08749      0.99957     2.07532    0.01261     3.08749
      C    7   -0.03085      0.99949     2.02108    0.01028     3.03085
      C    8   -0.08354      0.99952     2.07584    0.00819     3.08354
      C    9   -0.11360      0.99952     2.10604    0.00804     3.11360
      C   10    0.08235      0.99946     1.90635    0.01183     2.91765
      C   11   -0.10473      0.99953     2.09497    0.01023     3.10473
      C   12   -0.09065      0.99952     2.08024    0.01089     3.09065
      N   13   -0.30469      0.99963     2.79619    0.00887     3.80469
      C   14    0.47377      0.99969     1.50317    0.02336     2.52623
      O   15   -0.34623      0.99986     3.34065    0.00572     4.34623
      O   16   -0.28373      0.99986     3.27512    0.00875     4.28373
      C   17   -0.02930      0.99956     2.01742    0.01233     3.02930
      C   18   -0.02702      0.99961     2.01408    0.01333     3.02702
      O   19   -0.37944      0.99990     3.37224    0.00730     4.37944
      H   20    0.10703      0.00000     0.39230    0.00067     0.39297
      H   21    0.10863      0.00000     0.39005    0.00132     0.39137
      H   22    0.09598      0.00000     0.40329    0.00074     0.40402
      H   23    0.10658      0.00000     0.39159    0.00183     0.39342
      H   24    0.11245      0.00000     0.38590    0.00166     0.38755
      H   25    0.10826      0.00000     0.39003    0.00171     0.39174
      H   26    0.11349      0.00000     0.38510    0.00141     0.38651
      H   27    0.10239      0.00000     0.39515    0.00247     0.39761
      H   28    0.10558      0.00000     0.39077    0.00365     0.39442
      H   29    0.20221      0.00000     0.29554    0.00225     0.29779
      H   30    0.09597      0.00000     0.40293    0.00110     0.40403
      H   31    0.09886      0.00000     0.39955    0.00158     0.40114
      H   32    0.08942      0.00000     0.40925    0.00132     0.41058
      H   33    0.07969      0.00000     0.41896    0.00134     0.42031
      H   34    0.24456      0.00000     0.25222    0.00323     0.25544
 =======================================================================
   * Total *    0.00000     18.99288    49.77013    0.23699    69.00000

 Normal termination of Gaussian 16 at Mon Dec 14 18:14:21 2020.
