 Gaussian 16, Revision A.03,

 -----------------------------------------------------------
 # opt freq B3LYP/6-31G(d) empiricaldispersion=gd3bj scf=xqc
 -----------------------------------------------------------

 -------------------------------
 CID_144698463_JID_6515_neutraal
 -------------------------------
 Symbolic Z-matrix:
 Charge =  0 Multiplicity = 1

 SCF Done:  E(RB3LYP) =  -639.014435025     A.U. after   14 cycles
 SCF Done:  E(RB3LYP) =  -639.018926243     A.U. after   12 cycles
 SCF Done:  E(RB3LYP) =  -639.020100086     A.U. after   13 cycles
 SCF Done:  E(RB3LYP) =  -639.020287871     A.U. after   12 cycles
 SCF Done:  E(RB3LYP) =  -639.020446036     A.U. after   11 cycles
 SCF Done:  E(RB3LYP) =  -639.020516680     A.U. after   11 cycles
 SCF Done:  E(RB3LYP) =  -639.020566079     A.U. after   10 cycles
 SCF Done:  E(RB3LYP) =  -639.020602016     A.U. after   10 cycles
 SCF Done:  E(RB3LYP) =  -639.020611295     A.U. after   10 cycles
 SCF Done:  E(RB3LYP) =  -639.020633742     A.U. after    9 cycles
 SCF Done:  E(RB3LYP) =  -639.020928983     A.U. after   10 cycles
 SCF Done:  E(RB3LYP) =  -639.020928452     A.U. after    8 cycles
 SCF Done:  E(RB3LYP) =  -639.020929316     A.U. after    9 cycles
 SCF Done:  E(RB3LYP) =  -639.020929300     A.U. after    6 cycles
 SCF Done:  E(RB3LYP) =  -639.020929403     A.U. after    7 cycles
 Optimization completed.
    -- Stationary point found.
 Normal termination of Gaussian 16 at Thu Dec 10 23:36:41 2020.

 --------------------------------------------------------------------
 #N Geom=AllCheck Guess=TCheck SCRF=Check GenChk RB3LYP/6-31G(d) Freq
 --------------------------------------------------------------------

 Structure from the checkpoint file:  "JID_6515.chk"
 -------------------------------
 CID_144698463_JID_6515_neutraal
 -------------------------------
 Charge =  0 Multiplicity = 1

 SCF Done:  E(RB3LYP) =  -639.020929403     A.U. after    1 cycles

  Exact polarizability: 172.017  21.707 160.297   3.359  -3.035 149.285
 Approx polarizability: 232.749  45.772 237.661   6.768  -7.338 239.912

                      1                      2                      3
                      A                      A                      A
 Frequencies --     19.7895                39.4588                48.9139
 Red. masses --      3.7428                 3.4587                 3.6011
 Frc consts  --      0.0009                 0.0032                 0.0051
 IR Inten    --      0.1024                 0.0627                 0.0283

                      4                      5                      6
                      A                      A                      A
 Frequencies --     69.2718                89.6311               120.0317
 Red. masses --      3.7725                 2.5419                 2.9130
 Frc consts  --      0.0107                 0.0120                 0.0247
 IR Inten    --      0.0422                 0.6124                 0.1231

                      7                      8                      9
                      A                      A                      A
 Frequencies --    145.2785               150.7414               159.3854
 Red. masses --      1.3886                 1.0634                 1.6589
 Frc consts  --      0.0173                 0.0142                 0.0248
 IR Inten    --      0.1781                 0.1584                 0.8947

                     10                     11                     12
                      A                      A                      A
 Frequencies --    182.6795               195.0581               197.2506
 Red. masses --      2.5241                 2.3568                 1.4821
 Frc consts  --      0.0496                 0.0528                 0.0340
 IR Inten    --      0.8247                 0.3026                 0.8719

                     13                     14                     15
                      A                      A                      A
 Frequencies --    237.7454               254.2304               283.3399
 Red. masses --      2.4950                 2.4706                 3.1703
 Frc consts  --      0.0831                 0.0941                 0.1500
 IR Inten    --      2.2559                 1.3227                 2.6660

                     16                     17                     18
                      A                      A                      A
 Frequencies --    305.4136               325.4544               353.3871
 Red. masses --      2.6906                 2.6549                 2.6648
 Frc consts  --      0.1479                 0.1657                 0.1961
 IR Inten    --      0.7121                 1.6240                 0.5007

                     19                     20                     21
                      A                      A                      A
 Frequencies --    370.0432               434.7032               449.0366
 Red. masses --      2.7800                 2.4948                 3.0042
 Frc consts  --      0.2243                 0.2778                 0.3569
 IR Inten    --      1.1384                 3.1383                 2.3403

                     22                     23                     24
                      A                      A                      A
 Frequencies --    486.7616               531.2816               562.6654
 Red. masses --      3.2534                 3.8177                 3.7494
 Frc consts  --      0.4542                 0.6349                 0.6994
 IR Inten    --      3.2174                 3.1642                 0.6885

                     25                     26                     27
                      A                      A                      A
 Frequencies --    589.0643               616.3098               662.7687
 Red. masses --      2.6589                 3.4934                 3.3489
 Frc consts  --      0.5436                 0.7818                 0.8667
 IR Inten    --      4.7193                 6.2853                 1.5723

                     28                     29                     30
                      A                      A                      A
 Frequencies --    687.9285               721.0713               748.5261
 Red. masses --      1.9933                 4.2396                 1.8594
 Frc consts  --      0.5558                 1.2988                 0.6138
 IR Inten    --     11.3474                 1.3699                25.5682

                     31                     32                     33
                      A                      A                      A
 Frequencies --    758.2867               788.5824               822.9346
 Red. masses --      1.6459                 2.0173                 2.2790
 Frc consts  --      0.5576                 0.7391                 0.9093
 IR Inten    --     64.7712                19.8992                18.8084

                     34                     35                     36
                      A                      A                      A
 Frequencies --    829.5984               870.6307               885.9554
 Red. masses --      2.5145                 1.3126                 1.3224
 Frc consts  --      1.0196                 0.5862                 0.6116
 IR Inten    --     18.4312                 0.6621                 0.6865

                     37                     38                     39
                      A                      A                      A
 Frequencies --    931.7230               941.2898               946.9084
 Red. masses --      1.3558                 1.8354                 1.3592
 Frc consts  --      0.6934                 0.9582                 0.7181
 IR Inten    --     21.1230                17.3265                 1.3361

                     40                     41                     42
                      A                      A                      A
 Frequencies --    982.4876               990.8943              1017.7205
 Red. masses --      1.2546                 1.6232                 1.5644
 Frc consts  --      0.7135                 0.9390                 0.9547
 IR Inten    --      0.0651                 0.6854                 0.8244

                     43                     44                     45
                      A                      A                      A
 Frequencies --   1027.2923              1040.8332              1053.2078
 Red. masses --      1.4709                 1.2982                 3.1295
 Frc consts  --      0.9146                 0.8286                 2.0453
 IR Inten    --     15.7127                14.6044                 0.5679

                     46                     47                     48
                      A                      A                      A
 Frequencies --   1073.8573              1076.4995              1077.8530
 Red. masses --      1.8070                 1.6792                 1.5461
 Frc consts  --      1.2277                 1.1465                 1.0583
 IR Inten    --      1.1695                 4.1702                 1.8755

                     49                     50                     51
                      A                      A                      A
 Frequencies --   1080.2069              1100.9445              1130.4347
 Red. masses --      1.9052                 2.8597                 2.3075
 Frc consts  --      1.3098                 2.0422                 1.7373
 IR Inten    --      3.8595                 3.1047                 4.3565

                     52                     53                     54
                      A                      A                      A
 Frequencies --   1147.6395              1169.3359              1174.0901
 Red. masses --      1.7856                 1.8595                 1.6112
 Frc consts  --      1.3856                 1.4981                 1.3086
 IR Inten    --     31.9798                16.7436                18.9282

                     55                     56                     57
                      A                      A                      A
 Frequencies --   1196.0683              1204.9681              1226.9052
 Red. masses --      1.0969                 1.5645                 1.7629
 Frc consts  --      0.9245                 1.3384                 1.5635
 IR Inten    --      0.4749                13.3536                 1.7614

                     58                     59                     60
                      A                      A                      A
 Frequencies --   1232.7601              1263.4881              1315.9871
 Red. masses --      2.0960                 2.0755                 1.5518
 Frc consts  --      1.8767                 1.9521                 1.5834
 IR Inten    --      0.2441                 1.0694                 1.9702

                     61                     62                     63
                      A                      A                      A
 Frequencies --   1328.7059              1332.5537              1342.9541
 Red. masses --      1.3720                 1.3144                 5.2996
 Frc consts  --      1.4272                 1.3752                 5.6314
 IR Inten    --      1.4199                 1.1534                 0.1632

                     64                     65                     66
                      A                      A                      A
 Frequencies --   1356.2653              1393.9548              1407.8519
 Red. masses --      1.3814                 1.4007                 1.4332
 Frc consts  --      1.4971                 1.6036                 1.6737
 IR Inten    --      5.8331                 5.3033                10.2626

                     67                     68                     69
                      A                      A                      A
 Frequencies --   1441.7896              1443.1410              1467.1778
 Red. masses --      1.2467                 1.2917                 1.1971
 Frc consts  --      1.5269                 1.5850                 1.5183
 IR Inten    --      1.6495                 1.6462                 5.9043

                     70                     71                     72
                      A                      A                      A
 Frequencies --   1482.7033              1489.6813              1507.4384
 Red. masses --      1.1638                 1.9714                 1.1643
 Frc consts  --      1.5075                 2.5776                 1.5588
 IR Inten    --      1.2767                 1.9838                 3.2654

                     73                     74                     75
                      A                      A                      A
 Frequencies --   1511.1406              1516.2095              1517.5053
 Red. masses --      1.2010                 1.0541                 1.1074
 Frc consts  --      1.6158                 1.4278                 1.5025
 IR Inten    --     15.9642                 3.4893                 4.7365

                     76                     77                     78
                      A                      A                      A
 Frequencies --   1518.5878              1520.1888              1525.1217
 Red. masses --      1.0659                 1.0849                 1.2164
 Frc consts  --      1.4482                 1.4772                 1.6670
 IR Inten    --      3.3050                 1.6696                11.4922

                     79                     80                     81
                      A                      A                      A
 Frequencies --   1540.4570              1554.3944              1631.9678
 Red. masses --      1.8902                 1.0467                 5.5796
 Frc consts  --      2.6427                 1.4900                 8.7553
 IR Inten    --     12.2039                 5.5271                 0.3093

                     82                     83                     84
                      A                      A                      A
 Frequencies --   1663.0239              1729.4413              1739.0751
 Red. masses --      5.6850                 4.4643                 7.0645
 Frc consts  --      9.2636                 7.8671                12.5884
 IR Inten    --      1.0265                 4.5250                 1.3221

                     85                     86                     87
                      A                      A                      A
 Frequencies --   2999.5409              3032.5243              3032.8136
 Red. masses --      1.0509                 1.0574                 1.0637
 Frc consts  --      5.5706                 5.7292                 5.7644
 IR Inten    --     69.7893                35.5890                12.6256

                     88                     89                     90
                      A                      A                      A
 Frequencies --   3044.7040              3050.9558              3074.5163
 Red. masses --      1.0427                 1.0602                 1.0996
 Frc consts  --      5.6953                 5.8146                 6.1240
 IR Inten    --     10.1033                44.0636                20.8213

                     91                     92                     93
                      A                      A                      A
 Frequencies --   3076.2394              3099.8529              3104.5268
 Red. masses --      1.0836                 1.0995                 1.0965
 Frc consts  --      6.0419                 6.2247                 6.2268
 IR Inten    --     39.7502                31.4758                17.4575

                     94                     95                     96
                      A                      A                      A
 Frequencies --   3116.9144              3132.5083              3135.3918
 Red. masses --      1.1026                 1.1026                 1.0911
 Frc consts  --      6.3113                 6.3747                 6.3198
 IR Inten    --     35.0033                13.5757                 3.2853

                     97                     98                     99
                      A                      A                      A
 Frequencies --   3150.4076              3156.0250              3166.7657
 Red. masses --      1.0938                 1.0638                 1.0848
 Frc consts  --      6.3961                 6.2430                 6.4095
 IR Inten    --     42.9810                29.0882                 4.3560

                    100                    101                    102
                      A                      A                      A
 Frequencies --   3174.3492              3184.5311              3195.6165
 Red. masses --      1.0865                 1.0873                 1.0922
 Frc consts  --      6.4505                 6.4965                 6.5713
 IR Inten    --     10.9581                 3.2120                34.4177

                    103                    104                    105
                      A                      A                      A
 Frequencies --   3208.5136              3236.2102              3491.5030
 Red. masses --      1.0976                 1.1150                 1.0733
 Frc consts  --      6.6571                 6.8800                 7.7093
 IR Inten    --     26.0067                19.8940                 0.9474

 - Thermochemistry -
 -------------------
 Temperature   298.150 Kelvin.  Pressure   1.00000 Atm.
 Atom     1 has atomic number  6 and mass  12.00000

 Molecular mass:   215.16740 amu.
 Principal axes and moments of inertia in atomic units:
                           1         2         3
     Eigenvalues --  2635.042055110.200565764.42248
           X            0.99982  -0.01651  -0.00893
           Y            0.01633   0.99966  -0.02024
           Z            0.00926   0.02009   0.99976
 This molecule is an asymmetric top.
 Rotational symmetry number  1.
 Warning -- assumption of classical behavior for rotation
           may cause significant error
 Rotational temperatures (Kelvin)      0.03287     0.01695     0.01503
 Rotational constants (GHZ):           0.68490     0.35316     0.31308
 Zero-point vibrational energy     856659.9 (Joules/Mol)
                                  204.74662 (Kcal/Mol)
 Warning -- explicit consideration of  26 degrees of freedom as
           vibrations may cause significant error
 Vibrational temperatures:     28.47    56.77    70.38    99.67   128.96
          (Kelvin)            172.70   209.02   216.88   229.32   262.84
                              280.65   283.80   342.06   365.78   407.66
                              439.42   468.26   508.45   532.41   625.44
                              646.06   700.34   764.40   809.55   847.53
                              886.73   953.58   989.78  1037.46  1076.96
                             1091.01  1134.59  1184.02  1193.61  1252.64
                             1274.69  1340.54  1354.31  1362.39  1413.58
                             1425.68  1464.27  1478.04  1497.53  1515.33
                             1545.04  1548.84  1550.79  1554.18  1584.01
                             1626.44  1651.20  1682.41  1689.25  1720.88
                             1733.68  1765.24  1773.67  1817.88  1893.41
                             1911.71  1917.25  1932.21  1951.36  2005.59
                             2025.58  2074.41  2076.36  2110.94  2133.28
                             2143.32  2168.87  2174.19  2181.49  2183.35
                             2184.91  2187.21  2194.31  2216.37  2236.43
                             2348.04  2392.72  2488.28  2502.14  4315.67
                             4363.13  4363.54  4380.65  4389.64  4423.54
                             4426.02  4460.00  4466.72  4484.54  4506.98
                             4511.13  4532.73  4540.82  4556.27  4567.18
                             4581.83  4597.78  4616.34  4656.18  5023.49

 Zero-point correction=                           0.326285 (Hartree/Particle)
 Thermal correction to Energy=                    0.343658
 Thermal correction to Enthalpy=                  0.344603
 Thermal correction to Gibbs Free Energy=         0.280170
 Sum of electronic and zero-point Energies=           -638.694645
 Sum of electronic and thermal Energies=              -638.677271
 Sum of electronic and thermal Enthalpies=            -638.676327
 Sum of electronic and thermal Free Energies=         -638.740759

                     E (Thermal)             CV                S
                      KCal/Mol        Cal/Mol-Kelvin    Cal/Mol-Kelvin
 Total                  215.649             64.924            135.610
 Electronic               0.000              0.000              0.000
 Translational            0.889              2.981             42.002
 Rotational               0.889              2.981             32.718
 Vibrational            213.871             58.962             60.890
 Vibration     1          0.593              1.986              6.655
 Vibration     2          0.594              1.981              5.286
 Vibration     3          0.595              1.978              4.861
 Vibration     4          0.598              1.969              4.174
 Vibration     5          0.602              1.957              3.668
 Vibration     6          0.609              1.933              3.100
 Vibration     7          0.617              1.908              2.733
 Vibration     8          0.618              1.902              2.663
 Vibration     9          0.621              1.892              2.557
 Vibration    10          0.630              1.863              2.301
 Vibration    11          0.636              1.847              2.179
 Vibration    12          0.637              1.844              2.159
 Vibration    13          0.656              1.783              1.820
 Vibration    14          0.665              1.756              1.701
 Vibration    15          0.682              1.705              1.513
 Vibration    16          0.696              1.663              1.387
 Vibration    17          0.710              1.625              1.283
 Vibration    18          0.730              1.568              1.151
 Vibration    19          0.742              1.534              1.080
 Vibration    20          0.795              1.395              0.843
 Vibration    21          0.808              1.363              0.799
 Vibration    22          0.843              1.279              0.692
 Vibration    23          0.886              1.181              0.584
 Vibration    24          0.918              1.112              0.519
 Vibration    25          0.946              1.055              0.469
 Vibration    26          0.976              0.997              0.422

 Optimization completed.
    -- Stationary point found.
 Normal termination of Gaussian 16 at Thu Dec 10 23:49:22 2020.

 ----------------------------------------------------------------------
 # B3LYP/6-311++G(d,p) empiricaldispersion=gd3bj scf=xqc pop=npa geom=c
 heck
 ----------------------------------------------------------------------

 ---------------------------------------
 CID_144698463_JID_6515_Energie_neutraal
 ---------------------------------------
 Structure from the checkpoint file:  "JID_6515.chk"
 Charge =  0 Multiplicity = 1

 SCF Done:  E(RB3LYP) =  -639.195501761     A.U. after   15 cycles
 Normal termination of Gaussian 16 at Thu Dec 10 23:55:00 2020.

 ----------------------------------------------------------------------
 # B3LYP/6-311++G(d,p) empiricaldispersion=gd3bj scf=xqc pop=npa geom=c
 heck
 ----------------------------------------------------------------------

 -------------------------------------
 CID_144698463_JID_6515_Energie_kation
 -------------------------------------
 Structure from the checkpoint file:  "JID_6515.chk"
 Charge =  1 Multiplicity = 2

 SCF Done:  E(UB3LYP) =  -638.908338671     A.U. after   25 cycles
 Normal termination of Gaussian 16 at Fri Dec 11 00:07:20 2020.
 Gaussian 16:  ES64L-G16RevA.03 25-Dec-2016

 ----------------------------------------------------------------------
 # B3LYP/6-311++G(d,p) empiricaldispersion=gd3bj scf=xqc pop=npa geom=c
 heck
 ----------------------------------------------------------------------

 ------------------------------------
 CID_144698463_JID_6515_Energie_anion
 ------------------------------------
 Structure from the checkpoint file:  "JID_6515.chk"
 Charge = -1 Multiplicity = 2

                         Standard orientation:
 ---------------------------------------------------------------------
 Center     Atomic      Atomic             Coordinates (Angstroms)
 Number     Number       Type             X           Y           Z
 ---------------------------------------------------------------------
      1          6           0       -1.587632    3.140385   -0.053700
      2          6           0       -0.402528    2.399422    0.492652
      3          6           0       -0.234803    1.069150    0.533194
      4          6           0        1.008996    0.447204    1.129905
      5          6           0        1.882332   -0.320942    0.105889
      6          6           0        2.386261    0.626665   -0.965909
      7          6           0        3.649932    1.011236   -1.141012
      8          7           0        2.897313   -1.077216    0.832989
      9          6           0        3.569060   -2.107419    0.046353
     10          6           0       -1.234319    0.119558   -0.045095
     11          6           0       -1.367392    0.027613   -1.437991
     12          6           0       -2.259359   -0.867908   -2.025182
     13          6           0       -3.040725   -1.687938   -1.213011
     14          6           0       -2.925389   -1.595566    0.173088
     15          6           0       -2.030364   -0.705248    0.777216
     16          6           0       -1.949121   -0.631839    2.283432
     17          1           0       -2.370579    2.461425   -0.400050
     18          1           0       -1.296831    3.783778   -0.895397
     19          1           0       -2.017580    3.802260    0.709965
     20          1           0        0.392831    3.019537    0.907941
     21          1           0        1.621417    1.225756    1.601809
     22          1           0        0.743762   -0.276468    1.908351
     23          1           0        1.232060   -1.062137   -0.379923
     24          1           0        1.614927    1.043194   -1.612373
     25          1           0        3.926982    1.724186   -1.912211
     26          1           0        4.461013    0.629735   -0.525149
     27          1           0        3.581282   -0.436114    1.230838
     28          1           0        4.052987   -1.748020   -0.875957
     29          1           0        4.327037   -2.594501    0.668731
     30          1           0        2.834360   -2.869681   -0.238299
     31          1           0       -0.759010    0.675007   -2.063316
     32          1           0       -2.343693   -0.921294   -3.106978
     33          1           0       -3.743305   -2.389729   -1.653831
     34          1           0       -3.548454   -2.222680    0.806668
     35          1           0       -1.725562    0.384516    2.621202
     36          1           0       -2.892557   -0.947438    2.740067
     37          1           0       -1.161964   -1.287066    2.678036
 ---------------------------------------------------------------------

 SCF Done:  E(UB3LYP) =  -639.179847496     A.U. after   33 cycles
 SCF Done:  E(UB3LYP) =  -639.179847496     a.u. after    1 cycles

 The electronic state is 2-A.
 Alpha  occ. eigenvalues --  -14.20705 -10.11049 -10.09403 -10.09275 -10.08884
 Alpha  occ. eigenvalues --  -10.08478 -10.08137 -10.08089 -10.08013 -10.08002
 Alpha  occ. eigenvalues --  -10.07975 -10.07788 -10.07780 -10.07591 -10.07125
 Alpha  occ. eigenvalues --  -10.07117  -0.81905  -0.77407  -0.72429  -0.68620
 Alpha  occ. eigenvalues --   -0.68115  -0.65339  -0.64623  -0.60211  -0.59165
 Alpha  occ. eigenvalues --   -0.55687  -0.52840  -0.51930  -0.49745  -0.46067
 Alpha  occ. eigenvalues --   -0.44640  -0.40323  -0.39990  -0.38253  -0.37997
 Alpha  occ. eigenvalues --   -0.36934  -0.36126  -0.34333  -0.33568  -0.32842
 Alpha  occ. eigenvalues --   -0.32695  -0.32274  -0.31759  -0.31344  -0.30072
 Alpha  occ. eigenvalues --   -0.29388  -0.28527  -0.27639  -0.26943  -0.26572
 Alpha  occ. eigenvalues --   -0.26380  -0.25141  -0.24580  -0.23303  -0.17286
 Alpha  occ. eigenvalues --   -0.16555  -0.15631  -0.14667  -0.13685   0.04206
 Alpha virt. eigenvalues --    0.05841   0.06391   0.06614   0.07158   0.07558
 Alpha virt. eigenvalues --    0.07693   0.07877   0.08497   0.08854   0.09140
 Alpha virt. eigenvalues --    0.09575   0.10269   0.10456   0.10686   0.10946

  Beta  occ. eigenvalues --  -14.20694 -10.11046 -10.09382 -10.09274 -10.08880
  Beta  occ. eigenvalues --  -10.08479 -10.08125 -10.08080 -10.08008 -10.07989
  Beta  occ. eigenvalues --  -10.07960 -10.07780 -10.07774 -10.07574 -10.07101
  Beta  occ. eigenvalues --  -10.07089  -0.81888  -0.77391  -0.72412  -0.68599
  Beta  occ. eigenvalues --   -0.68092  -0.65313  -0.64600  -0.60178  -0.59131
  Beta  occ. eigenvalues --   -0.55641  -0.52804  -0.51899  -0.49713  -0.46027
  Beta  occ. eigenvalues --   -0.44606  -0.40294  -0.39950  -0.38224  -0.37976
  Beta  occ. eigenvalues --   -0.36903  -0.36096  -0.34304  -0.33538  -0.32820
  Beta  occ. eigenvalues --   -0.32673  -0.32243  -0.31730  -0.31317  -0.30045
  Beta  occ. eigenvalues --   -0.29360  -0.28500  -0.27612  -0.26921  -0.26553
  Beta  occ. eigenvalues --   -0.26358  -0.25112  -0.24562  -0.23284  -0.17265
  Beta  occ. eigenvalues --   -0.16543  -0.15614  -0.14654  -0.13671
  Beta virt. eigenvalues --    0.06097   0.06667   0.06986   0.07074   0.07354
  Beta virt. eigenvalues --    0.07600   0.07991   0.08389   0.08924   0.09114
  Beta virt. eigenvalues --    0.09382   0.09853   0.10579   0.10655   0.10894

 Mulliken charges and spin densities:
               1          2
     1  C    0.923764  -1.702859
     2  C   -0.137789  -0.445156
     3  C    0.176000   1.171455
     4  C    0.227301  -0.956257
     5  C   -0.006677  -0.406914
     6  C   -1.108002   1.461569
     7  C    0.768629  -1.679247
     8  N   -0.112544   0.104231
     9  C    0.156588  -0.490755
    10  C    0.019915   0.310806
    11  C   -0.736415   0.604774
    12  C    0.350656  -0.829373
    13  C    0.871754  -1.147877
    14  C   -0.276195   0.146485
    15  C   -1.176800   1.263794
    16  C    0.839678  -1.529587
    17  H    0.156034  -0.017734
    18  H   -0.155021   0.325845
    19  H   -0.133609   0.281611
    20  H   -0.194814   0.335205
    21  H    0.016838   0.139698
    22  H    0.266524  -0.047142
    23  H    0.417214  -0.278494
    24  H   -0.010257   0.198317
    25  H   -0.376559   0.517314
    26  H   -0.159452   0.289866
    27  H    0.104660   0.129366
    28  H    0.039933   0.088758
    29  H   -0.257617   0.386351
    30  H   -0.092193   0.227736
    31  H   -0.114388   0.265253
    32  H   -0.491003   0.668537
    33  H   -0.438619   0.599993
    34  H   -0.373645   0.544273
    35  H    0.083586   0.076975
    36  H   -0.176727   0.324542
    37  H    0.109253   0.068638
 Sum of Mulliken charges =  -1.00000   1.00000

 Dipole moment (field-independent basis, Debye):
    X=              0.4291    Y=              0.1474    Z=              2.3695  Tot=              2.4125
 Quadrupole moment (field-independent basis, Debye-Ang):
   XX=           -178.9881   YY=           -153.5077   ZZ=           -144.2933
   XY=             -6.5361   XZ=             -1.1727   YZ=              2.2226

 Summary of Natural Population Analysis:

                                       Natural Population
                Natural  -----------------------------------------------
    Atom  No    Charge         Core      Valence    Rydberg      Total
 -----------------------------------------------------------------------
      C    1   -0.30099      0.99965     2.29675    0.00459     3.30099
      C    2   -0.07838      0.99945     2.06966    0.00928     3.07838
      C    3   -0.02191      0.99945     2.00856    0.01390     3.02191
      C    4   -0.19327      0.99956     2.18373    0.00997     3.19327
      C    5   -0.02748      0.99956     2.01481    0.01311     3.02748
      C    6   -0.08813      0.99955     2.07753    0.01106     3.08813
      C    7   -0.19797      0.99956     2.19047    0.00794     3.19797
      N    8   -0.33771      0.99974     2.82654    0.01142     3.83771
      C    9   -0.17788      0.99966     2.17126    0.00696     3.17788
      C   10   -0.03130      0.99943     2.01948    0.01239     3.03130
      C   11   -0.09499      0.99951     2.08526    0.01022     3.09499
      C   12   -0.10180      0.99955     2.09201    0.01024     3.10180
      C   13   -0.09937      0.99956     2.08984    0.00997     3.09937
      C   14   -0.09802      0.99951     2.08854    0.00997     3.09802
      C   15   -0.01133      0.99947     2.00205    0.00980     3.01133
      C   16   -0.29649      0.99964     2.29138    0.00548     3.29649
      H   17    0.10653      0.00000     0.39236    0.00110     0.39347
      H   18    0.10385      0.00000     0.39481    0.00134     0.39615
      H   19    0.10141      0.00000     0.39745    0.00114     0.39859
      H   20    0.09265      0.00000     0.40617    0.00118     0.40735
      H   21    0.09904      0.00000     0.39938    0.00158     0.40096
      H   22    0.10811      0.00000     0.38993    0.00196     0.39189
      H   23    0.10119      0.00000     0.39622    0.00259     0.39881
      H   24    0.09811      0.00000     0.39979    0.00210     0.40189
      H   25    0.09689      0.00000     0.40204    0.00107     0.40311
      H   26    0.08828      0.00000     0.41005    0.00167     0.41172
      H   27    0.17068      0.00000     0.32611    0.00321     0.32932
      H   28    0.08334      0.00000     0.41478    0.00188     0.41666
      H   29    0.09296      0.00000     0.40593    0.00112     0.40704
      H   30    0.09138      0.00000     0.40737    0.00125     0.40862
      H   31    0.10204      0.00000     0.39577    0.00219     0.39796
      H   32    0.10262      0.00000     0.39611    0.00127     0.39738
      H   33    0.10179      0.00000     0.39690    0.00131     0.39821
      H   34    0.10006      0.00000     0.39873    0.00121     0.39994
      H   35    0.10786      0.00000     0.39126    0.00087     0.39214
      H   36    0.10344      0.00000     0.39572    0.00084     0.39656
      H   37    0.10474      0.00000     0.39419    0.00107     0.39526
 =======================================================================
   * Total *   -0.00000     15.99283    42.81893    0.18824    59.00000

 Normal termination of Gaussian 16 at Fri Dec 11 00:24:19 2020.
