 Gaussian 16, Revision A.03,

 -----------------------------------------------------------
 # opt freq B3LYP/6-31G(d) empiricaldispersion=gd3bj scf=xqc
 -----------------------------------------------------------

 -------------------------------
 CID_116264790_JID_1751_neutraal
 -------------------------------
 Symbolic Z-matrix:
 Charge =  0 Multiplicity = 1

 SCF Done:  E(RB3LYP) =  -501.647401275     A.U. after   12 cycles
 SCF Done:  E(RB3LYP) =  -501.650859420     A.U. after   11 cycles
 SCF Done:  E(RB3LYP) =  -501.650550348     A.U. after   11 cycles
 SCF Done:  E(RB3LYP) =  -501.651822223     A.U. after   11 cycles
 SCF Done:  E(RB3LYP) =  -501.651453808     A.U. after   11 cycles
 SCF Done:  E(RB3LYP) =  -501.651590570     A.U. after   10 cycles
 SCF Done:  E(RB3LYP) =  -501.652126843     A.U. after    8 cycles
 SCF Done:  E(RB3LYP) =  -501.652304912     A.U. after   10 cycles
 SCF Done:  E(RB3LYP) =  -501.652396251     A.U. after   10 cycles
 SCF Done:  E(RB3LYP) =  -501.652440069     A.U. after   10 cycles
 SCF Done:  E(RB3LYP) =  -501.655344236     A.U. after    9 cycles
 SCF Done:  E(RB3LYP) =  -501.655347099     A.U. after    8 cycles
 SCF Done:  E(RB3LYP) =  -501.655348098     A.U. after    7 cycles
 SCF Done:  E(RB3LYP) =  -501.655348460     A.U. after    7 cycles
 SCF Done:  E(RB3LYP) =  -501.655348576     A.U. after    6 cycles
 SCF Done:  E(RB3LYP) =  -501.655348592     A.U. after    6 cycles
 Optimization completed.
    -- Stationary point found.
 Normal termination of Gaussian 16 at Tue Dec  8 21:13:49 2020.

 --------------------------------------------------------------------
 #N Geom=AllCheck Guess=TCheck SCRF=Check GenChk RB3LYP/6-31G(d) Freq
 --------------------------------------------------------------------

 Structure from the checkpoint file:  "JID_1751.chk"
 -------------------------------
 CID_116264790_JID_1751_neutraal
 -------------------------------
 Charge =  0 Multiplicity = 1

 SCF Done:  E(RB3LYP) =  -501.655348592     A.U. after    1 cycles

  Exact polarizability: 117.619  -0.160 102.537  -0.324   1.517  90.906
 Approx polarizability: 143.451   0.918 138.627   0.149  -1.512 137.063

                      1                      2                      3
                      A                      A                      A
 Frequencies --     40.0200                64.6498                87.9272
 Red. masses --      3.2913                 3.0849                 3.6939
 Frc consts  --      0.0031                 0.0076                 0.0168
 IR Inten    --      0.2264                 1.2598                 3.4245

                      4                      5                      6
                      A                      A                      A
 Frequencies --    111.2639               129.1333               173.7989
 Red. masses --      2.3553                 3.1560                 2.1544
 Frc consts  --      0.0172                 0.0310                 0.0383
 IR Inten    --      2.4953                 0.7897                 1.1609

                      7                      8                      9
                      A                      A                      A
 Frequencies --    214.8687               230.0215               241.5099
 Red. masses --      1.6785                 1.5392                 1.9907
 Frc consts  --      0.0457                 0.0480                 0.0684
 IR Inten    --      2.0569                 0.3841                 1.8097

                     10                     11                     12
                      A                      A                      A
 Frequencies --    258.9277               278.4399               298.0019
 Red. masses --      1.2783                 1.4421                 3.0487
 Frc consts  --      0.0505                 0.0659                 0.1595
 IR Inten    --     22.3191                14.4354                 1.6573

                     13                     14                     15
                      A                      A                      A
 Frequencies --    316.6572               342.7140               393.6911
 Red. masses --      1.9923                 2.5037                 2.6169
 Frc consts  --      0.1177                 0.1733                 0.2390
 IR Inten    --      3.1715                 3.3942                 3.7386

                     16                     17                     18
                      A                      A                      A
 Frequencies --    437.6353               478.3424               528.0905
 Red. masses --      3.0327                 2.5342                 2.2975
 Frc consts  --      0.3422                 0.3416                 0.3775
 IR Inten    --      1.3882                 3.5465                 3.2305

                     19                     20                     21
                      A                      A                      A
 Frequencies --    550.9638               607.1893               764.4469
 Red. masses --      2.6309                 1.9106                 1.3568
 Frc consts  --      0.4706                 0.4150                 0.4671
 IR Inten    --      5.4560                 1.9307                26.9339

                     22                     23                     24
                      A                      A                      A
 Frequencies --    765.9332               828.6114               849.3678
 Red. masses --      1.4936                 1.9331                 1.6220
 Frc consts  --      0.5163                 0.7820                 0.6894
 IR Inten    --     23.5919                19.7385                 3.5126

                     25                     26                     27
                      A                      A                      A
 Frequencies --    873.2933               892.5163               904.3902
 Red. masses --      1.5114                 1.7864                 1.6468
 Frc consts  --      0.6791                 0.8384                 0.7936
 IR Inten    --     80.8970                21.9802                86.3453

                     28                     29                     30
                      A                      A                      A
 Frequencies --    936.4483               969.5694               979.1078
 Red. masses --      1.7613                 1.7236                 1.5060
 Frc consts  --      0.9100                 0.9546                 0.8506
 IR Inten    --     16.0800                29.0960                17.7133

                     31                     32                     33
                      A                      A                      A
 Frequencies --    996.3965              1027.8583              1062.2139
 Red. masses --      1.8124                 1.4721                 1.2292
 Frc consts  --      1.0602                 0.9163                 0.8171
 IR Inten    --      6.0103                 1.2632                 1.8084

                     34                     35                     36
                      A                      A                      A
 Frequencies --   1065.6710              1078.8840              1083.6375
 Red. masses --      2.0173                 2.3246                 2.9647
 Frc consts  --      1.3498                 1.5942                 2.0511
 IR Inten    --      5.3082                 7.2800                 9.5234

                     37                     38                     39
                      A                      A                      A
 Frequencies --   1117.9115              1133.6477              1161.9526
 Red. masses --      2.8628                 2.3165                 1.8965
 Frc consts  --      2.1079                 1.7540                 1.5086
 IR Inten    --     50.4681                47.9112                 4.2931

                     40                     41                     42
                      A                      A                      A
 Frequencies --   1184.9316              1203.3041              1246.5608
 Red. masses --      2.1225                 1.9762                 1.4780
 Frc consts  --      1.7558                 1.6859                 1.3531
 IR Inten    --     20.5272                 0.6322                 5.9613

                     43                     44                     45
                      A                      A                      A
 Frequencies --   1252.6877              1266.1888              1308.5954
 Red. masses --      1.3765                 1.2046                 1.2449
 Frc consts  --      1.2727                 1.1378                 1.2560
 IR Inten    --      2.5855                 5.6012                 2.2456

                     46                     47                     48
                      A                      A                      A
 Frequencies --   1333.2261              1345.7450              1367.8900
 Red. masses --      1.1737                 1.1832                 1.3269
 Frc consts  --      1.2292                 1.2625                 1.4628
 IR Inten    --      8.1447                 7.5785                12.8237

                     49                     50                     51
                      A                      A                      A
 Frequencies --   1378.8783              1393.3432              1404.6426
 Red. masses --      1.3610                 1.4134                 1.2960
 Frc consts  --      1.5246                 1.6167                 1.5065
 IR Inten    --     29.6660                18.2795                 8.6608

                     52                     53                     54
                      A                      A                      A
 Frequencies --   1418.2201              1430.2572              1436.6875
 Red. masses --      1.4081                 1.3250                 1.3897
 Frc consts  --      1.6687                 1.5970                 1.6900
 IR Inten    --      6.2523                12.0543                 2.3693

                     55                     56                     57
                      A                      A                      A
 Frequencies --   1444.3279              1446.6188              1507.0814
 Red. masses --      1.3276                 1.2811                 1.0872
 Frc consts  --      1.6318                 1.5796                 1.4549
 IR Inten    --      0.7494                16.5918                 9.0126

                     58                     59                     60
                      A                      A                      A
 Frequencies --   1517.5815              1521.5188              1526.9707
 Red. masses --      1.0713                 1.0707                 1.0797
 Frc consts  --      1.4536                 1.4604                 1.4832
 IR Inten    --     10.8988                 1.0206                21.6648

                     61                     62                     63
                      A                      A                      A
 Frequencies --   1530.7941              1537.8532              1540.9442
 Red. masses --      1.0548                 1.1205                 1.1004
 Frc consts  --      1.4563                 1.5613                 1.5395
 IR Inten    --     13.6702                33.2927                 7.8369

                     64                     65                     66
                      A                      A                      A
 Frequencies --   1543.8547              1549.0468              1553.4339
 Red. masses --      1.1378                 1.1103                 1.1099
 Frc consts  --      1.5978                 1.5697                 1.5781
 IR Inten    --     55.4290                28.2229                 2.0524

                     67                     68                     69
                      A                      A                      A
 Frequencies --   1693.6830              2905.1429              2940.5343
 Red. masses --      1.0900                 1.0813                 1.0826
 Frc consts  --      1.8422                 5.3768                 5.5153
 IR Inten    --     31.4979                73.1453                67.3706

                     70                     71                     72
                      A                      A                      A
 Frequencies --   2959.7960              2993.3123              3032.1661
 Red. masses --      1.0735                 1.0706                 1.0630
 Frc consts  --      5.5409                 5.6515                 5.7584
 IR Inten    --     87.7436                73.6316                26.9909

                     73                     74                     75
                      A                      A                      A
 Frequencies --   3048.5605              3055.5331              3058.7518
 Red. masses --      1.0391                 1.0396                 1.0716
 Frc consts  --      5.6898                 5.7183                 5.9070
 IR Inten    --     16.2833                27.3590                30.2525

                     76                     77                     78
                      A                      A                      A
 Frequencies --   3069.1618              3072.6965              3086.7936
 Red. masses --      1.0932                 1.0864                 1.0929
 Frc consts  --      6.0671                 6.0436                 6.1354
 IR Inten    --     52.6650                55.3560                25.1174

                     79                     80                     81
                      A                      A                      A
 Frequencies --   3109.1121              3113.0105              3124.7049
 Red. masses --      1.0975                 1.1011                 1.0989
 Frc consts  --      6.2509                 6.2867                 6.3219
 IR Inten    --     60.3874                41.1405                46.5994

                     82                     83                     84
                      A                      A                      A
 Frequencies --   3125.7820              3143.9784              3435.5489
 Red. masses --      1.0999                 1.1030                 1.0676
 Frc consts  --      6.3316                 6.4235                 7.4239
 IR Inten    --      9.7640                15.9094               407.0405

                     85                     86                     87
                      A                      A                      A
 Frequencies --   3455.6281              3477.6183              3565.9687
 Red. masses --      1.0725                 1.0506                 1.0923
 Frc consts  --      7.5460                 7.4860                 8.1835
 IR Inten    --     20.1719                 0.4978                 0.2743

 - Thermochemistry -
 -------------------
 Temperature   298.150 Kelvin.  Pressure   1.00000 Atm.
 Atom     1 has atomic number  6 and mass  12.00000

 Molecular mass:   160.15756 amu.
 Principal axes and moments of inertia in atomic units:
                           1         2         3
     Eigenvalues --  1414.736922580.284653266.29227
           X            0.99971  -0.02426   0.00081
           Y            0.02423   0.99922   0.03107
           Z           -0.00156  -0.03104   0.99952
 This molecule is an asymmetric top.
 Rotational symmetry number  1.
 Warning -- assumption of classical behavior for rotation
           may cause significant error
 Rotational temperatures (Kelvin)      0.06122     0.03357     0.02652
 Rotational constants (GHZ):           1.27567     0.69943     0.55254
 Zero-point vibrational energy     759236.2 (Joules/Mol)
                                  181.46180 (Kcal/Mol)
 Warning -- explicit consideration of  20 degrees of freedom as
           vibrations may cause significant error
 Vibrational temperatures:     57.58    93.02   126.51   160.08   185.79
          (Kelvin)            250.06   309.15   330.95   347.48   372.54
                              400.61   428.76   455.60   493.09   566.43
                              629.66   688.23   759.80   792.71   873.61
                             1099.87  1102.01  1192.19  1222.05  1256.47
                             1284.13  1301.22  1347.34  1394.99  1408.72
                             1433.59  1478.86  1528.29  1533.26  1552.27
                             1559.11  1608.43  1631.07  1671.79  1704.85
                             1731.29  1793.52  1802.34  1821.76  1882.78
                             1918.22  1936.23  1968.09  1983.90  2004.71
                             2020.97  2040.50  2057.82  2067.07  2078.07
                             2081.36  2168.35  2183.46  2189.13  2196.97
                             2202.47  2212.63  2217.07  2221.26  2228.73
                             2235.04  2436.83  4179.85  4230.77  4258.49
                             4306.71  4362.61  4386.20  4396.23  4400.86
                             4415.84  4420.92  4441.21  4473.32  4478.93
                             4495.75  4497.30  4523.48  4942.99  4971.88
                             5003.52  5130.63

 Zero-point correction=                           0.289178 (Hartree/Particle)
 Thermal correction to Energy=                    0.302541
 Thermal correction to Enthalpy=                  0.303485
 Thermal correction to Gibbs Free Energy=         0.249544
 Sum of electronic and zero-point Energies=           -501.366171
 Sum of electronic and thermal Energies=              -501.352808
 Sum of electronic and thermal Enthalpies=            -501.351864
 Sum of electronic and thermal Free Energies=         -501.405805

                     E (Thermal)             CV                S
                      KCal/Mol        Cal/Mol-Kelvin    Cal/Mol-Kelvin
 Total                  189.847             49.939            113.529
 Electronic               0.000              0.000              0.000
 Translational            0.889              2.981             41.122
 Rotational               0.889              2.981             30.856
 Vibrational            188.070             43.977             41.550
 Vibration     1          0.594              1.981              5.258
 Vibration     2          0.597              1.971              4.310
 Vibration     3          0.601              1.958              3.706
 Vibration     4          0.607              1.940              3.247
 Vibration     5          0.612              1.924              2.959
 Vibration     6          0.627              1.875              2.394
 Vibration     7          0.645              1.818              2.002
 Vibration     8          0.652              1.795              1.879
 Vibration     9          0.658              1.777              1.792
 Vibration    10          0.668              1.748              1.669
 Vibration    11          0.679              1.713              1.543
 Vibration    12          0.691              1.677              1.428
 Vibration    13          0.704              1.642              1.327
 Vibration    14          0.722              1.590              1.199
 Vibration    15          0.761              1.484              0.986
 Vibration    16          0.798              1.388              0.834
 Vibration    17          0.835              1.298              0.715
 Vibration    18          0.883              1.188              0.591
 Vibration    19          0.906              1.138              0.542
 Vibration    20          0.966              1.017              0.437

                           ! Non-Optimized Parameters !
 Normal termination of Gaussian 16 at Tue Dec  8 21:22:40 2020.

 ----------------------------------------------------------------------
 # B3LYP/6-311++G(d,p) empiricaldispersion=gd3bj scf=xqc pop=npa geom=c
 heck
 ----------------------------------------------------------------------

 ---------------------------------------
 CID_116264790_JID_1751_Energie_neutraal
 ---------------------------------------
 Structure from the checkpoint file:  "JID_1751.chk"
 Charge =  0 Multiplicity = 1

 SCF Done:  E(RB3LYP) =  -501.820118897     A.U. after   13 cycles
 Normal termination of Gaussian 16 at Tue Dec  8 21:26:17 2020.

 ----------------------------------------------------------------------
 # B3LYP/6-311++G(d,p) empiricaldispersion=gd3bj scf=xqc pop=npa geom=c
 heck
 ----------------------------------------------------------------------

 -------------------------------------
 CID_116264790_JID_1751_Energie_kation
 -------------------------------------
 Structure from the checkpoint file:  "JID_1751.chk"
 Charge =  1 Multiplicity = 2

 SCF Done:  E(UB3LYP) =  -501.517238182     A.U. after   22 cycles
 Normal termination of Gaussian 16 at Tue Dec  8 21:36:04 2020.
 Gaussian 16:  ES64L-G16RevA.03 25-Dec-2016

 ----------------------------------------------------------------------
 # B3LYP/6-311++G(d,p) empiricaldispersion=gd3bj scf=xqc pop=npa geom=c
 heck
 ----------------------------------------------------------------------

 ------------------------------------
 CID_116264790_JID_1751_Energie_anion
 ------------------------------------
 Structure from the checkpoint file:  "JID_1751.chk"
 Charge = -1 Multiplicity = 2

                         Standard orientation:
 ---------------------------------------------------------------------
 Center     Atomic      Atomic             Coordinates (Angstroms)
 Number     Number       Type             X           Y           Z
 ---------------------------------------------------------------------
      1          6           0        2.979391   -1.878911    0.313002
      2          6           0        1.608739   -1.525552   -0.266957
      3          6           0        0.836167   -0.443834    0.508916
      4          6           0        1.621913    0.877209    0.652530
      5          6           0        1.851606    1.620880   -0.668794
      6          8           0        0.643920    2.074218   -1.254286
      7          7           0       -0.454983   -0.227095   -0.182427
      8          6           0       -1.631747    0.011479    0.659989
      9          6           0       -1.650093    1.413891    1.271385
     10          6           0       -2.870011   -0.214080   -0.218398
     11          7           0       -2.835283   -1.558873   -0.807391
     12          1           0        3.690021   -1.052168    0.214484
     13          1           0        3.407094   -2.743230   -0.206313
     14          1           0        2.906595   -2.131873    1.377879
     15          1           0        1.717859   -1.207237   -1.311842
     16          1           0        0.983678   -2.429065   -0.286518
     17          1           0        0.652782   -0.837984    1.525726
     18          1           0        1.084824    1.548879    1.328981
     19          1           0        2.587626    0.666534    1.128813
     20          1           0        2.474961    2.504387   -0.485597
     21          1           0        2.417445    0.977574   -1.366799
     22          1           0        0.035247    1.304104   -1.166917
     23          1           0       -0.686379   -1.052355   -0.737828
     24          1           0       -1.667682   -0.728449    1.485761
     25          1           0       -1.419614    2.163956    0.508638
     26          1           0       -2.633935    1.628684    1.704947
     27          1           0       -0.911002    1.512655    2.071204
     28          1           0       -3.772596   -0.010634    0.380470
     29          1           0       -2.849382    0.513178   -1.038385
     30          1           0       -3.102753   -2.250894   -0.109108
     31          1           0       -3.510073   -1.634528   -1.564615
 ---------------------------------------------------------------------

 SCF Done:  E(UB3LYP) =  -501.807045113     A.U. after   28 cycles

 The electronic state is 2-A.
 Alpha  occ. eigenvalues --  -18.99582 -14.19621 -14.18858 -10.10989 -10.10102
 Alpha  occ. eigenvalues --  -10.09663 -10.08790 -10.06976 -10.06511 -10.06450
 Alpha  occ. eigenvalues --  -10.05893  -0.90328  -0.81749  -0.77144  -0.69785
 Alpha  occ. eigenvalues --   -0.64643  -0.64290  -0.57438  -0.55171  -0.52629
 Alpha  occ. eigenvalues --   -0.47342  -0.46375  -0.40508  -0.39938  -0.38704
 Alpha  occ. eigenvalues --   -0.36181  -0.35782  -0.35441  -0.33914  -0.32355
 Alpha  occ. eigenvalues --   -0.31472  -0.29768  -0.29098  -0.28382  -0.27759
 Alpha  occ. eigenvalues --   -0.27583  -0.26010  -0.25065  -0.24011  -0.23018
 Alpha  occ. eigenvalues --   -0.22596  -0.21612  -0.16057  -0.14877  -0.13120
 Alpha  occ. eigenvalues --    0.04519
 Alpha virt. eigenvalues --    0.06240   0.07519   0.07947   0.08775   0.09213
 Alpha virt. eigenvalues --    0.09577   0.10590   0.11073   0.11846   0.11917
 Alpha virt. eigenvalues --    0.12450   0.12559   0.13305   0.14528   0.14731

  Beta  occ. eigenvalues --  -18.99582 -14.19610 -14.18791 -10.10983 -10.10092
  Beta  occ. eigenvalues --  -10.09647 -10.08766 -10.06962 -10.06503 -10.06419
  Beta  occ. eigenvalues --  -10.05883  -0.90326  -0.81721  -0.77051  -0.69748
  Beta  occ. eigenvalues --   -0.64602  -0.64267  -0.57389  -0.55092  -0.52587
  Beta  occ. eigenvalues --   -0.47276  -0.46338  -0.40483  -0.39895  -0.38674
  Beta  occ. eigenvalues --   -0.36121  -0.35759  -0.35356  -0.33885  -0.32328
  Beta  occ. eigenvalues --   -0.31432  -0.29731  -0.29065  -0.28358  -0.27733
  Beta  occ. eigenvalues --   -0.27556  -0.25964  -0.25020  -0.23983  -0.22996
  Beta  occ. eigenvalues --   -0.22575  -0.21582  -0.16049  -0.14812  -0.13072
  Beta virt. eigenvalues --    0.06680   0.07618   0.07922   0.08407   0.09237
  Beta virt. eigenvalues --    0.09707   0.10060   0.10887   0.11262   0.12195
  Beta virt. eigenvalues --    0.12353   0.12894   0.13098   0.13490   0.14661

 Mulliken charges and spin densities:
               1          2
     1  C    1.032609  -1.739563
     2  C   -1.459851   1.293067
     3  C    0.586916  -0.593584
     4  C    0.070923  -0.126486
     5  C   -0.245049  -0.311511
     6  O   -0.285888   0.005755
     7  N   -0.222711   0.058439
     8  C   -1.271485   1.308462
     9  C    0.419457  -1.007831
    10  C    1.905012  -2.558674
    11  N   -0.470753   0.114075
    12  H   -0.021084   0.155811
    13  H   -0.301227   0.439766
    14  H   -0.302675   0.455613
    15  H    0.051676   0.097641
    16  H   -0.020781   0.175141
    17  H    0.076141   0.109459
    18  H    0.194109  -0.067815
    19  H   -0.139454   0.297080
    20  H    0.089912   0.065886
    21  H    0.091720   0.034735
    22  H    0.302503   0.001761
    23  H    0.261143   0.083191
    24  H   -0.530626   0.683223
    25  H    0.157185   0.002147
    26  H    0.084110   0.045572
    27  H   -0.036483   0.176298
    28  H   -0.407494   0.550840
    29  H    0.005323   0.160285
    30  H   -0.355555   0.588888
    31  H   -0.257624   0.502327
 Sum of Mulliken charges =  -1.00000   1.00000

 Dipole moment (field-independent basis, Debye):
    X=              4.3013    Y=              5.2558    Z=             -0.1413  Tot=              6.7930
 Quadrupole moment (field-independent basis, Debye-Ang):
   XX=           -143.1931   YY=           -122.0428   ZZ=           -104.9212
   XY=             -8.7013   XZ=             -2.8285   YZ=              5.6739

 Summary of Natural Population Analysis:

                                       Natural Population
                Natural  -----------------------------------------------
    Atom  No    Charge         Core      Valence    Rydberg      Total
 -----------------------------------------------------------------------
      C    1   -0.28638      0.99966     2.28149    0.00522     3.28638
      C    2   -0.19613      0.99962     2.18695    0.00956     3.19613
      C    3   -0.00601      0.99959     1.99330    0.01312     3.00601
      C    4   -0.21037      0.99960     2.20161    0.00916     3.21037
      C    5   -0.00965      0.99960     1.99810    0.01195     3.00965
      O    6   -0.39183      0.99990     3.38476    0.00717     4.39183
      N    7   -0.36910      0.99971     2.85615    0.01324     3.86910
      C    8   -0.01115      0.99960     1.99766    0.01389     3.01115
      C    9   -0.29236      0.99964     2.28656    0.00617     3.29236
      C   10   -0.08906      0.99960     2.07709    0.01237     3.08906
      N   11   -0.43022      0.99977     2.91929    0.01116     3.93022
      H   12    0.09508      0.00000     0.40385    0.00107     0.40492
      H   13    0.10056      0.00000     0.39852    0.00092     0.39944
      H   14    0.09895      0.00000     0.39976    0.00129     0.40105
      H   15    0.09553      0.00000     0.40319    0.00128     0.40447
      H   16    0.10114      0.00000     0.39756    0.00130     0.39886
      H   17    0.08625      0.00000     0.41164    0.00211     0.41375
      H   18    0.09970      0.00000     0.39898    0.00132     0.40030
      H   19    0.10101      0.00000     0.39802    0.00097     0.39899
      H   20    0.08070      0.00000     0.41812    0.00118     0.41930
      H   21    0.07090      0.00000     0.42768    0.00141     0.42910
      H   22    0.24422      0.00000     0.25207    0.00371     0.25578
      H   23    0.19598      0.00000     0.29917    0.00485     0.30402
      H   24    0.08048      0.00000     0.41689    0.00263     0.41952
      H   25    0.10584      0.00000     0.39294    0.00123     0.39416
      H   26    0.09927      0.00000     0.39983    0.00090     0.40073
      H   27    0.09749      0.00000     0.40155    0.00095     0.40251
      H   28    0.08574      0.00000     0.41223    0.00203     0.41426
      H   29    0.09005      0.00000     0.40840    0.00155     0.40995
      H   30    0.18146      0.00000     0.30981    0.00873     0.31854
      H   31    0.18192      0.00000     0.31468    0.00341     0.31808
 =======================================================================
   * Total *    0.00000     10.99629    33.84786    0.15584    45.00000

 Normal termination of Gaussian 16 at Tue Dec  8 21:47:37 2020.
