 Gaussian 16, Revision A.03,

 -----------------------------------------------------------
 # opt freq B3LYP/6-31G(d) empiricaldispersion=gd3bj scf=xqc
 -----------------------------------------------------------

 -------------------------------
 CID_148620133_JID_5086_neutraal
 -------------------------------
 Symbolic Z-matrix:
 Charge =  0 Multiplicity = 1

 SCF Done:  E(RB3LYP) =  -999.350805486     A.U. after   13 cycles
 SCF Done:  E(RB3LYP) =  -999.356367504     A.U. after   11 cycles
 SCF Done:  E(RB3LYP) =  -999.356712606     A.U. after   11 cycles
 SCF Done:  E(RB3LYP) =  -999.357049241     A.U. after   10 cycles
 SCF Done:  E(RB3LYP) =  -999.357187981     A.U. after    9 cycles
 SCF Done:  E(RB3LYP) =  -999.357264932     A.U. after    9 cycles
 SCF Done:  E(RB3LYP) =  -999.357313929     A.U. after   10 cycles
 SCF Done:  E(RB3LYP) =  -999.357326614     A.U. after    8 cycles
 SCF Done:  E(RB3LYP) =  -999.357332545     A.U. after    8 cycles
 SCF Done:  E(RB3LYP) =  -999.357333172     A.U. after    7 cycles
 SCF Done:  E(RB3LYP) =  -999.357333150     A.U. after    6 cycles
 Optimization completed.
    -- Stationary point found.
 Normal termination of Gaussian 16 at Thu Dec 10 14:46:53 2020.

 --------------------------------------------------------------------
 #N Geom=AllCheck Guess=TCheck SCRF=Check GenChk RB3LYP/6-31G(d) Freq
 --------------------------------------------------------------------

 Structure from the checkpoint file:  "JID_5086.chk"
 -------------------------------
 CID_148620133_JID_5086_neutraal
 -------------------------------
 Charge =  0 Multiplicity = 1

 SCF Done:  E(RB3LYP) =  -999.357333150     A.U. after    1 cycles

  Exact polarizability: 160.233  -0.079 151.193   0.392  -2.400 128.370
 Approx polarizability: 211.352   0.424 220.281  -0.115  -7.484 187.809

                      1                      2                      3
                      A                      A                      A
 Frequencies --     33.2865                48.9176                61.6309
 Red. masses --      6.4630                 3.2877                 3.2979
 Frc consts  --      0.0042                 0.0046                 0.0074
 IR Inten    --      0.7048                 0.3858                 0.8279

                      4                      5                      6
                      A                      A                      A
 Frequencies --     84.3944               153.3661               185.3368
 Red. masses --      4.4219                 4.1367                 1.1088
 Frc consts  --      0.0186                 0.0573                 0.0224
 IR Inten    --      0.4146                 3.8702                10.2985

                      7                      8                      9
                      A                      A                      A
 Frequencies --    208.7381               228.6410               238.8277
 Red. masses --      2.6362                 2.5734                 2.1773
 Frc consts  --      0.0677                 0.0793                 0.0732
 IR Inten    --      0.9515                 6.7095                 1.0440

                     10                     11                     12
                      A                      A                      A
 Frequencies --    262.8474               269.9525               276.7442
 Red. masses --      2.2278                 2.3726                 2.3401
 Frc consts  --      0.0907                 0.1019                 0.1056
 IR Inten    --      8.1491                 4.1744                12.7831

                     13                     14                     15
                      A                      A                      A
 Frequencies --    303.0060               333.2583               361.9902
 Red. masses --      1.5667                 4.3296                 3.4939
 Frc consts  --      0.0848                 0.2833                 0.2697
 IR Inten    --     46.9164                 4.5961                31.1283

                     16                     17                     18
                      A                      A                      A
 Frequencies --    364.1090               415.1122               417.3503
 Red. masses --      3.3687                 2.3582                 1.8676
 Frc consts  --      0.2631                 0.2394                 0.1917
 IR Inten    --      3.2525                 2.3246                 3.4282

                     19                     20                     21
                      A                      A                      A
 Frequencies --    434.5287               461.0564               470.6929
 Red. masses --      2.0000                 2.1471                 2.6301
 Frc consts  --      0.2225                 0.2689                 0.3433
 IR Inten    --      1.2533                 9.8595                 0.8244

                     22                     23                     24
                      A                      A                      A
 Frequencies --    480.3425               501.2260               586.3970
 Red. masses --      2.2613                 2.7465                 2.8539
 Frc consts  --      0.3074                 0.4065                 0.5782
 IR Inten    --      7.4103                 1.1391                 1.9496

                     25                     26                     27
                      A                      A                      A
 Frequencies --    667.0637               694.6705               743.8361
 Red. masses --      2.1246                 2.5724                 2.2793
 Frc consts  --      0.5570                 0.7314                 0.7430
 IR Inten    --     43.7206                33.5846                 2.6590

                     28                     29                     30
                      A                      A                      A
 Frequencies --    778.7562               782.1194               799.6640
 Red. masses --      2.1180                 1.9208                 1.4460
 Frc consts  --      0.7568                 0.6923                 0.5448
 IR Inten    --      1.9886                 0.8720                 0.0256

                     31                     32                     33
                      A                      A                      A
 Frequencies --    812.8145               872.1805               892.0221
 Red. masses --      2.3596                 2.7386                 2.0993
 Frc consts  --      0.9185                 1.2274                 0.9842
 IR Inten    --      6.3536                 6.5467                 5.7312

                     34                     35                     36
                      A                      A                      A
 Frequencies --    903.9929               918.1078               922.0115
 Red. masses --      2.3131                 1.3618                 1.3761
 Frc consts  --      1.1137                 0.6763                 0.6892
 IR Inten    --      3.8304                 7.5553                 7.3294

                     37                     38                     39
                      A                      A                      A
 Frequencies --    952.3471               966.5401               979.0294
 Red. masses --      1.3860                 1.9361                 1.9013
 Frc consts  --      0.7407                 1.0656                 1.0737
 IR Inten    --      4.0113                 4.1436                 5.9262

                     40                     41                     42
                      A                      A                      A
 Frequencies --    996.6390              1024.5100              1036.3701
 Red. masses --      2.5567                 2.3554                 1.9477
 Frc consts  --      1.4962                 1.4566                 1.2326
 IR Inten    --     11.3958                11.8354                 0.8697

                     43                     44                     45
                      A                      A                      A
 Frequencies --   1064.8853              1075.9959              1089.1853
 Red. masses --      2.0583                 1.1903                 2.7142
 Frc consts  --      1.3752                 0.8119                 1.8971
 IR Inten    --     18.4467                 0.7330                90.1229

                     46                     47                     48
                      A                      A                      A
 Frequencies --   1096.6672              1103.5088              1104.7013
 Red. masses --      1.9744                 2.7302                 2.0168
 Frc consts  --      1.3991                 1.9588                 1.4501
 IR Inten    --      1.1315                 3.7318                58.4656

                     49                     50                     51
                      A                      A                      A
 Frequencies --   1113.0530              1144.6428              1169.1932
 Red. masses --      1.7494                 1.7984                 1.6581
 Frc consts  --      1.2769                 1.3883                 1.3354
 IR Inten    --     19.0930                 0.3856                 7.3884

                     52                     53                     54
                      A                      A                      A
 Frequencies --   1173.9166              1191.0808              1216.6380
 Red. masses --      1.9547                 2.6678                 1.3595
 Frc consts  --      1.5871                 2.2299                 1.1856
 IR Inten    --      1.0337                66.8616                 0.8255

                     55                     56                     57
                      A                      A                      A
 Frequencies --   1235.7319              1246.0855              1274.3649
 Red. masses --      1.4486                 1.3799                 1.3556
 Frc consts  --      1.3033                 1.2624                 1.2971
 IR Inten    --      1.2450                 0.7927                11.5850

                     58                     59                     60
                      A                      A                      A
 Frequencies --   1287.4799              1299.5425              1315.6987
 Red. masses --      1.2795                 1.2777                 1.3160
 Frc consts  --      1.2496                 1.2713                 1.3422
 IR Inten    --      1.4677                 0.4722                17.5334

                     61                     62                     63
                      A                      A                      A
 Frequencies --   1330.8247              1340.0108              1344.2805
 Red. masses --      1.3246                 1.2588                 1.3057
 Frc consts  --      1.3823                 1.3318                 1.3902
 IR Inten    --     22.3141                 0.1885                 3.4910

                     64                     65                     66
                      A                      A                      A
 Frequencies --   1347.4444              1351.3090              1359.2053
 Red. masses --      1.3373                 1.3665                 1.3484
 Frc consts  --      1.4306                 1.4701                 1.4677
 IR Inten    --      2.9055                 5.1040                 0.9914

                     67                     68                     69
                      A                      A                      A
 Frequencies --   1382.0525              1386.4336              1390.8517
 Red. masses --      1.3835                 1.3716                 1.3400
 Frc consts  --      1.5570                 1.5533                 1.5273
 IR Inten    --      1.0283                 1.6117                 0.9437

                     70                     71                     72
                      A                      A                      A
 Frequencies --   1391.9974              1400.6910              1402.6608
 Red. masses --      1.3592                 1.4786                 1.4231
 Frc consts  --      1.5517                 1.7092                 1.6497
 IR Inten    --      3.7477                 4.3055                 9.2254

                     73                     74                     75
                      A                      A                      A
 Frequencies --   1405.3653              1415.6838              1439.5998
 Red. masses --      1.4678                 1.4684                 1.2641
 Frc consts  --      1.7080                 1.7339                 1.5436
 IR Inten    --      0.6622                 0.9011                14.5336

                     76                     77                     78
                      A                      A                      A
 Frequencies --   1448.0432              1503.1355              1509.3116
 Red. masses --      1.2915                 1.0873                 1.0858
 Frc consts  --      1.5955                 1.4474                 1.4574
 IR Inten    --     68.0940                 4.9125                 0.6800

                     79                     80                     81
                      A                      A                      A
 Frequencies --   1512.9067              1516.0174              1521.5548
 Red. masses --      1.0922                 1.0974                 1.0905
 Frc consts  --      1.4729                 1.4860                 1.4875
 IR Inten    --     15.8087                 4.9353                 3.7988

                     82                     83                     84
                      A                      A                      A
 Frequencies --   1522.6475              1532.5672              1534.2802
 Red. masses --      1.0934                 1.1149                 1.1255
 Frc consts  --      1.4936                 1.5428                 1.5610
 IR Inten    --      9.3497                 0.6037                 1.3002

                     85                     86                     87
                      A                      A                      A
 Frequencies --   1538.3573              2662.8563              2996.9222
 Red. masses --      1.1841                 1.0383                 1.0712
 Frc consts  --      1.6510                 4.3379                 5.6686
 IR Inten    --     13.5392                22.9828                 8.4947

                     88                     89                     90
                      A                      A                      A
 Frequencies --   3003.0942              3015.3517              3020.9311
 Red. masses --      1.0714                 1.0696                 1.0692
 Frc consts  --      5.6928                 5.7300                 5.7487
 IR Inten    --     26.2327                20.2518                17.6213

                     91                     92                     93
                      A                      A                      A
 Frequencies --   3027.1714              3028.7933              3043.7097
 Red. masses --      1.0716                 1.0686                 1.0813
 Frc consts  --      5.7856                 5.7756                 5.9022
 IR Inten    --     10.7230                26.9964                 0.1836

                     94                     95                     96
                      A                      A                      A
 Frequencies --   3048.2593              3053.2315              3057.3077
 Red. masses --      1.0818                 1.0826                 1.0643
 Frc consts  --      5.9227                 5.9464                 5.8614
 IR Inten    --     74.3054                43.0840                25.2608

                     97                     98                     99
                      A                      A                      A
 Frequencies --   3064.6671              3077.9715              3087.8985
 Red. masses --      1.0671                 1.0900                 1.0929
 Frc consts  --      5.9051                 6.0840                 6.1398
 IR Inten    --      9.6283                56.7911                32.9700

                    100                    101                    102
                      A                      A                      A
 Frequencies --   3089.8523              3092.9731              3095.8988
 Red. masses --      1.0910                 1.0915                 1.0929
 Frc consts  --      6.1371                 6.1523                 6.1714
 IR Inten    --     13.1509                51.5758                64.9966

                    103                    104                    105
                      A                      A                      A
 Frequencies --   3098.1346              3101.8898              3103.4755
 Red. masses --      1.0953                 1.0973                 1.1011
 Frc consts  --      6.1943                 6.2208                 6.2482
 IR Inten    --     25.6487                79.3919                30.9924

                    106                    107                    108
                      A                      A                      A
 Frequencies --   3114.9669              3503.0562              3721.6949
 Red. masses --      1.0920                 1.0741                 1.0657
 Frc consts  --      6.2428                 7.7657                 8.6970
 IR Inten    --     24.9643                 0.4169                 5.8117

 - Thermochemistry -
 -------------------
 Temperature   298.150 Kelvin.  Pressure   1.00000 Atm.
 Atom     1 has atomic number  6 and mass  12.00000

 Molecular mass:   229.15004 amu.
 Principal axes and moments of inertia in atomic units:
                           1         2         3
     Eigenvalues --  2455.328966040.231057082.53342
           X            0.99986  -0.01658   0.00242
           Y            0.01658   0.99986  -0.00015
           Z           -0.00242   0.00019   1.00000
 This molecule is an asymmetric top.
 Rotational symmetry number  1.
 Warning -- assumption of classical behavior for rotation
           may cause significant error
 Rotational temperatures (Kelvin)      0.03528     0.01434     0.01223
 Rotational constants (GHZ):           0.73503     0.29879     0.25482
 Zero-point vibrational energy     903564.2 (Joules/Mol)
                                  215.95703 (Kcal/Mol)
 Warning -- explicit consideration of  24 degrees of freedom as
           vibrations may cause significant error
 Vibrational temperatures:     47.89    70.38    88.67   121.42   220.66
          (Kelvin)            266.66   300.33   328.96   343.62   378.18
                              388.40   398.17   435.96   479.48   520.82
                              523.87   597.25   600.47   625.19   663.36
                              677.22   691.11   721.15   843.69   959.76
                              999.48  1070.21  1120.46  1125.30  1150.54
                             1169.46  1254.87  1283.42  1300.64  1320.95
                             1326.57  1370.22  1390.64  1408.60  1433.94
                             1474.04  1491.11  1532.13  1548.12  1567.09
                             1577.86  1587.70  1589.42  1601.43  1646.89
                             1682.21  1689.00  1713.70  1750.47  1777.94
                             1792.84  1833.53  1852.40  1869.75  1893.00
                             1914.76  1927.98  1934.12  1938.67  1944.23
                             1955.59  1988.47  1994.77  2001.13  2002.77
                             2015.28  2018.12  2022.01  2036.85  2071.26
                             2083.41  2162.68  2171.56  2176.74  2181.21
                             2189.18  2190.75  2205.02  2207.49  2213.35
                             3831.26  4311.90  4320.78  4338.42  4346.45
                             4355.42  4357.76  4379.22  4385.77  4392.92
                             4398.78  4409.37  4428.51  4442.80  4445.61
                             4450.10  4454.31  4457.52  4462.93  4465.21
                             4481.74  5040.12  5354.69

 Zero-point correction=                           0.344149 (Hartree/Particle)
 Thermal correction to Energy=                    0.359591
 Thermal correction to Enthalpy=                  0.360535
 Thermal correction to Gibbs Free Energy=         0.301379
 Sum of electronic and zero-point Energies=           -999.013184
 Sum of electronic and thermal Energies=              -998.997743
 Sum of electronic and thermal Enthalpies=            -998.996798
 Sum of electronic and thermal Free Energies=         -999.055954

                     E (Thermal)             CV                S
                      KCal/Mol        Cal/Mol-Kelvin    Cal/Mol-Kelvin
 Total                  225.646             61.537            124.503
 Electronic               0.000              0.000              0.000
 Translational            0.889              2.981             42.190
 Rotational               0.889              2.981             33.018
 Vibrational            223.869             55.575             49.296
 Vibration     1          0.594              1.983              5.623
 Vibration     2          0.595              1.978              4.861
 Vibration     3          0.597              1.973              4.404
 Vibration     4          0.601              1.960              3.786
 Vibration     5          0.619              1.899              2.630
 Vibration     6          0.631              1.860              2.274
 Vibration     7          0.642              1.827              2.055
 Vibration     8          0.651              1.797              1.890
 Vibration     9          0.657              1.781              1.812
 Vibration    10          0.670              1.741              1.643
 Vibration    11          0.674              1.729              1.597
 Vibration    12          0.678              1.716              1.554
 Vibration    13          0.694              1.668              1.400
 Vibration    14          0.715              1.609              1.244
 Vibration    15          0.736              1.551              1.114
 Vibration    16          0.738              1.546              1.105
 Vibration    17          0.779              1.437              0.909
 Vibration    18          0.780              1.433              0.901
 Vibration    19          0.795              1.395              0.844
 Vibration    20          0.819              1.336              0.763
 Vibration    21          0.828              1.315              0.736
 Vibration    22          0.837              1.294              0.709
 Vibration    23          0.857              1.247              0.655
 Vibration    24          0.943              1.061              0.474

 Optimization completed.
    -- Stationary point found.
 Normal termination of Gaussian 16 at Thu Dec 10 15:01:05 2020.

 ----------------------------------------------------------------------
 # B3LYP/6-311++G(d,p) empiricaldispersion=gd3bj scf=xqc pop=npa geom=c
 heck
 ----------------------------------------------------------------------

 ---------------------------------------
 CID_148620133_JID_5086_Energie_neutraal
 ---------------------------------------
 Structure from the checkpoint file:  "JID_5086.chk"
 Charge =  0 Multiplicity = 1

 SCF Done:  E(RB3LYP) =  -999.565341398     A.U. after   15 cycles
 Normal termination of Gaussian 16 at Thu Dec 10 15:09:26 2020.

 ----------------------------------------------------------------------
 # B3LYP/6-311++G(d,p) empiricaldispersion=gd3bj scf=xqc pop=npa geom=c
 heck
 ----------------------------------------------------------------------

 -------------------------------------
 CID_148620133_JID_5086_Energie_kation
 -------------------------------------
 Structure from the checkpoint file:  "JID_5086.chk"
 Charge =  1 Multiplicity = 2

 SCF Done:  E(UB3LYP) =  -999.274514808     A.U. after   28 cycles
 Normal termination of Gaussian 16 at Thu Dec 10 15:31:13 2020.
 Gaussian 16:  ES64L-G16RevA.03 25-Dec-2016

 ----------------------------------------------------------------------
 # B3LYP/6-311++G(d,p) empiricaldispersion=gd3bj scf=xqc pop=npa geom=c
 heck
 ----------------------------------------------------------------------

 ------------------------------------
 CID_148620133_JID_5086_Energie_anion
 ------------------------------------
 Structure from the checkpoint file:  "JID_5086.chk"
 Charge = -1 Multiplicity = 2

                         Standard orientation:
 ---------------------------------------------------------------------
 Center     Atomic      Atomic             Coordinates (Angstroms)
 Number     Number       Type             X           Y           Z
 ---------------------------------------------------------------------
      1          6           0       -2.069845   -1.056443   -1.150863
      2          6           0       -2.972502    0.178778   -1.262009
      3          6           0       -3.583511    0.558746    0.089761
      4          6           0       -2.488004    0.750019    1.143195
      5          6           0       -1.586604   -0.486974    1.254641
      6          6           0       -0.961736   -0.873457   -0.100100
      7          7           0       -0.132402   -2.081880   -0.053273
      8          6           0        1.316180   -2.032876    0.190597
      9          6           0        2.110476   -1.603127   -1.061946
     10          6           0        2.253382   -0.085320   -1.261989
     11          6           0        2.802546    0.590570   -0.001066
     12          6           0        1.952362    0.265255    1.232262
     13          6           0        1.822655   -1.254090    1.431764
     14         16           0        3.039785    2.408752   -0.225678
     15          8           0       -4.436403    1.697252   -0.006338
     16          1           0       -2.673344   -1.933136   -0.873077
     17          1           0       -1.607560   -1.292927   -2.114955
     18          1           0       -3.773923    0.018763   -1.991873
     19          1           0       -2.377804    1.032962   -1.625492
     20          1           0       -4.247050   -0.252201    0.417040
     21          1           0       -1.876071    1.620632    0.856009
     22          1           0       -2.947514    0.992022    2.108027
     23          1           0       -2.183022   -1.340295    1.613373
     24          1           0       -0.805584   -0.318497    2.003188
     25          1           0       -0.332660   -0.043515   -0.433689
     26          1           0       -0.555849   -2.745813    0.590161
     27          1           0        1.574166   -3.085256    0.362194
     28          1           0        3.121850   -2.024633   -0.974442
     29          1           0        1.646569   -2.060919   -1.941618
     30          1           0        1.287237    0.364383   -1.521349
     31          1           0        2.920219    0.117756   -2.106701
     32          1           0        3.825615    0.230837    0.172643
     33          1           0        0.965623    0.727539    1.115420
     34          1           0        2.403090    0.722624    2.119423
     35          1           0        1.180236   -1.471341    2.293568
     36          1           0        2.818601   -1.646070    1.684803
     37          1           0        1.734979    2.698421   -0.428969
     38          1           0       -3.888708    2.437281   -0.314708
 ---------------------------------------------------------------------

 SCF Done:  E(UB3LYP) =  -999.554876912     A.U. after   29 cycles

 The electronic state is 2-A.
 Alpha  occ. eigenvalues --  -88.74025 -19.03152 -14.19590 -10.12897 -10.10907
 Alpha  occ. eigenvalues --  -10.10295 -10.10097 -10.07556 -10.07534 -10.07508
 Alpha  occ. eigenvalues --  -10.07329 -10.07275 -10.07223 -10.06741 -10.06665
 Alpha  occ. eigenvalues --   -7.82725  -5.79094  -5.78753  -5.78116  -0.93377
 Alpha  occ. eigenvalues --   -0.81282  -0.74359  -0.72541  -0.66851  -0.65668
 Alpha  occ. eigenvalues --   -0.64960  -0.62737  -0.58529  -0.52866  -0.52241
 Alpha  occ. eigenvalues --   -0.52055  -0.49457  -0.48214  -0.45861  -0.41851
 Alpha  occ. eigenvalues --   -0.39522  -0.38483  -0.36139  -0.35958  -0.35386
 Alpha  occ. eigenvalues --   -0.34814  -0.34061  -0.33092  -0.32073  -0.30808
 Alpha  occ. eigenvalues --   -0.30052  -0.29547  -0.29300  -0.28475  -0.27858
 Alpha  occ. eigenvalues --   -0.25919  -0.25701  -0.25556  -0.25328  -0.24544
 Alpha  occ. eigenvalues --   -0.23738  -0.22778  -0.21929  -0.21325  -0.20142
 Alpha  occ. eigenvalues --   -0.18017  -0.14125  -0.12214   0.04081
 Alpha virt. eigenvalues --    0.05511   0.06809   0.07381   0.07990   0.08386
 Alpha virt. eigenvalues --    0.08777   0.09024   0.09930   0.10376   0.10560
 Alpha virt. eigenvalues --    0.11030   0.11249   0.11424   0.11947   0.12287

  Beta  occ. eigenvalues --  -88.74010 -19.03131 -14.19579 -10.12896 -10.10891
  Beta  occ. eigenvalues --  -10.10289 -10.10088 -10.07542 -10.07519 -10.07491
  Beta  occ. eigenvalues --  -10.07317 -10.07263 -10.07217 -10.06715 -10.06649
  Beta  occ. eigenvalues --   -7.82710  -5.79053  -5.78745  -5.78106  -0.93335
  Beta  occ. eigenvalues --   -0.81258  -0.74329  -0.72514  -0.66809  -0.65639
  Beta  occ. eigenvalues --   -0.64925  -0.62697  -0.58470  -0.52826  -0.52190
  Beta  occ. eigenvalues --   -0.52005  -0.49395  -0.48171  -0.45811  -0.41807
  Beta  occ. eigenvalues --   -0.39463  -0.38439  -0.36107  -0.35926  -0.35344
  Beta  occ. eigenvalues --   -0.34784  -0.34022  -0.33057  -0.32053  -0.30761
  Beta  occ. eigenvalues --   -0.30022  -0.29512  -0.29272  -0.28441  -0.27807
  Beta  occ. eigenvalues --   -0.25877  -0.25652  -0.25516  -0.25286  -0.24502
  Beta  occ. eigenvalues --   -0.23703  -0.22743  -0.21898  -0.21296  -0.20089
  Beta  occ. eigenvalues --   -0.17996  -0.14090  -0.12198
  Beta virt. eigenvalues --    0.06282   0.06610   0.07182   0.07713   0.08520
  Beta virt. eigenvalues --    0.08819   0.09068   0.09214   0.10250   0.10473
  Beta virt. eigenvalues --    0.10949   0.11161   0.11467   0.11837   0.12175

 Mulliken charges and spin densities:
               1          2
     1  C    0.489395  -0.651925
     2  C    0.065552  -0.123261
     3  C   -0.164346  -0.570455
     4  C   -0.228795   0.065179
     5  C   -0.259276   0.109302
     6  C   -0.547463  -0.144667
     7  N    0.027508   0.132840
     8  C    0.031767   0.192356
     9  C    0.158809  -0.904371
    10  C   -0.303085   0.038325
    11  C    0.665930  -0.393815
    12  C   -0.457145   0.124279
    13  C    0.260655  -0.953481
    14  S    0.159816  -0.342954
    15  O   -0.229657   0.037283
    16  H    0.046953   0.077433
    17  H    0.063138   0.105930
    18  H    0.061824   0.120717
    19  H   -0.294123   0.445489
    20  H    0.196331  -0.021352
    21  H   -0.209343   0.371757
    22  H   -0.066710   0.243834
    23  H   -0.138036   0.266224
    24  H    0.152407   0.000434
    25  H    1.382870  -1.313444
    26  H    0.101564   0.139817
    27  H   -0.633440   0.836775
    28  H   -0.179264   0.330800
    29  H    0.110839   0.059424
    30  H   -0.340825   0.477668
    31  H   -0.050815   0.210974
    32  H   -0.194369   0.465741
    33  H    0.091157   0.037782
    34  H   -0.106704   0.265468
    35  H   -0.234911   0.413404
    36  H   -0.229014   0.386515
    37  H   -0.254474   0.268042
    38  H    0.055280   0.195933
 Sum of Mulliken charges =  -1.00000   1.00000

 Dipole moment (field-independent basis, Debye):
    X=             -2.4311    Y=             -0.4633    Z=             -0.7370  Tot=              2.5823
 Quadrupole moment (field-independent basis, Debye-Ang):
   XX=           -179.6916   YY=           -158.3771   ZZ=           -140.2111
   XY=             12.7563   XZ=             -3.0764   YZ=              4.0693

 Summary of Natural Population Analysis:

                                       Natural Population
                Natural  -----------------------------------------------
    Atom  No    Charge         Core      Valence    Rydberg      Total
 -----------------------------------------------------------------------
      C    1   -0.18635      0.99961     2.17847    0.00828     3.18635
      C    2   -0.20286      0.99961     2.19357    0.00968     3.20286
      C    3    0.06533      0.99953     1.92161    0.01353     2.93467
      C    4   -0.20143      0.99961     2.19238    0.00944     3.20143
      C    5   -0.19561      0.99960     2.18771    0.00830     3.19561
      C    6   -0.01840      0.99956     2.00786    0.01098     3.01840
      N    7   -0.34564      0.99972     2.83315    0.01278     3.84564
      C    8   -0.00612      0.99957     1.99190    0.01465     3.00612
      C    9   -0.19295      0.99960     2.18384    0.00950     3.19295
      C   10   -0.19593      0.99959     2.18679    0.00956     3.19593
      C   11   -0.15404      0.99953     2.14293    0.01158     3.15404
      C   12   -0.19926      0.99958     2.18928    0.01040     3.19926
      C   13   -0.19938      0.99960     2.18991    0.00987     3.19938
      S   14   -0.02393      4.99964     3.01005    0.01424     8.02393
      O   15   -0.37175      0.99990     3.36505    0.00680     4.37175
      H   16    0.09283      0.00000     0.40589    0.00128     0.40717
      H   17    0.10424      0.00000     0.39461    0.00115     0.39576
      H   18    0.10146      0.00000     0.39763    0.00091     0.39854
      H   19    0.09495      0.00000     0.40334    0.00170     0.40505
      H   20    0.08197      0.00000     0.41656    0.00147     0.41803
      H   21    0.09520      0.00000     0.40290    0.00190     0.40480
      H   22    0.10260      0.00000     0.39643    0.00097     0.39740
      H   23    0.09228      0.00000     0.40635    0.00137     0.40772
      H   24    0.10383      0.00000     0.39491    0.00126     0.39617
      H   25    0.09385      0.00000     0.40294    0.00321     0.40615
      H   26    0.17427      0.00000     0.32311    0.00262     0.32573
      H   27    0.09895      0.00000     0.39890    0.00214     0.40105
      H   28    0.09802      0.00000     0.40059    0.00139     0.40198
      H   29    0.10515      0.00000     0.39355    0.00130     0.39485
      H   30    0.09433      0.00000     0.40383    0.00184     0.40567
      H   31    0.10406      0.00000     0.39475    0.00119     0.39594
      H   32    0.10182      0.00000     0.39678    0.00140     0.39818
      H   33    0.09511      0.00000     0.40248    0.00241     0.40489
      H   34    0.10486      0.00000     0.39391    0.00123     0.39514
      H   35    0.10167      0.00000     0.39688    0.00145     0.39833
      H   36    0.10055      0.00000     0.39765    0.00180     0.39945
      H   37    0.05953      0.00000     0.43739    0.00308     0.44047
      H   38    0.22679      0.00000     0.27000    0.00321     0.27321
 =======================================================================
   * Total *   -0.00000     18.99424    43.80588    0.19988    63.00000

 Normal termination of Gaussian 16 at Thu Dec 10 15:53:23 2020.
