 Gaussian 16, Revision A.03,

 -----------------------------------------------------------
 # opt freq B3LYP/6-31G(d) empiricaldispersion=gd3bj scf=xqc
 -----------------------------------------------------------

 ------------------------------
 CID_69404208_JID_7399_neutraal
 ------------------------------
 Symbolic Z-matrix:
 Charge =  0 Multiplicity = 1

 SCF Done:  E(RB3LYP) =  -787.301690466     A.U. after   15 cycles
 SCF Done:  E(RB3LYP) =  -787.306460898     A.U. after   12 cycles
 SCF Done:  E(RB3LYP) =  -787.306590007     A.U. after   12 cycles
 SCF Done:  E(RB3LYP) =  -787.307017623     A.U. after   12 cycles
 SCF Done:  E(RB3LYP) =  -787.307750329     A.U. after   12 cycles
 SCF Done:  E(RB3LYP) =  -787.308638733     A.U. after   12 cycles
 SCF Done:  E(RB3LYP) =  -787.305885098     A.U. after   15 cycles
 SCF Done:  E(RB3LYP) =  -787.309437919     A.U. after   12 cycles
 SCF Done:  E(RB3LYP) =  -787.309537368     A.U. after   12 cycles
 SCF Done:  E(RB3LYP) =  -787.309681610     A.U. after   11 cycles
 SCF Done:  E(RB3LYP) =  -787.315647622     A.U. after   10 cycles
 SCF Done:  E(RB3LYP) =  -787.315647942     A.U. after    9 cycles
 SCF Done:  E(RB3LYP) =  -787.315648193     A.U. after    8 cycles
 SCF Done:  E(RB3LYP) =  -787.315648325     A.U. after    9 cycles
 SCF Done:  E(RB3LYP) =  -787.315648343     A.U. after    7 cycles
 Optimization completed.
    -- Stationary point found.
 Normal termination of Gaussian 16 at Fri Dec 11 12:39:06 2020.

 --------------------------------------------------------------------
 #N Geom=AllCheck Guess=TCheck SCRF=Check GenChk RB3LYP/6-31G(d) Freq
 --------------------------------------------------------------------

 Structure from the checkpoint file:  "JID_7399.chk"
 ------------------------------
 CID_69404208_JID_7399_neutraal
 ------------------------------
 Charge =  0 Multiplicity = 1

 SCF Done:  E(RB3LYP) =  -787.315648343     A.U. after    1 cycles

  Exact polarizability: 199.054   2.142 142.983  -0.274  -9.801 107.933
 Approx polarizability: 254.286   2.947 229.498   1.791 -26.822 168.930

                      1                      2                      3
                      A                      A                      A
 Frequencies --     17.5641                26.2767                40.0117
 Red. masses --      3.6032                 4.8259                 5.3567
 Frc consts  --      0.0007                 0.0020                 0.0051
 IR Inten    --      0.1517                 0.5219                 0.1797

                      4                      5                      6
                      A                      A                      A
 Frequencies --     53.6327                85.8965               125.2417
 Red. masses --      3.5438                 6.8686                 3.5229
 Frc consts  --      0.0060                 0.0299                 0.0326
 IR Inten    --      1.3110                 2.2804                 1.3470

                      7                      8                      9
                      A                      A                      A
 Frequencies --    134.8233               175.2191               207.1457
 Red. masses --      3.4498                 3.5723                 2.7143
 Frc consts  --      0.0369                 0.0646                 0.0686
 IR Inten    --      2.1436                 1.8331                 2.7889

                     10                     11                     12
                      A                      A                      A
 Frequencies --    218.3915               234.3685               255.8348
 Red. masses --      1.5904                 1.1273                 3.2417
 Frc consts  --      0.0447                 0.0365                 0.1250
 IR Inten    --      1.9250                21.3387                 0.2691

                     13                     14                     15
                      A                      A                      A
 Frequencies --    261.1417               271.1424               276.8850
 Red. masses --      1.6409                 1.9425                 1.3680
 Frc consts  --      0.0659                 0.0841                 0.0618
 IR Inten    --      0.7370                 2.8660                 1.7532

                     16                     17                     18
                      A                      A                      A
 Frequencies --    290.2331               305.9490               334.2254
 Red. masses --      1.2688                 2.7123                 2.8035
 Frc consts  --      0.0630                 0.1496                 0.1845
 IR Inten    --      9.3503                13.3260                 0.1485

                     19                     20                     21
                      A                      A                      A
 Frequencies --    341.8878               373.8135               409.8918
 Red. masses --      3.2833                 3.4033                 3.8819
 Frc consts  --      0.2261                 0.2802                 0.3843
 IR Inten    --      0.6239                 2.2440                 0.4417

                     22                     23                     24
                      A                      A                      A
 Frequencies --    430.4681               446.9071               513.9189
 Red. masses --      3.1670                 5.4395                 3.8107
 Frc consts  --      0.3458                 0.6401                 0.5930
 IR Inten    --      0.4657                 2.5383                 4.1729

                     25                     26                     27
                      A                      A                      A
 Frequencies --    534.5054               587.3315               594.0276
 Red. masses --      3.6757                 4.1129                 2.5960
 Frc consts  --      0.6187                 0.8359                 0.5397
 IR Inten    --      2.8131                26.0313                32.1785

                     28                     29                     30
                      A                      A                      A
 Frequencies --    614.7850               643.6067               662.8583
 Red. masses --      1.2875                 3.2816                 4.6354
 Frc consts  --      0.2867                 0.8009                 1.2000
 IR Inten    --     74.8497                14.8781                 0.5680

                     31                     32                     33
                      A                      A                      A
 Frequencies --    705.0971               743.8515               766.1112
 Red. masses --      3.3652                 3.5232                 4.0152
 Frc consts  --      0.9857                 1.1486                 1.3885
 IR Inten    --     10.2355                20.6686                 7.6636

                     34                     35                     36
                      A                      A                      A
 Frequencies --    781.5000               823.0788               851.9123
 Red. masses --      4.6168                 2.9064                 1.3999
 Frc consts  --      1.6613                 1.1601                 0.5986
 IR Inten    --     28.3105                 2.4721                 3.6354

                     37                     38                     39
                      A                      A                      A
 Frequencies --    862.9094               881.3838               882.4050
 Red. masses --      1.2968                 2.4323                 1.7060
 Frc consts  --      0.5689                 1.1133                 0.7826
 IR Inten    --     83.0218                 2.4095                36.3739

                     40                     41                     42
                      A                      A                      A
 Frequencies --    911.8128               953.3965               955.5848
 Red. masses --      2.7003                 1.3291                 1.4882
 Frc consts  --      1.3227                 0.7118                 0.8007
 IR Inten    --      7.5856                 0.4080                 1.7817

                     43                     44                     45
                      A                      A                      A
 Frequencies --    958.9404               990.8952               994.3463
 Red. masses --      1.8409                 1.6989                 1.7266
 Frc consts  --      0.9974                 0.9828                 1.0058
 IR Inten    --     20.8755                16.6533                31.6388

                     46                     47                     48
                      A                      A                      A
 Frequencies --   1032.1032              1042.1847              1046.0363
 Red. masses --      1.5749                 2.3557                 1.3740
 Frc consts  --      0.9884                 1.5075                 0.8858
 IR Inten    --      7.1077                14.0199                 4.5382

                     49                     50                     51
                      A                      A                      A
 Frequencies --   1052.1686              1077.5711              1138.3529
 Red. masses --      1.7423                 1.7522                 1.4928
 Frc consts  --      1.1364                 1.1987                 1.1398
 IR Inten    --      6.5913                 6.3049                75.1237

                     52                     53                     54
                      A                      A                      A
 Frequencies --   1142.1937              1151.2436              1203.7990
 Red. masses --      2.6972                 2.3344                 1.3509
 Frc consts  --      2.0732                 1.8229                 1.1534
 IR Inten    --    345.0014                 1.0050                34.4376

                     55                     56                     57
                      A                      A                      A
 Frequencies --   1208.2380              1226.8740              1229.5484
 Red. masses --      1.4457                 2.3673                 3.8874
 Frc consts  --      1.2435                 2.0994                 3.4626
 IR Inten    --      0.6975                61.6461                10.2616

                     58                     59                     60
                      A                      A                      A
 Frequencies --   1248.2090              1257.2790              1269.4006
 Red. masses --      2.0193                 1.6518                 3.9660
 Frc consts  --      1.8537                 1.5384                 3.7653
 IR Inten    --     39.6790                 2.3709               141.6092

                     61                     62                     63
                      A                      A                      A
 Frequencies --   1310.6961              1336.2393              1357.9529
 Red. masses --      1.9020                 1.9086                 1.5935
 Frc consts  --      1.9252                 2.0079                 1.7313
 IR Inten    --      2.2244                 4.0716                16.7627

                     64                     65                     66
                      A                      A                      A
 Frequencies --   1364.4454              1365.9842              1405.7058
 Red. masses --      1.4260                 2.2217                 1.6691
 Frc consts  --      1.5642                 2.4425                 1.9433
 IR Inten    --      0.9370                10.9295                 3.9764

                     67                     68                     69
                      A                      A                      A
 Frequencies --   1420.4838              1425.6097              1444.7811
 Red. masses --      1.2397                 1.2574                 1.2551
 Frc consts  --      1.4738                 1.5057                 1.5436
 IR Inten    --      6.3617                 5.7888                 7.5722

                     70                     71                     72
                      A                      A                      A
 Frequencies --   1445.8994              1468.9503              1508.6236
 Red. masses --      1.3298                 2.4263                 1.0500
 Frc consts  --      1.6380                 3.0847                 1.4080
 IR Inten    --     13.5046                 2.1752                 2.3993

                     73                     74                     75
                      A                      A                      A
 Frequencies --   1515.7518              1524.0985              1525.3937
 Red. masses --      1.0477                 1.0544                 1.0563
 Frc consts  --      1.4182                 1.4431                 1.4481
 IR Inten    --      0.8475                 7.0518                 7.9442

                     76                     77                     78
                      A                      A                      A
 Frequencies --   1529.4392              1538.2623              1540.2561
 Red. masses --      1.0749                 1.1013                 1.0689
 Frc consts  --      1.4815                 1.5354                 1.4940
 IR Inten    --      0.2566                 3.9037                12.8362

                     79                     80                     81
                      A                      A                      A
 Frequencies --   1559.4654              1632.3337              1668.3628
 Red. masses --      2.2471                 6.5828                 5.7968
 Frc consts  --      3.2198                10.3342                 9.5065
 IR Inten    --    134.8051                 3.5106                20.9708

                     82                     83                     84
                      A                      A                      A
 Frequencies --   1697.3364              1851.6872              2949.8994
 Red. masses --      1.0885                10.2491                 1.0738
 Frc consts  --      1.8476                20.7047                 5.5052
 IR Inten    --     30.7280               248.5454               106.1073

                     85                     86                     87
                      A                      A                      A
 Frequencies --   3030.5412              3041.5996              3070.2672
 Red. masses --      1.0832                 1.0405                 1.0339
 Frc consts  --      5.8613                 5.6713                 5.7424
 IR Inten    --     31.1817                48.5191                14.8197

                     88                     89                     90
                      A                      A                      A
 Frequencies --   3075.4174              3085.1343              3110.9755
 Red. masses --      1.0355                 1.0890                 1.0969
 Frc consts  --      5.7704                 6.1068                 6.2546
 IR Inten    --      7.5538                31.6080                37.2237

                     91                     92                     93
                      A                      A                      A
 Frequencies --   3130.0793              3144.5987              3147.3661
 Red. masses --      1.1025                 1.1038                 1.1027
 Frc consts  --      6.3642                 6.4308                 6.4356
 IR Inten    --     22.1110                11.7259                13.8411

                     94                     95                     96
                      A                      A                      A
 Frequencies --   3158.7600              3164.3914              3172.4951
 Red. masses --      1.1037                 1.1027                 1.0884
 Frc consts  --      6.4886                 6.5056                 6.4540
 IR Inten    --      5.0808                28.9129                19.6443

                     97                     98                     99
                      A                      A                      A
 Frequencies --   3207.6806              3225.1407              3247.3831
 Red. masses --      1.0931                 1.0896                 1.0927
 Frc consts  --      6.6267                 6.6775                 6.7895
 IR Inten    --     13.5880                 0.8387                 0.3897

                    100                    101                    102
                      A                      A                      A
 Frequencies --   3478.4132              3561.0466              3681.2561
 Red. masses --      1.0498                 1.0926                 1.0641
 Frc consts  --      7.4837                 8.1635                 8.4965
 IR Inten    --      0.7811                 0.0944                50.3104

 - Thermochemistry -
 -------------------
 Temperature   298.150 Kelvin.  Pressure   1.00000 Atm.
 Atom     1 has atomic number  6 and mass  12.00000

 Molecular mass:   237.13649 amu.
 Principal axes and moments of inertia in atomic units:
                           1         2         3
     Eigenvalues --  1785.297588279.343298965.64170
           X            0.99991   0.01204  -0.00621
           Y           -0.01206   0.99992  -0.00379
           Z            0.00617   0.00386   0.99997
 This molecule is an asymmetric top.
 Rotational symmetry number  1.
 Warning -- assumption of classical behavior for rotation
           may cause significant error
 Rotational temperatures (Kelvin)      0.04852     0.01046     0.00966
 Rotational constants (GHZ):           1.01089     0.21798     0.20130
 Zero-point vibrational energy     807339.5 (Joules/Mol)
                                  192.95876 (Kcal/Mol)
 Warning -- explicit consideration of  28 degrees of freedom as
           vibrations may cause significant error
 Vibrational temperatures:     25.27    37.81    57.57    77.17   123.59
          (Kelvin)            180.19   193.98   252.10   298.04   314.22
                              337.20   368.09   375.72   390.11   398.38
                              417.58   440.19   480.88   491.90   537.83
                              589.74   619.35   643.00   739.41   769.03
                              845.04   854.67   884.54   926.01   953.71
                             1014.48  1070.24  1102.26  1124.40  1184.23
                             1225.71  1241.53  1268.11  1269.58  1311.90
                             1371.72  1374.87  1379.70  1425.68  1430.64
                             1484.97  1499.47  1505.01  1513.84  1550.38
                             1637.84  1643.36  1656.38  1732.00  1738.38
                             1765.20  1769.05  1795.89  1808.94  1826.38
                             1885.80  1922.55  1953.79  1963.13  1965.35
                             2022.50  2043.76  2051.13  2078.72  2080.33
                             2113.49  2170.57  2180.83  2192.84  2194.70
                             2200.52  2213.22  2216.09  2243.72  2348.56
                             2400.40  2442.09  2664.16  4244.25  4360.27
                             4376.18  4417.43  4424.84  4438.82  4476.00
                             4503.49  4524.38  4528.36  4544.75  4552.85
                             4564.51  4615.14  4640.26  4672.26  5004.66
                             5123.55  5296.51

 Zero-point correction=                           0.307499 (Hartree/Particle)
 Thermal correction to Energy=                    0.325311
 Thermal correction to Enthalpy=                  0.326255
 Thermal correction to Gibbs Free Energy=         0.260353
 Sum of electronic and zero-point Energies=           -787.008149
 Sum of electronic and thermal Energies=              -786.990337
 Sum of electronic and thermal Enthalpies=            -786.989393
 Sum of electronic and thermal Free Energies=         -787.055296

                     E (Thermal)             CV                S
                      KCal/Mol        Cal/Mol-Kelvin    Cal/Mol-Kelvin
 Total                  204.136             67.393            138.703
 Electronic               0.000              0.000              0.000
 Translational            0.889              2.981             42.292
 Rotational               0.889              2.981             33.249
 Vibrational            202.358             61.431             63.162
 Vibration     1          0.593              1.986              6.892
 Vibration     2          0.593              1.985              6.092
 Vibration     3          0.594              1.981              5.259
 Vibration     4          0.596              1.976              4.679
 Vibration     5          0.601              1.959              3.751
 Vibration     6          0.610              1.928              3.018
 Vibration     7          0.613              1.919              2.876
 Vibration     8          0.627              1.873              2.379
 Vibration     9          0.641              1.830              2.069
 Vibration    10          0.646              1.813              1.972
 Vibration    11          0.654              1.788              1.845
 Vibration    12          0.666              1.753              1.690
 Vibration    13          0.669              1.744              1.654
 Vibration    14          0.675              1.726              1.589
 Vibration    15          0.678              1.716              1.553
 Vibration    16          0.686              1.692              1.473
 Vibration    17          0.696              1.662              1.384
 Vibration    18          0.716              1.607              1.240
 Vibration    19          0.721              1.592              1.203
 Vibration    20          0.745              1.526              1.064
 Vibration    21          0.774              1.449              0.927
 Vibration    22          0.792              1.404              0.857
 Vibration    23          0.806              1.368              0.805
 Vibration    24          0.869              1.219              0.624
 Vibration    25          0.889              1.174              0.577
 Vibration    26          0.944              1.059              0.472
 Vibration    27          0.952              1.044              0.460
 Vibration    28          0.974              1.001              0.425

 Optimization completed.
    -- Stationary point found.
 Normal termination of Gaussian 16 at Fri Dec 11 12:53:50 2020.

 ----------------------------------------------------------------------
 # B3LYP/6-311++G(d,p) empiricaldispersion=gd3bj scf=xqc pop=npa geom=c
 heck
 ----------------------------------------------------------------------

 --------------------------------------
 CID_69404208_JID_7399_Energie_neutraal
 --------------------------------------
 Structure from the checkpoint file:  "JID_7399.chk"
 Charge =  0 Multiplicity = 1

 SCF Done:  E(RB3LYP) =  -787.551200075     A.U. after   15 cycles
 Normal termination of Gaussian 16 at Fri Dec 11 13:01:17 2020.

 ----------------------------------------------------------------------
 # B3LYP/6-311++G(d,p) empiricaldispersion=gd3bj scf=xqc pop=npa geom=c
 heck
 ----------------------------------------------------------------------

 ------------------------------------
 CID_69404208_JID_7399_Energie_kation
 ------------------------------------
 Structure from the checkpoint file:  "JID_7399.chk"
 Charge =  1 Multiplicity = 2

 SCF Done:  E(UB3LYP) =  -787.259788472     A.U. after   24 cycles
 Normal termination of Gaussian 16 at Fri Dec 11 13:18:11 2020.
 Gaussian 16:  ES64L-G16RevA.03 25-Dec-2016

 ----------------------------------------------------------------------
 # B3LYP/6-311++G(d,p) empiricaldispersion=gd3bj scf=xqc pop=npa geom=c
 heck
 ----------------------------------------------------------------------

 -----------------------------------
 CID_69404208_JID_7399_Energie_anion
 -----------------------------------
 Structure from the checkpoint file:  "JID_7399.chk"
 Charge = -1 Multiplicity = 2

                         Standard orientation:
 ---------------------------------------------------------------------
 Center     Atomic      Atomic             Coordinates (Angstroms)
 Number     Number       Type             X           Y           Z
 ---------------------------------------------------------------------
      1          6           0        4.466773   -0.388775   -1.161987
      2          6           0        3.710956   -0.477660    0.175243
      3          6           0        4.139809    0.647621    1.142319
      4          7           0        4.029382    1.982938    0.542509
      5          6           0        2.209610   -0.560212   -0.037873
      6          6           0        1.464083    0.523033   -0.527454
      7          6           0        0.089610    0.419297   -0.737038
      8          6           0       -0.565596   -0.780915   -0.451079
      9          6           0        0.158743   -1.872109    0.027594
     10          6           0        1.533423   -1.756776    0.227727
     11          8           0       -1.920114   -0.957383   -0.685296
     12          6           0       -2.872263   -0.355447    0.195650
     13          6           0       -4.140834   -1.204535    0.030155
     14          6           0       -2.402446   -0.341066    1.655493
     15          6           0       -3.192459    1.071195   -0.283251
     16          8           0       -2.772949    1.612352   -1.278733
     17          8           0       -4.074632    1.679610    0.552930
     18          1           0        4.177497    0.510121   -1.716152
     19          1           0        4.235163   -1.252338   -1.793196
     20          1           0        5.552727   -0.364139   -1.002066
     21          1           0        4.016136   -1.414003    0.662213
     22          1           0        3.484333    0.621414    2.019796
     23          1           0        5.160977    0.416835    1.496887
     24          1           0        4.134659    2.692614    1.264338
     25          1           0        4.794328    2.129966   -0.112913
     26          1           0        1.971361    1.460237   -0.726561
     27          1           0       -0.479242    1.250748   -1.134341
     28          1           0       -0.364824   -2.800794    0.232623
     29          1           0        2.090258   -2.614018    0.600015
     30          1           0       -3.931671   -2.222084    0.372513
     31          1           0       -4.968775   -0.789402    0.609607
     32          1           0       -4.424898   -1.246631   -1.025433
     33          1           0       -1.511220    0.278715    1.783463
     34          1           0       -3.194718    0.047005    2.298949
     35          1           0       -2.156763   -1.361356    1.964679
     36          1           0       -4.245902    2.557979    0.163812
 ---------------------------------------------------------------------

 SCF Done:  E(UB3LYP) =  -787.540566685     A.U. after   33 cycles
 SCF Done:  E(UB3LYP) =  -787.540566685     a.u. after    1 cycles

 The electronic state is 2-A.
 Alpha  occ. eigenvalues --  -19.08421 -19.05048 -19.03326 -14.19700 -10.22095
 Alpha  occ. eigenvalues --  -10.17055 -10.13361 -10.09635 -10.08831 -10.08490
 Alpha  occ. eigenvalues --  -10.08459 -10.08296 -10.08180 -10.08045 -10.07411
 Alpha  occ. eigenvalues --  -10.07299 -10.06765  -1.02742  -0.96962  -0.93649
 Alpha  occ. eigenvalues --   -0.79144  -0.76482  -0.72594  -0.69136  -0.65431
 Alpha  occ. eigenvalues --   -0.63200  -0.61718  -0.57957  -0.57727  -0.53447
 Alpha  occ. eigenvalues --   -0.52256  -0.48649  -0.46611  -0.43945  -0.41039
 Alpha  occ. eigenvalues --   -0.40642  -0.40088  -0.39711  -0.38429  -0.36670
 Alpha  occ. eigenvalues --   -0.36149  -0.35348  -0.34190  -0.33958  -0.32922
 Alpha  occ. eigenvalues --   -0.32451  -0.32281  -0.31271  -0.31041  -0.30652
 Alpha  occ. eigenvalues --   -0.29985  -0.29067  -0.27417  -0.26647  -0.25288
 Alpha  occ. eigenvalues --   -0.24875  -0.24253  -0.23900  -0.23470  -0.20649
 Alpha  occ. eigenvalues --   -0.19059  -0.16277  -0.15045  -0.13994   0.03866
 Alpha virt. eigenvalues --    0.05044   0.06359   0.07082   0.07304   0.07727
 Alpha virt. eigenvalues --    0.07823   0.08201   0.08397   0.08946   0.09232
 Alpha virt. eigenvalues --    0.09909   0.10579   0.11182   0.11369   0.11530

  Beta  occ. eigenvalues --  -19.08366 -19.05045 -19.03311 -14.19660 -10.22094
  Beta  occ. eigenvalues --  -10.17047 -10.13360 -10.09609 -10.08817 -10.08486
  Beta  occ. eigenvalues --  -10.08443 -10.08296 -10.08174 -10.08041 -10.07409
  Beta  occ. eigenvalues --  -10.07295 -10.06739  -1.02681  -0.96948  -0.93596
  Beta  occ. eigenvalues --   -0.79083  -0.76467  -0.72571  -0.69106  -0.65421
  Beta  occ. eigenvalues --   -0.63176  -0.61691  -0.57889  -0.57652  -0.53402
  Beta  occ. eigenvalues --   -0.52239  -0.48596  -0.46581  -0.43904  -0.41006
  Beta  occ. eigenvalues --   -0.40608  -0.40047  -0.39682  -0.38397  -0.36651
  Beta  occ. eigenvalues --   -0.36128  -0.35308  -0.34151  -0.33918  -0.32897
  Beta  occ. eigenvalues --   -0.32428  -0.32248  -0.31240  -0.31019  -0.30629
  Beta  occ. eigenvalues --   -0.29958  -0.29046  -0.27402  -0.26627  -0.25263
  Beta  occ. eigenvalues --   -0.24849  -0.24218  -0.23873  -0.23448  -0.20622
  Beta  occ. eigenvalues --   -0.19013  -0.16270  -0.15010  -0.13977
  Beta virt. eigenvalues --    0.05899   0.06347   0.07025   0.07195   0.07755
  Beta virt. eigenvalues --    0.07878   0.08180   0.08419   0.08528   0.09051
  Beta virt. eigenvalues --    0.09602   0.10172   0.10752   0.11202   0.11513

 Mulliken charges and spin densities:
               1          2
     1  C    0.220570  -0.938857
     2  C   -1.553102   1.855227
     3  C    1.059541  -1.819885
     4  N   -0.421468   0.058131
     5  C    1.736629  -0.979412
     6  C   -0.493970   0.084952
     7  C   -0.547638   0.296034
     8  C   -0.203921  -0.127407
     9  C    0.160559  -0.204583
    10  C   -0.003085  -0.296890
    11  O   -0.017723   0.003077
    12  C   -0.124758   0.010023
    13  C   -0.111143  -0.256591
    14  C    0.284438  -0.842346
    15  C   -0.036786   0.035062
    16  O   -0.266917  -0.002013
    17  O   -0.155839   0.030661
    18  H    0.110141   0.046626
    19  H    0.057008   0.077476
    20  H   -0.378631   0.535506
    21  H    0.052999   0.128960
    22  H   -0.081907   0.251703
    23  H   -0.444896   0.592996
    24  H   -0.037479   0.280145
    25  H   -0.064750   0.288609
    26  H    0.282769  -0.018050
    27  H    0.134082   0.096791
    28  H    0.116476   0.060186
    29  H   -0.154950   0.301019
    30  H    0.048359   0.107216
    31  H    0.002556   0.152918
    32  H    0.090605   0.087286
    33  H    0.100338   0.110880
    34  H    0.096954   0.091256
    35  H   -0.002486   0.143552
    36  H   -0.452571   0.759743
 Sum of Mulliken charges =  -1.00000   1.00000

 Dipole moment (field-independent basis, Debye):
    X=             -3.4601    Y=             -5.0172    Z=             -0.5094  Tot=              6.1159
 Quadrupole moment (field-independent basis, Debye-Ang):
   XX=           -220.9284   YY=           -143.8305   ZZ=           -134.4849
   XY=              8.0666   XZ=             -5.9432   YZ=             -3.4634

 Summary of Natural Population Analysis:

                                       Natural Population
                Natural  -----------------------------------------------
    Atom  No    Charge         Core      Valence    Rydberg      Total
 -----------------------------------------------------------------------
      C    1   -0.28439      0.99965     2.27884    0.00590     3.28439
      C    2   -0.12113      0.99957     2.10927    0.01230     3.12113
      C    3   -0.08152      0.99961     2.07008    0.01183     3.08152
      N    4   -0.42741      0.99977     2.91644    0.01120     3.92741
      C    5   -0.01628      0.99949     2.00564    0.01114     3.01628
      C    6   -0.09389      0.99951     2.08665    0.00773     3.09389
      C    7   -0.12128      0.99950     2.11403    0.00776     3.12128
      C    8    0.14560      0.99935     1.84165    0.01339     2.85440
      C    9   -0.11897      0.99951     2.11040    0.00907     3.11897
      C   10   -0.09797      0.99952     2.08954    0.00891     3.09797
      O   11   -0.29678      0.99985     3.28601    0.01092     4.29678
      C   12    0.09673      0.99949     1.88686    0.01692     2.90327
      C   13   -0.28393      0.99961     2.27847    0.00585     3.28393
      C   14   -0.30088      0.99962     2.29427    0.00698     3.30088
      C   15    0.40103      0.99964     1.57246    0.02687     2.59897
      O   16   -0.29918      0.99987     3.29284    0.00647     4.29918
      O   17   -0.34827      0.99988     3.34077    0.00762     4.34827
      H   18    0.09976      0.00000     0.39916    0.00108     0.40024
      H   19    0.10067      0.00000     0.39856    0.00077     0.39933
      H   20    0.09953      0.00000     0.39938    0.00109     0.40047
      H   21    0.09747      0.00000     0.40040    0.00213     0.40253
      H   22    0.09293      0.00000     0.40576    0.00131     0.40707
      H   23    0.08198      0.00000     0.41560    0.00242     0.41802
      H   24    0.17894      0.00000     0.31898    0.00208     0.32106
      H   25    0.17486      0.00000     0.32284    0.00230     0.32514
      H   26    0.11617      0.00000     0.38235    0.00147     0.38383
      H   27    0.11637      0.00000     0.38221    0.00142     0.38363
      H   28    0.10236      0.00000     0.39627    0.00137     0.39764
      H   29    0.09809      0.00000     0.40053    0.00138     0.40191
      H   30    0.10263      0.00000     0.39630    0.00107     0.39737
      H   31    0.10724      0.00000     0.39175    0.00101     0.39276
      H   32    0.10643      0.00000     0.39252    0.00105     0.39357
      H   33    0.11111      0.00000     0.38766    0.00123     0.38889
      H   34    0.11246      0.00000     0.38652    0.00102     0.38754
      H   35    0.10397      0.00000     0.39502    0.00101     0.39603
      H   36    0.24554      0.00000     0.23534    0.01912     0.25446
 =======================================================================
   * Total *   -0.00000     16.99342    46.78137    0.22520    64.00000

 Normal termination of Gaussian 16 at Fri Dec 11 13:41:18 2020.
