 Gaussian 16, Revision A.03,

 -----------------------------------------------------------
 # opt freq B3LYP/6-31G(d) empiricaldispersion=gd3bj scf=xqc
 -----------------------------------------------------------

 -----------------------------
 CID_53909265_JID_791_neutraal
 -----------------------------
 Symbolic Z-matrix:
 Charge =  0 Multiplicity = 1

 SCF Done:  E(RB3LYP) =  -495.825441494     A.U. after   14 cycles
 SCF Done:  E(RB3LYP) =  -495.829795155     A.U. after   13 cycles
 SCF Done:  E(RB3LYP) =  -495.829186827     A.U. after   13 cycles
 SCF Done:  E(RB3LYP) =  -495.830391828     A.U. after   12 cycles
 SCF Done:  E(RB3LYP) =  -495.830501879     A.U. after   12 cycles
 SCF Done:  E(RB3LYP) =  -495.830742575     A.U. after   12 cycles
 SCF Done:  E(RB3LYP) =  -495.830849504     A.U. after   12 cycles
 SCF Done:  E(RB3LYP) =  -495.830881335     A.U. after   10 cycles
 SCF Done:  E(RB3LYP) =  -495.830911054     A.U. after   11 cycles
 SCF Done:  E(RB3LYP) =  -495.830936285     A.U. after   11 cycles
 SCF Done:  E(RB3LYP) =  -495.837283789     A.U. after   12 cycles
 SCF Done:  E(RB3LYP) =  -495.837296239     A.U. after   12 cycles
 SCF Done:  E(RB3LYP) =  -495.837298292     A.U. after   10 cycles
 SCF Done:  E(RB3LYP) =  -495.837300905     A.U. after    9 cycles
 SCF Done:  E(RB3LYP) =  -495.837301183     A.U. after    8 cycles
 Optimization completed.
    -- Stationary point found.
 Normal termination of Gaussian 16 at Tue Dec  8 13:10:37 2020.

 --------------------------------------------------------------------
 #N Geom=AllCheck Guess=TCheck SCRF=Check GenChk RB3LYP/6-31G(d) Freq
 --------------------------------------------------------------------

 Structure from the checkpoint file:  "JID_791.chk"
 -----------------------------
 CID_53909265_JID_791_neutraal
 -----------------------------
 Charge =  0 Multiplicity = 1

 SCF Done:  E(RB3LYP) =  -495.837301183     A.U. after    1 cycles

  Exact polarizability: 101.671   2.919  74.862  -4.727   2.049  65.941
 Approx polarizability: 131.776   3.721 108.363 -10.974   8.480  98.663

                      1                      2                      3
                      A                      A                      A
 Frequencies --     40.0432                56.7495                89.3822
 Red. masses --      5.8309                 5.1277                 3.8117
 Frc consts  --      0.0055                 0.0097                 0.0179
 IR Inten    --      3.4995                 1.7442                 6.6014

                      4                      5                      6
                      A                      A                      A
 Frequencies --     90.3237               132.0318               147.8360
 Red. masses --      2.0838                 3.2134                 2.6797
 Frc consts  --      0.0100                 0.0330                 0.0345
 IR Inten    --      2.4968                 1.9976                 2.8068

                      7                      8                      9
                      A                      A                      A
 Frequencies --    159.8158               222.3212               277.6186
 Red. masses --      3.1199                 3.4101                 1.1656
 Frc consts  --      0.0469                 0.0993                 0.0529
 IR Inten    --      2.0647                12.5233                55.3426

                     10                     11                     12
                      A                      A                      A
 Frequencies --    301.0808               369.4070               392.9888
 Red. masses --      2.7800                 2.9385                 3.7192
 Frc consts  --      0.1485                 0.2363                 0.3384
 IR Inten    --      2.8205                10.7179                 8.5744

                     13                     14                     15
                      A                      A                      A
 Frequencies --    518.1692               536.4032               576.8296
 Red. masses --      1.5165                 3.0093                 3.9135
 Frc consts  --      0.2399                 0.5102                 0.7672
 IR Inten    --     35.7186                 8.8203                15.2015

                     16                     17                     18
                      A                      A                      A
 Frequencies --    628.5120               682.9836               730.5411
 Red. masses --      1.5740                 2.9783                 1.5584
 Frc consts  --      0.3663                 0.8185                 0.4900
 IR Inten    --     77.7077                 1.2386                 7.7243

                     19                     20                     21
                      A                      A                      A
 Frequencies --    821.7687               852.7289               867.9122
 Red. masses --      1.3130                 2.9155                 3.2449
 Frc consts  --      0.5224                 1.2490                 1.4401
 IR Inten    --     24.9319                 9.6990                21.3099

                     22                     23                     24
                      A                      A                      A
 Frequencies --    904.9968               961.6144              1009.4443
 Red. masses --      1.3544                 1.7750                 1.8651
 Frc consts  --      0.6536                 0.9671                 1.1197
 IR Inten    --     98.8897                17.9480                 2.8535

                     25                     26                     27
                      A                      A                      A
 Frequencies --   1011.2499              1068.5094              1084.9498
 Red. masses --      1.8863                 2.3175                 2.5292
 Frc consts  --      1.1365                 1.5589                 1.7541
 IR Inten    --      2.0811                29.2719                13.0438

                     28                     29                     30
                      A                      A                      A
 Frequencies --   1122.5919              1152.2242              1182.4191
 Red. masses --      1.9781                 2.4837                 1.3073
 Frc consts  --      1.4687                 1.9428                 1.0769
 IR Inten    --     15.0159                 5.1933                 1.4201

                     31                     32                     33
                      A                      A                      A
 Frequencies --   1251.4497              1260.5628              1288.7970
 Red. masses --      1.5751                 1.3824                 1.2914
 Frc consts  --      1.4534                 1.2943                 1.2638
 IR Inten    --     85.9331                18.5269                21.7578

                     34                     35                     36
                      A                      A                      A
 Frequencies --   1326.5052              1347.9978              1397.5365
 Red. masses --      1.4975                 1.1074                 1.3474
 Frc consts  --      1.5525                 1.1856                 1.5505
 IR Inten    --     42.5150                 3.2500                45.2342

                     37                     38                     39
                      A                      A                      A
 Frequencies --   1400.7097              1425.6023              1440.3192
 Red. masses --      1.6174                 1.5135                 1.2022
 Frc consts  --      1.8696                 1.8123                 1.4694
 IR Inten    --     21.0699                19.0988                 7.1260

                     40                     41                     42
                      A                      A                      A
 Frequencies --   1456.1164              1472.6003              1505.3830
 Red. masses --      1.6173                 1.1217                 1.1581
 Frc consts  --      2.0204                 1.4332                 1.5462
 IR Inten    --     66.1483                34.9706                11.7572

                     43                     44                     45
                      A                      A                      A
 Frequencies --   1513.5080              1527.1419              1541.9879
 Red. masses --      1.6897                 1.1097                 1.0895
 Frc consts  --      2.2805                 1.5248                 1.5263
 IR Inten    --     44.5195                10.0661                 1.2562

                     46                     47                     48
                      A                      A                      A
 Frequencies --   1698.3178              1783.4529              1833.4358
 Red. masses --      1.0883                 7.8819                 9.5988
 Frc consts  --      1.8494                14.7709                19.0107
 IR Inten    --     25.8319               326.8897               137.6067

                     49                     50                     51
                      A                      A                      A
 Frequencies --   2918.9229              2998.2039              3021.5860
 Red. masses --      1.0846                 1.0734                 1.0663
 Frc consts  --      5.4444                 5.6849                 5.7358
 IR Inten    --    145.4762                56.2044                19.4877

                     52                     53                     54
                      A                      A                      A
 Frequencies --   3043.7514              3049.4410              3062.3695
 Red. masses --      1.0740                 1.0621                 1.0952
 Frc consts  --      5.8626                 5.8193                 6.0514
 IR Inten    --     53.6176                15.8383                12.4481

                     55                     56                     57
                      A                      A                      A
 Frequencies --   3090.2056              3111.2270              3163.6775
 Red. masses --      1.0951                 1.0940                 1.0900
 Frc consts  --      6.1612                 6.2394                 6.4280
 IR Inten    --      5.4825                22.7599                 5.2374

                     58                     59                     60
                      A                      A                      A
 Frequencies --   3455.8148              3541.2944              3582.2809
 Red. masses --      1.0504                 1.0914                 1.0754
 Frc consts  --      7.3909                 8.0644                 8.1311
 IR Inten    --      3.2236                 1.4231                11.8105

 - Thermochemistry -
 -------------------
 Temperature   298.150 Kelvin.  Pressure   1.00000 Atm.
 Atom     1 has atomic number  6 and mass  12.00000

 Molecular mass:   144.08988 amu.
 Principal axes and moments of inertia in atomic units:
                           1         2         3
     Eigenvalues --   973.612912407.496582956.61151
           X            0.99955   0.02915  -0.00633
           Y           -0.02923   0.99948  -0.01375
           Z            0.00593   0.01393   0.99989
 This molecule is an asymmetric top.
 Rotational symmetry number  1.
 Warning -- assumption of classical behavior for rotation
           may cause significant error
 Rotational temperatures (Kelvin)      0.08896     0.03598     0.02929
 Rotational constants (GHZ):           1.85365     0.74963     0.61041
 Zero-point vibrational energy     493481.4 (Joules/Mol)
                                  117.94488 (Kcal/Mol)
 Warning -- explicit consideration of  15 degrees of freedom as
           vibrations may cause significant error
 Vibrational temperatures:     57.61    81.65   128.60   129.96   189.96
          (Kelvin)            212.70   229.94   319.87   399.43   433.19
                              531.49   565.42   745.53   771.76   829.93
                              904.29   982.66  1051.09  1182.34  1226.89
                             1248.73  1302.09  1383.55  1452.37  1454.96
                             1537.35  1561.00  1615.16  1657.79  1701.24
                             1800.56  1813.67  1854.29  1908.55  1939.47
                             2010.74  2015.31  2051.12  2072.30  2095.03
                             2118.74  2165.91  2177.60  2197.22  2218.58
                             2443.50  2565.99  2637.91  4199.68  4313.75
                             4347.39  4379.28  4387.47  4406.07  4446.12
                             4476.36  4551.83  4972.15  5095.13  5154.10

 Zero-point correction=                           0.187957 (Hartree/Particle)
 Thermal correction to Energy=                    0.199522
 Thermal correction to Enthalpy=                  0.200467
 Thermal correction to Gibbs Free Energy=         0.149335
 Sum of electronic and zero-point Energies=           -495.649344
 Sum of electronic and thermal Energies=              -495.637779
 Sum of electronic and thermal Enthalpies=            -495.636835
 Sum of electronic and thermal Free Energies=         -495.687966

                     E (Thermal)             CV                S
                      KCal/Mol        Cal/Mol-Kelvin    Cal/Mol-Kelvin
 Total                  125.202             40.215            107.615
 Electronic               0.000              0.000              0.000
 Translational            0.889              2.981             40.807
 Rotational               0.889              2.981             30.317
 Vibrational            123.425             34.253             36.491
 Vibration     1          0.594              1.981              5.257
 Vibration     2          0.596              1.975              4.567
 Vibration     3          0.602              1.957              3.674
 Vibration     4          0.602              1.956              3.653
 Vibration     5          0.612              1.921              2.916
 Vibration     6          0.617              1.905              2.700
 Vibration     7          0.622              1.892              2.552
 Vibration     8          0.648              1.807              1.940
 Vibration     9          0.679              1.715              1.548
 Vibration    10          0.693              1.672              1.411
 Vibration    11          0.742              1.535              1.082
 Vibration    12          0.760              1.485              0.989
 Vibration    13          0.873              1.210              0.614
 Vibration    14          0.891              1.170              0.573
 Vibration    15          0.933              1.081              0.491

                           ! Non-Optimized Parameters !
 Normal termination of Gaussian 16 at Tue Dec  8 13:17:02 2020.

 ----------------------------------------------------------------------
 # B3LYP/6-311++G(d,p) empiricaldispersion=gd3bj scf=xqc pop=npa geom=c
 heck
 ----------------------------------------------------------------------

 -------------------------------------
 CID_53909265_JID_791_Energie_neutraal
 -------------------------------------
 Structure from the checkpoint file:  "JID_791.chk"
 Charge =  0 Multiplicity = 1

 SCF Done:  E(RB3LYP) =  -495.999105170     A.U. after   14 cycles
 Normal termination of Gaussian 16 at Tue Dec  8 13:23:32 2020.

 ----------------------------------------------------------------------
 # B3LYP/6-311++G(d,p) empiricaldispersion=gd3bj scf=xqc pop=npa geom=c
 heck
 ----------------------------------------------------------------------

 -----------------------------------
 CID_53909265_JID_791_Energie_kation
 -----------------------------------
 Structure from the checkpoint file:  "JID_791.chk"
 Charge =  1 Multiplicity = 2

 SCF Done:  E(UB3LYP) =  -495.683125246     A.U. after   28 cycles
 Normal termination of Gaussian 16 at Tue Dec  8 13:33:13 2020.
 Gaussian 16:  ES64L-G16RevA.03 25-Dec-2016

 ----------------------------------------------------------------------
 # B3LYP/6-311++G(d,p) empiricaldispersion=gd3bj scf=xqc pop=npa geom=c
 heck
 ----------------------------------------------------------------------

 ----------------------------------
 CID_53909265_JID_791_Energie_anion
 ----------------------------------
 Structure from the checkpoint file:  "JID_791.chk"
 Charge = -1 Multiplicity = 2

                         Standard orientation:
 ---------------------------------------------------------------------
 Center     Atomic      Atomic             Coordinates (Angstroms)
 Number     Number       Type             X           Y           Z
 ---------------------------------------------------------------------
      1          6           0       -2.838572    0.053866    0.329390
      2          6           0       -1.623427   -0.539417    1.049706
      3          7           0       -0.789454   -1.327154    0.163130
      4          6           0        0.525754   -1.140469   -0.194312
      5          8           0        1.072905   -1.936442   -0.948933
      6          6           0        1.242235    0.067234    0.387158
      7          6           0        2.658073    0.209271   -0.164041
      8          7           0        3.327764    1.334700    0.500510
      9          6           0       -2.508479    1.185883   -0.618577
     10          8           0       -1.445283    1.764891   -0.660858
     11          1           0       -3.562032    0.451577    1.059157
     12          1           0       -3.385973   -0.718937   -0.228540
     13          1           0       -1.022795    0.266290    1.471984
     14          1           0       -1.969899   -1.158981    1.887432
     15          1           0       -1.186354   -2.170885   -0.233821
     16          1           0        0.654256    0.967481    0.171774
     17          1           0        1.293176   -0.019504    1.480634
     18          1           0        3.220563   -0.703947    0.051955
     19          1           0        2.608555    0.289994   -1.261679
     20          1           0        4.288909    1.398317    0.168725
     21          1           0        2.880287    2.206709    0.217798
     22          1           0       -3.341335    1.493266   -1.288500
 ---------------------------------------------------------------------

 SCF Done:  E(UB3LYP) =  -495.991823324     A.U. after   33 cycles
 SCF Done:  E(UB3LYP) =  -495.991823324     a.u. after    1 cycles

 The electronic state is 2-A.
 Alpha  occ. eigenvalues --  -18.99015 -18.97560 -14.22187 -14.19926 -10.16212
 Alpha  occ. eigenvalues --  -10.12279 -10.09780 -10.08981 -10.06416 -10.06281
 Alpha  occ. eigenvalues --   -0.92754  -0.92282  -0.80981  -0.78723  -0.66306
 Alpha  occ. eigenvalues --   -0.64754  -0.56073  -0.53064  -0.45577  -0.44696
 Alpha  occ. eigenvalues --   -0.40031  -0.38946  -0.38230  -0.36213  -0.35214
 Alpha  occ. eigenvalues --   -0.33520  -0.31809  -0.30912  -0.30138  -0.28172
 Alpha  occ. eigenvalues --   -0.27527  -0.25944  -0.25486  -0.24270  -0.23817
 Alpha  occ. eigenvalues --   -0.15488  -0.14869  -0.14360  -0.13167   0.04774
 Alpha virt. eigenvalues --    0.06409   0.07736   0.08625   0.09267   0.10156
 Alpha virt. eigenvalues --    0.10306   0.11096   0.11894   0.12683   0.12932
 Alpha virt. eigenvalues --    0.13287   0.14525   0.15597   0.16277   0.17256

  Beta  occ. eigenvalues --  -18.98807 -18.97554 -14.22179 -14.19907 -10.16208
  Beta  occ. eigenvalues --  -10.12038 -10.09746 -10.08977 -10.06412 -10.06262
  Beta  occ. eigenvalues --   -0.92729  -0.91882  -0.80954  -0.78694  -0.66175
  Beta  occ. eigenvalues --   -0.64703  -0.55828  -0.53025  -0.45548  -0.44272
  Beta  occ. eigenvalues --   -0.39993  -0.38866  -0.38145  -0.36070  -0.35149
  Beta  occ. eigenvalues --   -0.33387  -0.31620  -0.30642  -0.29981  -0.28037
  Beta  occ. eigenvalues --   -0.27482  -0.25817  -0.25331  -0.23854  -0.23416
  Beta  occ. eigenvalues --   -0.15473  -0.14814  -0.14321  -0.13015
  Beta virt. eigenvalues --    0.06672   0.08112   0.09313   0.09620   0.10067
  Beta virt. eigenvalues --    0.10308   0.10750   0.11163   0.12521   0.12951
  Beta virt. eigenvalues --    0.13156   0.13492   0.14638   0.15491   0.16478

 Mulliken charges and spin densities:
               1          2
     1  C    1.128242  -1.435172
     2  C    0.596388  -0.776795
     3  N   -0.254877   0.075276
     4  C    0.175947  -0.272727
     5  O   -0.369101   0.016336
     6  C   -0.102128   0.140562
     7  C   -0.257214  -0.396376
     8  N   -0.351847  -0.000519
     9  C   -0.101304   0.235353
    10  O   -0.303427   0.045060
    11  H   -0.771600   0.967566
    12  H   -0.161661   0.299392
    13  H    0.201719  -0.044299
    14  H   -0.876618   1.080852
    15  H    0.134965   0.150069
    16  H    0.200332   0.008076
    17  H    0.030490   0.149563
    18  H    0.117393   0.057313
    19  H    0.119239   0.039387
    20  H    0.057438   0.169331
    21  H    0.092345   0.114159
    22  H   -0.304719   0.377591
 Sum of Mulliken charges =  -1.00000   1.00000

 Dipole moment (field-independent basis, Debye):
    X=              5.1455    Y=              0.8017    Z=             -2.1170  Tot=              5.6215
 Quadrupole moment (field-independent basis, Debye-Ang):
   XX=           -119.3543   YY=            -91.4506   ZZ=            -94.6967
   XY=             -0.0553   XZ=              8.7584   YZ=             -0.5511

 Summary of Natural Population Analysis:

                                       Natural Population
                Natural  -----------------------------------------------
    Atom  No    Charge         Core      Valence    Rydberg      Total
 -----------------------------------------------------------------------
      C    1   -0.24676      0.99961     2.23756    0.00958     3.24676
      C    2   -0.09061      0.99961     2.07806    0.01294     3.09061
      N    3   -0.31668      0.99967     2.80668    0.01033     3.81668
      C    4    0.34992      0.99968     1.62854    0.02186     2.65008
      O    5   -0.33430      0.99988     3.32871    0.00572     4.33430
      C    6   -0.24879      0.99957     2.24232    0.00689     3.24879
      C    7   -0.08701      0.99964     2.07651    0.01086     3.08701
      N    8   -0.42273      0.99977     2.91329    0.00967     3.92273
      C    9    0.26092      0.99974     1.71913    0.02022     2.73908
      O   10   -0.27430      0.99988     3.26715    0.00727     4.27430
      H   11    0.12185      0.00000     0.36907    0.00908     0.37815
      H   12    0.10476      0.00000     0.39353    0.00172     0.39524
      H   13    0.10477      0.00000     0.39334    0.00189     0.39523
      H   14    0.09900      0.00000     0.39745    0.00355     0.40100
      H   15    0.19054      0.00000     0.30700    0.00245     0.30946
      H   16    0.12392      0.00000     0.37433    0.00175     0.37608
      H   17    0.10886      0.00000     0.38963    0.00151     0.39114
      H   18    0.09249      0.00000     0.40580    0.00171     0.40751
      H   19    0.08274      0.00000     0.41530    0.00195     0.41726
      H   20    0.17149      0.00000     0.32696    0.00155     0.32851
      H   21    0.17134      0.00000     0.32694    0.00173     0.32866
      H   22    0.03860      0.00000     0.45853    0.00287     0.46140
 =======================================================================
   * Total *    0.00000      9.99706    28.85583    0.14711    39.00000

 Normal termination of Gaussian 16 at Tue Dec  8 13:41:58 2020.
