 Gaussian 16, Revision A.03,

 -----------------------------------------------------------
 # opt freq B3LYP/6-31G(d) empiricaldispersion=gd3bj scf=xqc
 -----------------------------------------------------------

 ------------------------------
 CID_81978937_JID_4285_neutraal
 ------------------------------
 Symbolic Z-matrix:
 Charge =  0 Multiplicity = 1

 SCF Done:  E(RB3LYP) =  -583.696438689     A.U. after   13 cycles
 SCF Done:  E(RB3LYP) =  -583.699696661     A.U. after   11 cycles
 SCF Done:  E(RB3LYP) =  -583.700497487     A.U. after   10 cycles
 SCF Done:  E(RB3LYP) =  -583.700452330     A.U. after   10 cycles
 SCF Done:  E(RB3LYP) =  -583.700816546     A.U. after   10 cycles
 SCF Done:  E(RB3LYP) =  -583.701048782     A.U. after   10 cycles
 SCF Done:  E(RB3LYP) =  -583.701246441     A.U. after   10 cycles
 SCF Done:  E(RB3LYP) =  -583.701421881     A.U. after   10 cycles
 SCF Done:  E(RB3LYP) =  -583.701554444     A.U. after   10 cycles
 SCF Done:  E(RB3LYP) =  -583.701571498     A.U. after    9 cycles
 SCF Done:  E(RB3LYP) =  -583.701688695     A.U. after    9 cycles
 SCF Done:  E(RB3LYP) =  -583.701688014     A.U. after    8 cycles
 SCF Done:  E(RB3LYP) =  -583.701690915     A.U. after    9 cycles
 SCF Done:  E(RB3LYP) =  -583.701690905     A.U. after    7 cycles
 SCF Done:  E(RB3LYP) =  -583.701691112     A.U. after    7 cycles
 SCF Done:  E(RB3LYP) =  -583.701691169     A.U. after    6 cycles
 Optimization completed.
    -- Stationary point found.
 Normal termination of Gaussian 16 at Thu Dec 10 09:34:21 2020.

 --------------------------------------------------------------------
 #N Geom=AllCheck Guess=TCheck SCRF=Check GenChk RB3LYP/6-31G(d) Freq
 --------------------------------------------------------------------

 Structure from the checkpoint file:  "JID_4285.chk"
 ------------------------------
 CID_81978937_JID_4285_neutraal
 ------------------------------
 Charge =  0 Multiplicity = 1

 SCF Done:  E(RB3LYP) =  -583.701691169     A.U. after    1 cycles

  Exact polarizability: 161.018  -3.239 135.617   1.087  -0.220 126.197
 Approx polarizability: 194.894  -1.982 193.827  -0.344   0.097 186.420

                      1                      2                      3
                      A                      A                      A
 Frequencies --     14.5946                36.6781                48.5292
 Red. masses --      3.2758                 3.3200                 3.0032
 Frc consts  --      0.0004                 0.0026                 0.0042
 IR Inten    --      0.0664                 0.0672                 0.0555

                      4                      5                      6
                      A                      A                      A
 Frequencies --     82.2711               105.9664               134.6023
 Red. masses --      3.0222                 2.2343                 1.7055
 Frc consts  --      0.0121                 0.0148                 0.0182
 IR Inten    --      0.2122                 0.0986                 0.0732

                      7                      8                      9
                      A                      A                      A
 Frequencies --    142.7412               153.9543               170.8639
 Red. masses --      2.1923                 2.3122                 1.7431
 Frc consts  --      0.0263                 0.0323                 0.0300
 IR Inten    --      0.2111                 0.6868                 0.8916

                     10                     11                     12
                      A                      A                      A
 Frequencies --    209.8011               219.9087               232.2256
 Red. masses --      1.0928                 1.3961                 1.4736
 Frc consts  --      0.0283                 0.0398                 0.0468
 IR Inten    --      0.3227                 0.5904                 0.3551

                     13                     14                     15
                      A                      A                      A
 Frequencies --    237.2273               260.0476               268.9794
 Red. masses --      1.1472                 1.6171                 1.6709
 Frc consts  --      0.0380                 0.0644                 0.0712
 IR Inten    --      0.1728                 1.7027                 0.1898

                     16                     17                     18
                      A                      A                      A
 Frequencies --    281.0771               292.8046               306.6239
 Red. masses --      1.1516                 2.4023                 2.0367
 Frc consts  --      0.0536                 0.1213                 0.1128
 IR Inten    --     37.3607                 0.4236                 0.7785

                     19                     20                     21
                      A                      A                      A
 Frequencies --    346.8079               357.5130               373.3273
 Red. masses --      1.9124                 2.3780                 2.3800
 Frc consts  --      0.1355                 0.1791                 0.1954
 IR Inten    --      0.6877                 8.1562                 0.9302

                     22                     23                     24
                      A                      A                      A
 Frequencies --    403.9261               418.6125               435.0210
 Red. masses --      2.2079                 2.5808                 2.2613
 Frc consts  --      0.2122                 0.2665                 0.2521
 IR Inten    --      8.0668                 1.9688                 0.7900

                     25                     26                     27
                      A                      A                      A
 Frequencies --    467.6926               500.0427               509.7208
 Red. masses --      2.5662                 2.6197                 2.4423
 Frc consts  --      0.3307                 0.3859                 0.3739
 IR Inten    --      1.1163                 2.0340                 0.6664

                     28                     29                     30
                      A                      A                      A
 Frequencies --    537.1175               592.9131               715.5957
 Red. masses --      2.6586                 2.5762                 2.9921
 Frc consts  --      0.4519                 0.5336                 0.9027
 IR Inten    --      1.7358                 9.7013                 3.4324

                     31                     32                     33
                      A                      A                      A
 Frequencies --    754.1385               781.5964               800.9195
 Red. masses --      1.5012                 1.2115                 1.3001
 Frc consts  --      0.5030                 0.4361                 0.4914
 IR Inten    --      5.5815                 4.0285                 2.0254

                     34                     35                     36
                      A                      A                      A
 Frequencies --    842.1617               850.8304               886.6749
 Red. masses --      1.8103                 2.0851                 2.4909
 Frc consts  --      0.7565                 0.8893                 1.1538
 IR Inten    --      9.5703                 2.6045                24.1855

                     37                     38                     39
                      A                      A                      A
 Frequencies --    893.5312               920.0098               936.6292
 Red. masses --      1.3911                 2.0072                 1.5288
 Frc consts  --      0.6544                 1.0010                 0.7902
 IR Inten    --    122.8075                 1.4601                76.7503

                     40                     41                     42
                      A                      A                      A
 Frequencies --    937.4687               979.8645              1012.4249
 Red. masses --      1.5490                 2.0191                 1.3872
 Frc consts  --      0.8021                 1.1422                 0.8377
 IR Inten    --      2.3483                13.9908                 3.1207

                     43                     44                     45
                      A                      A                      A
 Frequencies --   1018.8656              1022.4532              1027.7989
 Red. masses --      1.5886                 1.6863                 1.9596
 Frc consts  --      0.9716                 1.0387                 1.2197
 IR Inten    --     12.7099                 3.6924                14.2847

                     46                     47                     48
                      A                      A                      A
 Frequencies --   1056.6640              1080.5867              1083.6406
 Red. masses --      1.9688                 1.8221                 1.7155
 Frc consts  --      1.2952                 1.2535                 1.1869
 IR Inten    --     13.0441                 2.3272                 2.7883

                     49                     50                     51
                      A                      A                      A
 Frequencies --   1089.3147              1093.9270              1118.9571
 Red. masses --      1.6558                 1.9088                 1.7940
 Frc consts  --      1.1576                 1.3458                 1.3234
 IR Inten    --      8.9868                 1.8888                22.2271

                     52                     53                     54
                      A                      A                      A
 Frequencies --   1153.1328              1162.1498              1192.4254
 Red. masses --      1.4774                 1.7289                 2.2801
 Frc consts  --      1.1575                 1.3758                 1.9101
 IR Inten    --     10.9296                 1.8042                 8.3500

                     55                     56                     57
                      A                      A                      A
 Frequencies --   1204.7083              1223.3102              1232.4864
 Red. masses --      2.7050                 1.5691                 1.9185
 Frc consts  --      2.3131                 1.3835                 1.7171
 IR Inten    --     16.6416                 2.2705                 4.3843

                     58                     59                     60
                      A                      A                      A
 Frequencies --   1240.1274              1260.5131              1296.8116
 Red. masses --      1.9293                 1.5368                 1.5514
 Frc consts  --      1.7482                 1.4386                 1.5372
 IR Inten    --     37.4160                 7.4134                11.6528

                     61                     62                     63
                      A                      A                      A
 Frequencies --   1305.9012              1321.6731              1340.1987
 Red. masses --      2.0287                 1.2936                 1.3388
 Frc consts  --      2.0384                 1.3314                 1.4168
 IR Inten    --     18.9475                 2.4333                 9.1554

                     64                     65                     66
                      A                      A                      A
 Frequencies --   1349.0976              1367.8837              1380.6922
 Red. masses --      1.4047                 1.2193                 1.3411
 Frc consts  --      1.5063                 1.3442                 1.5063
 IR Inten    --      3.1410                 7.0439                 9.9560

                     67                     68                     69
                      A                      A                      A
 Frequencies --   1390.8127              1396.3731              1405.6276
 Red. masses --      1.4632                 1.4147                 1.2760
 Frc consts  --      1.6676                 1.6252                 1.4854
 IR Inten    --      0.9377                 3.0635                14.4278

                     70                     71                     72
                      A                      A                      A
 Frequencies --   1422.0456              1435.9887              1439.8013
 Red. masses --      1.2441                 1.3492                 1.2418
 Frc consts  --      1.4823                 1.6392                 1.5168
 IR Inten    --     10.1007                 2.8892                 5.0920

                     73                     74                     75
                      A                      A                      A
 Frequencies --   1443.5075              1444.8956              1446.5103
 Red. masses --      1.2879                 1.3964                 1.2900
 Frc consts  --      1.5812                 1.7177                 1.5903
 IR Inten    --     10.2411                 5.5803                 0.9444

                     76                     77                     78
                      A                      A                      A
 Frequencies --   1488.4367              1509.3217              1512.4653
 Red. masses --      1.1636                 1.0755                 1.0620
 Frc consts  --      1.5189                 1.4435                 1.4313
 IR Inten    --      1.7945                 1.2413                 0.6644

                     79                     80                     81
                      A                      A                      A
 Frequencies --   1516.3670              1519.9934              1523.3317
 Red. masses --      1.0556                 1.0763                 1.0545
 Frc consts  --      1.4300                 1.4650                 1.4417
 IR Inten    --      2.3610                 1.2514                 0.9635

                     82                     83                     84
                      A                      A                      A
 Frequencies --   1527.3684              1528.9880              1532.6047
 Red. masses --      1.0534                 1.0565                 1.0498
 Frc consts  --      1.4479                 1.4553                 1.4528
 IR Inten    --      5.4329                 1.8506                 6.1268

                     85                     86                     87
                      A                      A                      A
 Frequencies --   1533.5422              1533.8715              1539.6739
 Red. masses --      1.0603                 1.0550                 1.0635
 Frc consts  --      1.4691                 1.4625                 1.4854
 IR Inten    --      1.6920                 6.8624                 1.3829

                     88                     89                     90
                      A                      A                      A
 Frequencies --   1542.4737              1543.0592              1552.5468
 Red. masses --      1.0588                 1.0676                 1.0682
 Frc consts  --      1.4842                 1.4976                 1.5170
 IR Inten    --      1.3653                 7.5421                 6.0779

                     91                     92                     93
                      A                      A                      A
 Frequencies --   1555.9738              1694.7973              2954.5167
 Red. masses --      1.0652                 1.0910                 1.0653
 Frc consts  --      1.5194                 1.8463                 5.4788
 IR Inten    --      7.3703                20.3943                31.2880

                     94                     95                     96
                      A                      A                      A
 Frequencies --   2962.0512              3024.0035              3034.9055
 Red. masses --      1.0709                 1.0689                 1.0685
 Frc consts  --      5.5356                 5.7591                 5.7982
 IR Inten    --     88.3811                15.6041                 9.5726

                     97                     98                     99
                      A                      A                      A
 Frequencies --   3039.9538              3045.4447              3047.0949
 Red. masses --      1.0641                 1.0432                 1.0490
 Frc consts  --      5.7937                 5.7008                 5.7387
 IR Inten    --     40.2423                 7.4268                 4.9664

                    100                    101                    102
                      A                      A                      A
 Frequencies --   3049.0138              3051.6811              3057.5026
 Red. masses --      1.0631                 1.0453                 1.0366
 Frc consts  --      5.8227                 5.7356                 5.7097
 IR Inten    --     50.2254                47.5956                31.8506

                    103                    104                    105
                      A                      A                      A
 Frequencies --   3061.9634              3062.6853              3077.2755
 Red. masses --      1.0399                 1.1002                 1.0996
 Frc consts  --      5.7444                 6.0801                 6.1349
 IR Inten    --     12.8814                28.7025                50.3394

                    106                    107                    108
                      A                      A                      A
 Frequencies --   3077.4687              3081.9261              3106.2781
 Red. masses --      1.1009                 1.0984                 1.0712
 Frc consts  --      6.1432                 6.1467                 6.0899
 IR Inten    --      0.6404                60.8565                38.6777

                    109                    110                    111
                      A                      A                      A
 Frequencies --   3111.1867              3112.9374              3115.4829
 Red. masses --      1.1019                 1.1014                 1.1018
 Frc consts  --      6.2839                 6.2883                 6.3008
 IR Inten    --     51.7388                 0.5938                69.7450

                    112                    113                    114
                      A                      A                      A
 Frequencies --   3116.6203              3119.1312              3120.7491
 Red. masses --      1.1009                 1.1010                 1.1015
 Frc consts  --      6.3004                 6.3109                 6.3203
 IR Inten    --     35.3002                33.9388                42.4402

                    115                    116                    117
                      A                      A                      A
 Frequencies --   3135.0770              3138.5815              3142.1429
 Red. masses --      1.0900                 1.1003                 1.1001
 Frc consts  --      6.3119                 6.3863                 6.3991
 IR Inten    --     39.6480                51.5381                27.2558

                    118                    119                    120
                      A                      A                      A
 Frequencies --   3146.5475              3452.6825              3538.9897
 Red. masses --      1.1009                 1.0490                 1.0921
 Frc consts  --      6.4218                 7.3677                 8.0590
 IR Inten    --     28.6517                 4.8641                 1.5853

 - Thermochemistry -
 -------------------
 Temperature   298.150 Kelvin.  Pressure   1.00000 Atm.
 Atom     1 has atomic number  6 and mass  12.00000

 Molecular mass:   200.22525 amu.
 Principal axes and moments of inertia in atomic units:
                           1         2         3
     Eigenvalues --  1624.773745877.967056329.43714
           X            0.99996  -0.00942   0.00076
           Y            0.00941   0.99984   0.01508
           Z           -0.00090  -0.01507   0.99989
 This molecule is an asymmetric top.
 Rotational symmetry number  1.
 Warning -- assumption of classical behavior for rotation
           may cause significant error
 Rotational temperatures (Kelvin)      0.05331     0.01474     0.01368
 Rotational constants (GHZ):           1.11076     0.30703     0.28513
 Zero-point vibrational energy    1040996.5 (Joules/Mol)
                                  248.80414 (Kcal/Mol)
 Warning -- explicit consideration of  29 degrees of freedom as
           vibrations may cause significant error
 Vibrational temperatures:     21.00    52.77    69.82   118.37   152.46
          (Kelvin)            193.66   205.37   221.51   245.83   301.86
                              316.40   334.12   341.32   374.15   387.00
                              404.41   421.28   441.16   498.98   514.38
                              537.13   581.16   602.29   625.90   672.91
                              719.45   733.37   772.79   853.07  1029.58
                             1085.04  1124.54  1152.34  1211.68  1224.16
                             1275.73  1285.59  1323.69  1347.60  1348.81
                             1409.81  1456.65  1465.92  1471.08  1478.77
                             1520.30  1554.72  1559.12  1567.28  1573.92
                             1609.93  1659.10  1672.07  1715.63  1733.31
                             1760.07  1773.27  1784.27  1813.60  1865.82
                             1878.90  1901.59  1928.25  1941.05  1968.08
                             1986.51  2001.07  2009.07  2022.38  2046.01
                             2066.07  2071.55  2076.89  2078.88  2081.21
                             2141.53  2171.58  2176.10  2181.71  2186.93
                             2191.73  2197.54  2199.87  2205.08  2206.43
                             2206.90  2215.25  2219.28  2220.12  2233.77
                             2238.70  2438.44  4250.89  4261.73  4350.87
                             4366.55  4373.82  4381.72  4384.09  4386.85
                             4390.69  4399.06  4405.48  4406.52  4427.51
                             4427.79  4434.20  4469.24  4476.30  4478.82
                             4482.48  4484.12  4487.73  4490.06  4510.68
                             4515.72  4520.84  4527.18  4967.64  5091.82

 Zero-point correction=                           0.396495 (Hartree/Particle)
 Thermal correction to Energy=                    0.414708
 Thermal correction to Enthalpy=                  0.415652
 Thermal correction to Gibbs Free Energy=         0.350193
 Sum of electronic and zero-point Energies=           -583.305197
 Sum of electronic and thermal Energies=              -583.286983
 Sum of electronic and thermal Enthalpies=            -583.286039
 Sum of electronic and thermal Free Energies=         -583.351498

                     E (Thermal)             CV                S
                      KCal/Mol        Cal/Mol-Kelvin    Cal/Mol-Kelvin
 Total                  260.233             68.647            137.771
 Electronic               0.000              0.000              0.000
 Translational            0.889              2.981             41.787
 Rotational               0.889              2.981             32.469
 Vibrational            258.456             62.685             63.515
 Vibration     1          0.593              1.986              7.260
 Vibration     2          0.594              1.982              5.431
 Vibration     3          0.595              1.978              4.876
 Vibration     4          0.600              1.961              3.836
 Vibration     5          0.605              1.944              3.341
 Vibration     6          0.613              1.919              2.879
 Vibration     7          0.616              1.910              2.767
 Vibration     8          0.619              1.898              2.623
 Vibration     9          0.626              1.878              2.426
 Vibration    10          0.642              1.826              2.045
 Vibration    11          0.647              1.811              1.960
 Vibration    12          0.653              1.792              1.862
 Vibration    13          0.656              1.784              1.824
 Vibration    14          0.668              1.746              1.661
 Vibration    15          0.673              1.730              1.603
 Vibration    16          0.681              1.709              1.527
 Vibration    17          0.688              1.687              1.458
 Vibration    18          0.697              1.661              1.380
 Vibration    19          0.725              1.582              1.181
 Vibration    20          0.733              1.560              1.133
 Vibration    21          0.745              1.527              1.066
 Vibration    22          0.769              1.462              0.948
 Vibration    23          0.781              1.430              0.897
 Vibration    24          0.796              1.394              0.842
 Vibration    25          0.825              1.322              0.744
 Vibration    26          0.855              1.250              0.658
 Vibration    27          0.865              1.228              0.634
 Vibration    28          0.892              1.168              0.572
 Vibration    29          0.950              1.047              0.462

 Optimization completed.
    -- Stationary point found.
 Normal termination of Gaussian 16 at Thu Dec 10 09:49:35 2020.

 ----------------------------------------------------------------------
 # B3LYP/6-311++G(d,p) empiricaldispersion=gd3bj scf=xqc pop=npa geom=c
 heck
 ----------------------------------------------------------------------

 --------------------------------------
 CID_81978937_JID_4285_Energie_neutraal
 --------------------------------------
 Structure from the checkpoint file:  "JID_4285.chk"
 Charge =  0 Multiplicity = 1

 SCF Done:  E(RB3LYP) =  -583.873893430     A.U. after   13 cycles
 Normal termination of Gaussian 16 at Thu Dec 10 09:57:20 2020.

 ----------------------------------------------------------------------
 # B3LYP/6-311++G(d,p) empiricaldispersion=gd3bj scf=xqc pop=npa geom=c
 heck
 ----------------------------------------------------------------------

 ------------------------------------
 CID_81978937_JID_4285_Energie_kation
 ------------------------------------
 Structure from the checkpoint file:  "JID_4285.chk"
 Charge =  1 Multiplicity = 2

 SCF Done:  E(UB3LYP) =  -583.594217298     A.U. after   20 cycles
 Normal termination of Gaussian 16 at Thu Dec 10 10:14:01 2020.
 Gaussian 16:  ES64L-G16RevA.03 25-Dec-2016

 ----------------------------------------------------------------------
 # B3LYP/6-311++G(d,p) empiricaldispersion=gd3bj scf=xqc pop=npa geom=c
 heck
 ----------------------------------------------------------------------

 -----------------------------------
 CID_81978937_JID_4285_Energie_anion
 -----------------------------------
 Structure from the checkpoint file:  "JID_4285.chk"
 Charge = -1 Multiplicity = 2

                         Standard orientation:
 ---------------------------------------------------------------------
 Center     Atomic      Atomic             Coordinates (Angstroms)
 Number     Number       Type             X           Y           Z
 ---------------------------------------------------------------------
      1          6           0        4.353969   -1.538375   -0.443374
      2          6           0        3.491882   -1.043365    0.722045
      3          6           0        3.185961    0.459586    0.677811
      4          6           0        2.437513    0.948928   -0.572779
      5          6           0        1.137285    0.168475   -0.865920
      6          6           0        0.094914    0.220424    0.255632
      7          7           0       -1.165627   -0.420955   -0.134837
      8          6           0       -1.056492   -1.866703    0.022680
      9          6           0       -2.392073    0.182965    0.456254
     10          6           0       -2.415003    0.099896    1.997544
     11          6           0       -2.478071    1.663924    0.032153
     12          6           0       -3.642264   -0.548597   -0.093277
     13          6           0       -3.764431   -0.569191   -1.618928
     14          7           0        2.262747    2.405638   -0.450086
     15          1           0        3.837436   -1.434736   -1.404128
     16          1           0        4.613289   -2.595941   -0.321495
     17          1           0        5.289162   -0.968982   -0.508797
     18          1           0        2.554904   -1.615155    0.753797
     19          1           0        4.007332   -1.260996    1.666464
     20          1           0        2.601968    0.728974    1.569599
     21          1           0        4.120738    1.029783    0.744213
     22          1           0        3.096692    0.800944   -1.438278
     23          1           0        0.672955    0.579311   -1.772030
     24          1           0        1.389194   -0.872726   -1.101721
     25          1           0        0.503579   -0.228636    1.178379
     26          1           0       -0.097002    1.269406    0.486427
     27          1           0       -1.027719   -2.201239    1.076305
     28          1           0       -1.877629   -2.383043   -0.478658
     29          1           0       -0.131120   -2.205623   -0.450518
     30          1           0       -1.545289    0.603556    2.433486
     31          1           0       -3.313931    0.582887    2.397093
     32          1           0       -2.415310   -0.938626    2.345431
     33          1           0       -2.234232    1.776833   -1.027911
     34          1           0       -3.493051    2.040398    0.198202
     35          1           0       -1.804350    2.304739    0.608968
     36          1           0       -3.665682   -1.573557    0.294601
     37          1           0       -4.521399   -0.054153    0.338708
     38          1           0       -2.861855   -0.979181   -2.080901
     39          1           0       -4.622346   -1.175464   -1.930148
     40          1           0       -3.908932    0.438483   -2.022279
     41          1           0        1.737343    2.756208   -1.250654
     42          1           0        1.696264    2.615946    0.371261
 ---------------------------------------------------------------------

 SCF Done:  E(UB3LYP) =  -583.859761723     A.U. after   28 cycles

 The electronic state is 2-A.
 Alpha  occ. eigenvalues --  -14.20127 -14.19634 -10.11000 -10.10143 -10.08953
 Alpha  occ. eigenvalues --  -10.08422 -10.07363 -10.06861 -10.06817 -10.06728
 Alpha  occ. eigenvalues --  -10.06405 -10.05936 -10.05745 -10.05740  -0.82447
 Alpha  occ. eigenvalues --   -0.79347  -0.70522  -0.69602  -0.65230  -0.63993
 Alpha  occ. eigenvalues --   -0.60810  -0.59073  -0.57246  -0.54502  -0.52699
 Alpha  occ. eigenvalues --   -0.50305  -0.45472  -0.43856  -0.39819  -0.39436
 Alpha  occ. eigenvalues --   -0.38055  -0.36654  -0.35773  -0.35078  -0.34480
 Alpha  occ. eigenvalues --   -0.34077  -0.33075  -0.31341  -0.30944  -0.30529
 Alpha  occ. eigenvalues --   -0.29626  -0.29417  -0.28551  -0.28411  -0.27072
 Alpha  occ. eigenvalues --   -0.26715  -0.26215  -0.25354  -0.24963  -0.24192
 Alpha  occ. eigenvalues --   -0.23555  -0.23389  -0.22609  -0.21897  -0.21491
 Alpha  occ. eigenvalues --   -0.14988  -0.11360   0.04233
 Alpha virt. eigenvalues --    0.05961   0.06652   0.06896   0.07716   0.08133
 Alpha virt. eigenvalues --    0.08579   0.09202   0.09472   0.10021   0.10245
 Alpha virt. eigenvalues --    0.10730   0.11266   0.11511   0.12357   0.12599

  Beta  occ. eigenvalues --  -14.20118 -14.19609 -10.10997 -10.10138 -10.08940
  Beta  occ. eigenvalues --  -10.08399 -10.07348 -10.06840 -10.06805 -10.06712
  Beta  occ. eigenvalues --  -10.06396 -10.05918 -10.05721 -10.05711  -0.82429
  Beta  occ. eigenvalues --   -0.79307  -0.70497  -0.69572  -0.65199  -0.63962
  Beta  occ. eigenvalues --   -0.60772  -0.59026  -0.57199  -0.54455  -0.52648
  Beta  occ. eigenvalues --   -0.50255  -0.45429  -0.43806  -0.39790  -0.39405
  Beta  occ. eigenvalues --   -0.38024  -0.36625  -0.35739  -0.35048  -0.34455
  Beta  occ. eigenvalues --   -0.34051  -0.33049  -0.31316  -0.30907  -0.30504
  Beta  occ. eigenvalues --   -0.29596  -0.29386  -0.28526  -0.28384  -0.27036
  Beta  occ. eigenvalues --   -0.26684  -0.26190  -0.25323  -0.24935  -0.24161
  Beta  occ. eigenvalues --   -0.23530  -0.23359  -0.22585  -0.21873  -0.21468
  Beta  occ. eigenvalues --   -0.14960  -0.11326
  Beta virt. eigenvalues --    0.06143   0.06655   0.07292   0.07349   0.08196
  Beta virt. eigenvalues --    0.08430   0.08887   0.09584   0.09872   0.10331
  Beta virt. eigenvalues --    0.10495   0.11010   0.11513   0.11716   0.12688

 Mulliken charges and spin densities:
               1          2
     1  C    0.396881  -0.985533
     2  C   -0.620310   0.344527
     3  C    0.293862  -0.440519
     4  C    0.375721  -0.717664
     5  C    0.665088  -0.611061
     6  C   -1.876053   0.780189
     7  N    0.496934   0.018434
     8  C    0.448685  -0.772896
     9  C   -1.356713   1.146580
    10  C    0.786112  -1.307071
    11  C    0.744313  -1.188004
    12  C   -0.688954   0.577761
    13  C    0.333097  -0.898226
    14  N   -0.297145   0.055394
    15  H   -0.069273   0.204426
    16  H   -0.269848   0.406996
    17  H    0.032148   0.098056
    18  H    0.204846  -0.055787
    19  H   -0.247935   0.400805
    20  H   -0.180886   0.312529
    21  H    0.104728   0.086524
    22  H    0.097393   0.129150
    23  H    0.150455   0.040032
    24  H    0.155160  -0.047810
    25  H    0.189250  -0.017975
    26  H    0.780645  -0.738089
    27  H   -0.209575   0.337510
    28  H   -0.077852   0.224559
    29  H   -0.064129   0.198377
    30  H   -0.334480   0.495093
    31  H   -0.185532   0.350039
    32  H    0.055148   0.087339
    33  H    0.002335   0.131043
    34  H   -0.146668   0.323646
    35  H   -0.400319   0.557550
    36  H   -0.108605   0.272131
    37  H   -0.077924   0.215393
    38  H    0.031109   0.115516
    39  H   -0.188692   0.334717
    40  H    0.011456   0.125360
    41  H    0.043852   0.175728
    42  H    0.001674   0.235229
 Sum of Mulliken charges =  -1.00000   1.00000

 Dipole moment (field-independent basis, Debye):
    X=              0.5855    Y=             -0.3868    Z=             -1.5607  Tot=              1.7112
 Quadrupole moment (field-independent basis, Debye-Ang):
   XX=           -179.3479   YY=           -147.1877   ZZ=           -131.9551
   XY=              2.4349   XZ=             -0.2667   YZ=             -2.3575

 Summary of Natural Population Analysis:

                                       Natural Population
                Natural  -----------------------------------------------
    Atom  No    Charge         Core      Valence    Rydberg      Total
 -----------------------------------------------------------------------
      C    1   -0.28561      0.99967     2.28153    0.00442     3.28561
      C    2   -0.19320      0.99964     2.18523    0.00834     3.19320
      C    3   -0.19209      0.99961     2.18322    0.00926     3.19209
      C    4   -0.01298      0.99959     2.00189    0.01150     3.01298
      C    5   -0.19858      0.99960     2.19082    0.00817     3.19858
      C    6   -0.09072      0.99959     2.08010    0.01103     3.09072
      N    7   -0.29153      0.99969     2.77820    0.01363     3.79153
      C    8   -0.17934      0.99963     2.17047    0.00924     3.17934
      C    9    0.07165      0.99956     1.91298    0.01581     2.92835
      C   10   -0.29738      0.99961     2.29077    0.00700     3.29738
      C   11   -0.29272      0.99961     2.28541    0.00771     3.29272
      C   12   -0.19323      0.99958     2.18423    0.00942     3.19323
      C   13   -0.28739      0.99966     2.28261    0.00511     3.28739
      N   14   -0.42072      0.99977     2.91129    0.00966     3.92072
      H   15    0.09531      0.00000     0.40347    0.00122     0.40469
      H   16    0.09923      0.00000     0.39964    0.00113     0.40077
      H   17    0.09448      0.00000     0.40436    0.00116     0.40552
      H   18    0.09539      0.00000     0.40301    0.00161     0.40461
      H   19    0.09574      0.00000     0.40319    0.00107     0.40426
      H   20    0.09669      0.00000     0.40213    0.00118     0.40331
      H   21    0.10049      0.00000     0.39831    0.00120     0.39951
      H   22    0.08875      0.00000     0.40948    0.00177     0.41125
      H   23    0.09925      0.00000     0.39908    0.00167     0.40075
      H   24    0.09693      0.00000     0.40159    0.00148     0.40307
      H   25    0.08296      0.00000     0.41514    0.00191     0.41704
      H   26    0.09710      0.00000     0.40035    0.00255     0.40290
      H   27    0.08200      0.00000     0.41666    0.00133     0.41800
      H   28    0.09606      0.00000     0.40283    0.00111     0.40394
      H   29    0.09598      0.00000     0.40282    0.00120     0.40402
      H   30    0.10139      0.00000     0.39755    0.00106     0.39861
      H   31    0.10157      0.00000     0.39731    0.00112     0.39843
      H   32    0.10065      0.00000     0.39834    0.00101     0.39935
      H   33    0.10497      0.00000     0.39354    0.00149     0.39503
      H   34    0.10144      0.00000     0.39760    0.00096     0.39856
      H   35    0.10031      0.00000     0.39824    0.00145     0.39969
      H   36    0.09788      0.00000     0.40092    0.00120     0.40212
      H   37    0.09829      0.00000     0.40061    0.00109     0.40171
      H   38    0.10292      0.00000     0.39573    0.00135     0.39708
      H   39    0.09632      0.00000     0.40282    0.00086     0.40368
      H   40    0.09674      0.00000     0.40214    0.00111     0.40326
      H   41    0.17331      0.00000     0.32493    0.00175     0.32669
      H   42    0.17170      0.00000     0.32618    0.00213     0.32830
 =======================================================================
   * Total *   -0.00000     13.99481    42.83670    0.16849    57.00000

 Normal termination of Gaussian 16 at Thu Dec 10 10:37:00 2020.
