 Gaussian 16, Revision A.03,

 -----------------------------------------------------------
 # opt freq B3LYP/6-31G(d) empiricaldispersion=gd3bj scf=xqc
 -----------------------------------------------------------

 -------------------------------
 CID_113845441_JID_8300_neutraal
 -------------------------------
 Symbolic Z-matrix:
 Charge =  0 Multiplicity = 1

 SCF Done:  E(RB3LYP) =  -780.790846732     A.U. after   16 cycles
 SCF Done:  E(RB3LYP) =  -780.815732260     A.U. after   13 cycles
 SCF Done:  E(RB3LYP) =  -780.817089594     A.U. after   12 cycles
 SCF Done:  E(RB3LYP) =  -780.817329158     A.U. after   11 cycles
 SCF Done:  E(RB3LYP) =  -780.817475710     A.U. after   12 cycles
 SCF Done:  E(RB3LYP) =  -780.817615436     A.U. after   12 cycles
 SCF Done:  E(RB3LYP) =  -780.818012717     A.U. after   15 cycles
 SCF Done:  E(RB3LYP) =  -780.818320010     A.U. after   15 cycles
 SCF Done:  E(RB3LYP) =  -780.818778673     A.U. after   12 cycles
 SCF Done:  E(RB3LYP) =  -780.818919087     A.U. after   12 cycles
 SCF Done:  E(RB3LYP) =  -780.819185010     A.U. after   11 cycles
 SCF Done:  E(RB3LYP) =  -780.819186964     A.U. after   11 cycles
 SCF Done:  E(RB3LYP) =  -780.819188314     A.U. after   10 cycles
 SCF Done:  E(RB3LYP) =  -780.819189126     A.U. after    9 cycles
 SCF Done:  E(RB3LYP) =  -780.819189298     A.U. after    9 cycles
 Optimization completed.
    -- Stationary point found.
 Normal termination of Gaussian 16 at Fri Dec 11 20:05:27 2020.

 --------------------------------------------------------------------
 #N Geom=AllCheck Guess=TCheck SCRF=Check GenChk RB3LYP/6-31G(d) Freq
 --------------------------------------------------------------------

 Structure from the checkpoint file:  "JID_8300.chk"
 -------------------------------
 CID_113845441_JID_8300_neutraal
 -------------------------------
 Charge =  0 Multiplicity = 1

 SCF Done:  E(RB3LYP) =  -780.819189298     A.U. after    1 cycles

  Exact polarizability: 193.663   8.759 150.179 -10.137   4.188 110.073
 Approx polarizability: 254.876  10.231 253.558 -22.577   8.087 190.427

                      1                      2                      3
                      A                      A                      A
 Frequencies --     11.6961                30.2018                48.0242
 Red. masses --      5.8664                 7.8425                 9.2742
 Frc consts  --      0.0005                 0.0042                 0.0126
 IR Inten    --      1.0241                 2.7941                 2.3834

                      4                      5                      6
                      A                      A                      A
 Frequencies --     57.6004                65.6573               137.1501
 Red. masses --      4.9503                 4.5831                 3.4841
 Frc consts  --      0.0097                 0.0116                 0.0386
 IR Inten    --      1.2643                 1.9114                 4.8814

                      7                      8                      9
                      A                      A                      A
 Frequencies --    148.7167               187.3842               198.2656
 Red. masses --      5.2719                 2.8322                 3.6982
 Frc consts  --      0.0687                 0.0586                 0.0857
 IR Inten    --      1.2089                 0.3890                 2.5045

                     10                     11                     12
                      A                      A                      A
 Frequencies --    253.6004               273.3506               315.9206
 Red. masses --      3.2517                 3.1940                 4.3369
 Frc consts  --      0.1232                 0.1406                 0.2550
 IR Inten    --      1.5948                 2.1021                 6.4799

                     13                     14                     15
                      A                      A                      A
 Frequencies --    361.9476               381.1339               401.9746
 Red. masses --      4.2506                 3.7603                 4.6250
 Frc consts  --      0.3281                 0.3218                 0.4403
 IR Inten    --      0.2227                 0.7787                 5.3855

                     16                     17                     18
                      A                      A                      A
 Frequencies --    436.9280               441.9716               515.2613
 Red. masses --      3.0133                 3.9462                 4.0816
 Frc consts  --      0.3389                 0.4542                 0.6385
 IR Inten    --      2.6643                 1.2678                 0.8395

                     19                     20                     21
                      A                      A                      A
 Frequencies --    563.5069               579.7681               610.8189
 Red. masses --      5.2293                 3.8532                 4.7765
 Frc consts  --      0.9783                 0.7631                 1.0500
 IR Inten    --      2.6831                 3.6953                 2.8249

                     22                     23                     24
                      A                      A                      A
 Frequencies --    645.3231               657.6849               691.9362
 Red. masses --      2.8297                 5.2883                 4.2783
 Frc consts  --      0.6943                 1.3477                 1.2069
 IR Inten    --      4.2222                 0.8820                 3.2812

                     25                     26                     27
                      A                      A                      A
 Frequencies --    711.3052               738.0976               769.1327
 Red. masses --      4.0933                 3.0793                 1.3657
 Frc consts  --      1.2202                 0.9884                 0.4760
 IR Inten    --      6.5854                 5.4742                34.0909

                     28                     29                     30
                      A                      A                      A
 Frequencies --    779.4239               831.3647               842.1622
 Red. masses --      3.7749                 3.4168                 3.0845
 Frc consts  --      1.3512                 1.3914                 1.2889
 IR Inten    --      2.0728                 3.9521                 0.9976

                     31                     32                     33
                      A                      A                      A
 Frequencies --    871.8660               887.5633               890.9327
 Red. masses --      2.7319                 1.8942                 3.2777
 Frc consts  --      1.2235                 0.8792                 1.5329
 IR Inten    --      2.4559                 1.7496                20.0574

                     34                     35                     36
                      A                      A                      A
 Frequencies --    906.5131               928.1712               944.8437
 Red. masses --      3.5930                 1.9434                 2.3075
 Frc consts  --      1.7396                 0.9864                 1.2137
 IR Inten    --      7.4402                 0.6833                 5.6957

                     37                     38                     39
                      A                      A                      A
 Frequencies --    946.4799               982.6864              1008.9397
 Red. masses --      1.6113                 1.2548                 3.0391
 Frc consts  --      0.8505                 0.7140                 1.8227
 IR Inten    --      2.2861                 0.0121                 0.8959

                     40                     41                     42
                      A                      A                      A
 Frequencies --   1017.3494              1040.9395              1056.9909
 Red. masses --      2.4239                 4.1101                 3.0853
 Frc consts  --      1.4781                 2.6240                 2.0309
 IR Inten    --      4.5938                 1.9750                 0.9320

                     43                     44                     45
                      A                      A                      A
 Frequencies --   1057.3702              1064.5278              1082.6885
 Red. masses --      2.3773                 2.7584                 3.1124
 Frc consts  --      1.5660                 1.8417                 2.1496
 IR Inten    --      2.1672                 1.8012                 2.5906

                     46                     47                     48
                      A                      A                      A
 Frequencies --   1114.5245              1172.1876              1188.6026
 Red. masses --      2.3098                 1.3102                 1.4937
 Frc consts  --      1.6905                 1.0607                 1.2433
 IR Inten    --      0.7935                 6.8728                 0.9715

                     49                     50                     51
                      A                      A                      A
 Frequencies --   1192.5650              1204.1412              1211.3710
 Red. masses --      1.1205                 1.3643                 1.3235
 Frc consts  --      0.9389                 1.1655                 1.1443
 IR Inten    --      0.5633                 1.4953                 5.9051

                     52                     53                     54
                      A                      A                      A
 Frequencies --   1237.8101              1259.5682              1273.2482
 Red. masses --      1.8193                 1.7110                 1.7338
 Frc consts  --      1.6423                 1.5994                 1.6561
 IR Inten    --      9.2774                 7.1518                28.9642

                     55                     56                     57
                      A                      A                      A
 Frequencies --   1284.6235              1300.7092              1310.4135
 Red. masses --      1.4901                 1.8550                 1.6021
 Frc consts  --      1.4489                 1.8490                 1.6209
 IR Inten    --      3.6978                79.1285                 6.9594

                     58                     59                     60
                      A                      A                      A
 Frequencies --   1338.8524              1358.0844              1377.1648
 Red. masses --      1.7526                 1.4527                 3.4631
 Frc consts  --      1.8510                 1.5786                 3.8698
 IR Inten    --     13.2256                 1.2989                 8.2317

                     61                     62                     63
                      A                      A                      A
 Frequencies --   1383.4657              1404.1435              1431.0770
 Red. masses --      1.3808                 2.1577                 2.6157
 Frc consts  --      1.5570                 2.5065                 3.1562
 IR Inten    --      5.0166                29.3699                24.6430

                     64                     65                     66
                      A                      A                      A
 Frequencies --   1491.2633              1503.1548              1508.7344
 Red. masses --      1.0927                 1.1130                 1.5359
 Frc consts  --      1.4318                 1.4817                 2.0599
 IR Inten    --     13.7043                 9.4934                 2.5234

                     67                     68                     69
                      A                      A                      A
 Frequencies --   1511.4770              1525.9702              1533.1598
 Red. masses --      1.5940                 1.1426                 2.2642
 Frc consts  --      2.1456                 1.5676                 3.1358
 IR Inten    --      4.8737                 1.6648                13.3926

                     70                     71                     72
                      A                      A                      A
 Frequencies --   1559.0751              1636.9364              1648.8992
 Red. masses --      7.8137                 9.7482                 6.2915
 Frc consts  --     11.1903                15.3900                10.0784
 IR Inten    --      6.8550                88.6509                 1.4723

                     73                     74                     75
                      A                      A                      A
 Frequencies --   1670.9438              2378.2915              3036.4349
 Red. masses --      6.4560                12.6058                 1.0683
 Frc consts  --     10.6203                42.0097                 5.8034
 IR Inten    --      0.4744                 4.4080                25.5556

                     76                     77                     78
                      A                      A                      A
 Frequencies --   3064.2083              3066.7058              3078.7321
 Red. masses --      1.0661                 1.0790                 1.0723
 Frc consts  --      5.8976                 5.9788                 5.9887
 IR Inten    --      6.8832                 3.9788                24.9093

                     79                     80                     81
                      A                      A                      A
 Frequencies --   3079.8233              3095.8419              3116.7879
 Red. masses --      1.0599                 1.0912                 1.1008
 Frc consts  --      5.9235                 6.1616                 6.3003
 IR Inten    --      7.8068                37.6100                 2.0074

                     82                     83                     84
                      A                      A                      A
 Frequencies --   3129.4808              3132.0335              3180.0805
 Red. masses --      1.1002                 1.1036                 1.0857
 Frc consts  --      6.3482                 6.3786                 6.4691
 IR Inten    --      2.9674                28.9224                 3.7625

                     85                     86                     87
                      A                      A                      A
 Frequencies --   3188.0102              3197.4395              3209.7640
 Red. masses --      1.0886                 1.0932                 1.0972
 Frc consts  --      6.5185                 6.5850                 6.6602
 IR Inten    --      3.4414                34.9337                28.2779

 - Thermochemistry -
 -------------------
 Temperature   298.150 Kelvin.  Pressure   1.00000 Atm.
 Atom     1 has atomic number  6 and mass  12.00000

 Molecular mass:   239.10586 amu.
 Principal axes and moments of inertia in atomic units:
                           1         2         3
     Eigenvalues --  1743.112388668.715389038.18480
           X            0.99996   0.00766   0.00427
           Y           -0.00751   0.99943  -0.03276
           Z           -0.00452   0.03273   0.99945
 This molecule is an asymmetric top.
 Rotational symmetry number  1.
 Warning -- assumption of classical behavior for rotation
           may cause significant error
 Rotational temperatures (Kelvin)      0.04969     0.00999     0.00958
 Rotational constants (GHZ):           1.03536     0.20819     0.19968
 Zero-point vibrational energy     651731.3 (Joules/Mol)
                                  155.76753 (Kcal/Mol)
 Warning -- explicit consideration of  21 degrees of freedom as
           vibrations may cause significant error
 Vibrational temperatures:     16.83    43.45    69.10    82.87    94.47
          (Kelvin)            197.33   213.97   269.60   285.26   364.87
                              393.29   454.54   520.76   548.37   578.35
                              628.64   635.90   741.35   810.76   834.16
                              878.83   928.48   946.26   995.54  1023.41
                             1061.96  1106.61  1121.42  1196.15  1211.68
                             1254.42  1277.01  1281.85  1304.27  1335.43
                             1359.42  1361.77  1413.87  1451.64  1463.74
                             1497.68  1520.77  1521.32  1531.62  1557.75
                             1603.55  1686.52  1710.13  1715.84  1732.49
                             1742.89  1780.93  1812.24  1831.92  1848.29
                             1871.43  1885.39  1926.31  1953.98  1981.43
                             1990.50  2020.25  2059.00  2145.60  2162.70
                             2170.73  2174.68  2195.53  2205.87  2243.16
                             2355.19  2372.40  2404.12  3421.83  4368.75
                             4408.71  4412.31  4429.61  4431.18  4454.23
                             4484.36  4502.62  4506.30  4575.43  4586.84
                             4600.40  4618.13

 Zero-point correction=                           0.248231 (Hartree/Particle)
 Thermal correction to Energy=                    0.263152
 Thermal correction to Enthalpy=                  0.264096
 Thermal correction to Gibbs Free Energy=         0.202868
 Sum of electronic and zero-point Energies=           -780.570958
 Sum of electronic and thermal Energies=              -780.556038
 Sum of electronic and thermal Enthalpies=            -780.555093
 Sum of electronic and thermal Free Energies=         -780.616322

                     E (Thermal)             CV                S
                      KCal/Mol        Cal/Mol-Kelvin    Cal/Mol-Kelvin
 Total                  165.130             56.719            128.866
 Electronic               0.000              0.000              0.000
 Translational            0.889              2.981             42.316
 Rotational               0.889              2.981             33.279
 Vibrational            163.353             50.757             53.270
 Vibration     1          0.593              1.987              7.700
 Vibration     2          0.594              1.984              5.816
 Vibration     3          0.595              1.978              4.897
 Vibration     4          0.596              1.974              4.538
 Vibration     5          0.597              1.971              4.279
 Vibration     6          0.614              1.916              2.843
 Vibration     7          0.618              1.904              2.689
 Vibration     8          0.632              1.857              2.254
 Vibration     9          0.637              1.842              2.149
 Vibration    10          0.665              1.757              1.705
 Vibration    11          0.676              1.722              1.575
 Vibration    12          0.703              1.643              1.331
 Vibration    13          0.736              1.551              1.114
 Vibration    14          0.751              1.510              1.035
 Vibration    15          0.768              1.466              0.955
 Vibration    16          0.797              1.390              0.836
 Vibration    17          0.802              1.379              0.820
 Vibration    18          0.870              1.216              0.621
 Vibration    19          0.919              1.110              0.517
 Vibration    20          0.936              1.075              0.486
 Vibration    21          0.970              1.009              0.431

 Optimization completed.
    -- Stationary point found.
 Normal termination of Gaussian 16 at Fri Dec 11 20:16:29 2020.

 ----------------------------------------------------------------------
 # B3LYP/6-311++G(d,p) empiricaldispersion=gd3bj scf=xqc pop=npa geom=c
 heck
 ----------------------------------------------------------------------

 ---------------------------------------
 CID_113845441_JID_8300_Energie_neutraal
 ---------------------------------------
 Structure from the checkpoint file:  "JID_8300.chk"
 Charge =  0 Multiplicity = 1

 SCF Done:  E(RB3LYP) =  -781.020680894     A.U. after   16 cycles
 Normal termination of Gaussian 16 at Fri Dec 11 20:21:08 2020.

 ----------------------------------------------------------------------
 # B3LYP/6-311++G(d,p) empiricaldispersion=gd3bj scf=xqc pop=npa geom=c
 heck
 ----------------------------------------------------------------------

 -------------------------------------
 CID_113845441_JID_8300_Energie_kation
 -------------------------------------
 Structure from the checkpoint file:  "JID_8300.chk"
 Charge =  1 Multiplicity = 2

 SCF Done:  E(UB3LYP) =  -780.707074536     A.U. after   29 cycles
 Normal termination of Gaussian 16 at Fri Dec 11 20:33:01 2020.
 Gaussian 16:  ES64L-G16RevA.03 25-Dec-2016

 ----------------------------------------------------------------------
 # B3LYP/6-311++G(d,p) empiricaldispersion=gd3bj scf=xqc pop=npa geom=c
 heck
 ----------------------------------------------------------------------

 ------------------------------------
 CID_113845441_JID_8300_Energie_anion
 ------------------------------------
 Structure from the checkpoint file:  "JID_8300.chk"
 Charge = -1 Multiplicity = 2

                         Standard orientation:
 ---------------------------------------------------------------------
 Center     Atomic      Atomic             Coordinates (Angstroms)
 Number     Number       Type             X           Y           Z
 ---------------------------------------------------------------------
      1          6           0        1.108123   -1.801392    1.178468
      2          6           0        2.258988   -2.071862    0.182425
      3          6           0        2.933181   -0.722067    0.070794
      4          6           0        4.202334   -0.407513   -0.407640
      5          6           0        4.607671    0.929961   -0.428600
      6          6           0        3.750533    1.939981    0.017917
      7          6           0        2.475085    1.624971    0.493162
      8          6           0        2.079427    0.291685    0.520222
      9          6           0        0.759199   -0.293410    0.984880
     10          6           0       -0.349008   -0.120189   -0.013693
     11          7           0       -0.182269    0.383156   -1.211472
     12          8           0       -1.481343    0.322494   -1.772675
     13          6           0       -2.274164   -0.217889   -0.836039
     14          7           0       -1.648675   -0.514949    0.263839
     15          6           0       -3.717383   -0.425758   -1.156398
     16          6           0       -4.570823   -0.541015    0.120800
     17          6           0       -4.630955    0.720972    0.862384
     18          7           0       -4.679785    1.731970    1.429051
     19          1           0        1.469925   -1.939858    2.202664
     20          1           0        0.240088   -2.450442    1.037507
     21          1           0        2.930572   -2.866756    0.523903
     22          1           0        1.865467   -2.380913   -0.796066
     23          1           0        4.872660   -1.189536   -0.755281
     24          1           0        5.599014    1.186662   -0.791786
     25          1           0        4.078578    2.975312   -0.002909
     26          1           0        1.804373    2.409092    0.833934
     27          1           0        0.406337    0.146428    1.924760
     28          1           0       -4.069006    0.393314   -1.790714
     29          1           0       -3.825408   -1.349885   -1.737920
     30          1           0       -5.589863   -0.842621   -0.144053
     31          1           0       -4.150137   -1.310849    0.775340
 ---------------------------------------------------------------------

 SCF Done:  E(UB3LYP) =  -781.018335213     A.U. after   33 cycles
 SCF Done:  E(UB3LYP) =  -781.018335213     a.u. after    1 cycles

 The electronic state is 2-A.
 Alpha  occ. eigenvalues --  -19.09839 -14.24871 -14.20616 -14.20429 -10.15638
 Alpha  occ. eigenvalues --  -10.13077 -10.11176 -10.10733 -10.10288 -10.09728
 Alpha  occ. eigenvalues --  -10.09187 -10.09163 -10.09039 -10.08988 -10.08930
 Alpha  occ. eigenvalues --  -10.08841 -10.08687 -10.08610  -1.04731  -0.82892
 Alpha  occ. eigenvalues --   -0.80494  -0.79209  -0.76738  -0.72828  -0.70214
 Alpha  occ. eigenvalues --   -0.67461  -0.63605  -0.62075  -0.59472  -0.53261
 Alpha  occ. eigenvalues --   -0.52767  -0.50090  -0.49281  -0.47360  -0.42808
 Alpha  occ. eigenvalues --   -0.41659  -0.40962  -0.38759  -0.38007  -0.37327
 Alpha  occ. eigenvalues --   -0.36417  -0.35142  -0.33406  -0.33271  -0.32788
 Alpha  occ. eigenvalues --   -0.31171  -0.30382  -0.29624  -0.28713  -0.27571
 Alpha  occ. eigenvalues --   -0.27188  -0.26266  -0.25910  -0.25221  -0.24897
 Alpha  occ. eigenvalues --   -0.23446  -0.22563  -0.22362  -0.21216  -0.18947
 Alpha  occ. eigenvalues --   -0.17823  -0.16737  -0.15728   0.04212
 Alpha virt. eigenvalues --    0.05930   0.06218   0.07090   0.07404   0.07487
 Alpha virt. eigenvalues --    0.08025   0.08953   0.09203   0.09693   0.09808
 Alpha virt. eigenvalues --    0.10960   0.11327   0.11936   0.12460   0.12868

  Beta  occ. eigenvalues --  -19.09708 -14.24738 -14.20589 -14.20427 -10.15426
  Beta  occ. eigenvalues --  -10.13056 -10.11118 -10.10729 -10.10291 -10.09708
  Beta  occ. eigenvalues --  -10.09178 -10.09165 -10.09038 -10.08983 -10.08927
  Beta  occ. eigenvalues --  -10.08796 -10.08642 -10.08589  -1.04505  -0.82774
  Beta  occ. eigenvalues --   -0.80437  -0.79145  -0.76524  -0.72778  -0.70103
  Beta  occ. eigenvalues --   -0.67392  -0.63565  -0.62029  -0.59276  -0.53193
  Beta  occ. eigenvalues --   -0.52675  -0.49970  -0.49228  -0.47243  -0.42718
  Beta  occ. eigenvalues --   -0.41499  -0.40885  -0.38716  -0.37601  -0.37186
  Beta  occ. eigenvalues --   -0.36367  -0.35067  -0.33372  -0.33156  -0.32721
  Beta  occ. eigenvalues --   -0.31049  -0.30212  -0.29526  -0.28594  -0.27480
  Beta  occ. eigenvalues --   -0.27159  -0.26211  -0.25865  -0.25158  -0.24871
  Beta  occ. eigenvalues --   -0.23298  -0.22513  -0.22228  -0.20846  -0.18853
  Beta  occ. eigenvalues --   -0.17141  -0.16409  -0.15649
  Beta virt. eigenvalues --    0.05847   0.06521   0.07009   0.07411   0.07597
  Beta virt. eigenvalues --    0.08198   0.08765   0.09341   0.09443   0.10063
  Beta virt. eigenvalues --    0.10169   0.11350   0.11467   0.11986   0.12566

 Mulliken charges and spin densities:
               1          2
     1  C   -0.262381  -0.219096
     2  C   -0.137499  -0.160717
     3  C   -0.530022   0.013823
     4  C   -0.417026   0.018073
     5  C   -0.207715  -0.030732
     6  C   -0.385032   0.033784
     7  C   -0.202017   0.069262
     8  C    0.779468   0.044222
     9  C    1.052687   0.238314
    10  C   -0.293992  -0.611271
    11  N   -0.575170   0.053593
    12  O    0.316085   0.048119
    13  C    1.135113  -1.424507
    14  N    0.038335   0.069239
    15  C   -1.057391   0.722076
    16  C   -0.105253   0.147741
    17  C    0.874212  -1.057416
    18  N   -0.399623   0.074159
    19  H    0.049869   0.080810
    20  H    0.024132   0.178751
    21  H    0.135276   0.034596
    22  H    0.096417   0.080903
    23  H    0.121374   0.023621
    24  H    0.117276   0.011087
    25  H    0.131100   0.011737
    26  H    0.145036   0.003903
    27  H    0.266038   0.005542
    28  H    0.179750  -0.011479
    29  H   -1.059016   1.315940
    30  H   -1.000484   1.231355
    31  H    0.170450   0.004570
 Sum of Mulliken charges =  -1.00000   1.00000

 Dipole moment (field-independent basis, Debye):
    X=             12.9988    Y=              1.4996    Z=              2.2916  Tot=             13.2841
 Quadrupole moment (field-independent basis, Debye-Ang):
   XX=           -208.1667   YY=           -135.3289   ZZ=           -133.7948
   XY=            -11.0135   XZ=             -3.7065   YZ=             -9.8956

 Summary of Natural Population Analysis:

                                       Natural Population
                Natural  -----------------------------------------------
    Atom  No    Charge         Core      Valence    Rydberg      Total
 -----------------------------------------------------------------------
      C    1   -0.17654      0.99964     2.16792    0.00899     3.17654
      C    2   -0.20135      0.99961     2.19383    0.00790     3.20135
      C    3   -0.00966      0.99946     2.00199    0.00821     3.00966
      C    4   -0.09576      0.99951     2.08780    0.00845     3.09576
      C    5   -0.10238      0.99958     2.09362    0.00918     3.10238
      C    6   -0.10442      0.99958     2.09637    0.00847     3.10442
      C    7   -0.08408      0.99951     2.07579    0.00878     3.08408
      C    8   -0.00408      0.99946     1.99483    0.00979     3.00408
      C    9   -0.13498      0.99953     2.12467    0.01078     3.13498
      C   10    0.18105      0.99962     1.79931    0.02002     2.81895
      N   11   -0.07959      0.99966     2.56827    0.01166     3.57959
      O   12   -0.16043      0.99985     3.15329    0.00729     4.16043
      C   13    0.31988      0.99962     1.66054    0.01996     2.68012
      N   14   -0.28274      0.99966     2.77423    0.00885     3.78274
      C   15   -0.21309      0.99958     2.20364    0.00988     3.21309
      C   16   -0.24457      0.99955     2.23458    0.01044     3.24457
      C   17    0.16786      0.99966     1.81606    0.01643     2.83214
      N   18   -0.19063      0.99979     2.67974    0.01111     3.69063
      H   19    0.09569      0.00000     0.40348    0.00084     0.40431
      H   20    0.11021      0.00000     0.38886    0.00093     0.38979
      H   21    0.10054      0.00000     0.39855    0.00092     0.39946
      H   22    0.10725      0.00000     0.39155    0.00120     0.39275
      H   23    0.09660      0.00000     0.40210    0.00130     0.40340
      H   24    0.09602      0.00000     0.40316    0.00082     0.40398
      H   25    0.09703      0.00000     0.40210    0.00087     0.40297
      H   26    0.10134      0.00000     0.39741    0.00125     0.39866
      H   27    0.11388      0.00000     0.38468    0.00144     0.38612
      H   28    0.11169      0.00000     0.38677    0.00154     0.38831
      H   29    0.12981      0.00000     0.35623    0.01397     0.37019
      H   30    0.12833      0.00000     0.36487    0.00680     0.37167
      H   31    0.12713      0.00000     0.37080    0.00207     0.37287
 =======================================================================
   * Total *    0.00000     17.99284    44.77701    0.23014    63.00000

 Normal termination of Gaussian 16 at Fri Dec 11 20:46:53 2020.
