 Gaussian 16, Revision A.03,

 -----------------------------------------------------------
 # opt freq B3LYP/6-31G(d) empiricaldispersion=gd3bj scf=xqc
 -----------------------------------------------------------

 ------------------------------
 CID_82256751_JID_9438_neutraal
 ------------------------------
 Symbolic Z-matrix:
 Charge =  0 Multiplicity = 1

 SCF Done:  E(RB3LYP) =  -844.830038259     A.U. after   15 cycles
 SCF Done:  E(RB3LYP) =  -844.837462229     A.U. after   12 cycles
 SCF Done:  E(RB3LYP) =  -844.838070067     A.U. after   12 cycles
 SCF Done:  E(RB3LYP) =  -844.838913171     A.U. after   13 cycles
 SCF Done:  E(RB3LYP) =  -844.839290446     A.U. after   13 cycles
 SCF Done:  E(RB3LYP) =  -844.840216890     A.U. after   13 cycles
 SCF Done:  E(RB3LYP) =  -844.841108713     A.U. after   13 cycles
 SCF Done:  E(RB3LYP) =  -844.842108973     A.U. after   13 cycles
 SCF Done:  E(RB3LYP) =  -844.843060625     A.U. after   13 cycles
 SCF Done:  E(RB3LYP) =  -844.843498307     A.U. after   13 cycles
 SCF Done:  E(RB3LYP) =  -844.844952634     A.U. after    9 cycles
 SCF Done:  E(RB3LYP) =  -844.844953178     A.U. after    8 cycles
 SCF Done:  E(RB3LYP) =  -844.844953534     A.U. after    8 cycles
 SCF Done:  E(RB3LYP) =  -844.844953567     A.U. after    6 cycles
 SCF Done:  E(RB3LYP) =  -844.844953583     A.U. after    6 cycles
 Optimization completed.
    -- Stationary point found.
 Normal termination of Gaussian 16 at Sun Dec 13 13:07:31 2020.

 --------------------------------------------------------------------
 #N Geom=AllCheck Guess=TCheck SCRF=Check GenChk RB3LYP/6-31G(d) Freq
 --------------------------------------------------------------------

 Structure from the checkpoint file:  "JID_9438.chk"
 ------------------------------
 CID_82256751_JID_9438_neutraal
 ------------------------------
 Charge =  0 Multiplicity = 1

 SCF Done:  E(RB3LYP) =  -844.844953583     A.U. after    1 cycles

  Exact polarizability: 234.980 -11.701 173.242  10.487  15.025 131.267
 Approx polarizability: 316.738 -25.737 275.942  22.995  39.245 203.985

                      1                      2                      3
                      A                      A                      A
 Frequencies --     21.3407                23.3745                32.3135
 Red. masses --      3.7011                 3.5615                 3.7156
 Frc consts  --      0.0010                 0.0011                 0.0023
 IR Inten    --      1.5172                 0.1822                 0.1309

                      4                      5                      6
                      A                      A                      A
 Frequencies --     63.7257                82.6896               109.8016
 Red. masses --      4.1440                 3.7378                 3.9497
 Frc consts  --      0.0099                 0.0151                 0.0281
 IR Inten    --      0.9972                 0.9535                 1.6278

                      7                      8                      9
                      A                      A                      A
 Frequencies --    117.5130               133.2905               141.1145
 Red. masses --      1.9613                 3.9372                 2.6875
 Frc consts  --      0.0160                 0.0412                 0.0315
 IR Inten    --      0.1392                 0.2311                 0.6243

                     10                     11                     12
                      A                      A                      A
 Frequencies --    169.8550               201.4696               208.8539
 Red. masses --      4.7830                 1.4127                 2.9559
 Frc consts  --      0.0813                 0.0338                 0.0760
 IR Inten    --      0.7150                 2.1019                 1.4394

                     13                     14                     15
                      A                      A                      A
 Frequencies --    225.1068               264.8073               281.7722
 Red. masses --      2.0774                 2.2449                 2.0272
 Frc consts  --      0.0620                 0.0927                 0.0948
 IR Inten    --      1.0105                 1.9775                 1.2074

                     16                     17                     18
                      A                      A                      A
 Frequencies --    291.2813               303.4611               325.3630
 Red. masses --      3.1890                 1.6830                 2.6318
 Frc consts  --      0.1594                 0.0913                 0.1642
 IR Inten    --      1.9230                 0.2063                 8.6372

                     19                     20                     21
                      A                      A                      A
 Frequencies --    331.8481               359.1644               384.2863
 Red. masses --      2.3896                 1.4246                 2.8558
 Frc consts  --      0.1550                 0.1083                 0.2485
 IR Inten    --      5.9439                13.6768                 0.7155

                     22                     23                     24
                      A                      A                      A
 Frequencies --    422.2745               449.9433               473.2138
 Red. masses --      3.4752                 3.6552                 3.1460
 Frc consts  --      0.3651                 0.4360                 0.4151
 IR Inten    --      2.0740                 6.7378                 6.1384

                     25                     26                     27
                      A                      A                      A
 Frequencies --    531.9148               550.6544               568.5668
 Red. masses --      4.1485                 4.3695                 4.0700
 Frc consts  --      0.6915                 0.7806                 0.7752
 IR Inten    --      5.5361                17.3350                 4.4766

                     28                     29                     30
                      A                      A                      A
 Frequencies --    579.5285               621.4659               627.9635
 Red. masses --      3.1213                 1.8187                 2.5454
 Frc consts  --      0.6176                 0.4138                 0.5914
 IR Inten    --    125.8528               192.7272                49.5655

                     31                     32                     33
                      A                      A                      A
 Frequencies --    648.5161               662.4844               676.1621
 Red. masses --      3.2930                 3.9364                 3.2065
 Frc consts  --      0.8160                 1.0179                 0.8638
 IR Inten    --     11.0843                42.5429                12.5307

                     34                     35                     36
                      A                      A                      A
 Frequencies --    714.5302               744.5651               776.4718
 Red. masses --      4.4455                 2.3245                 3.4273
 Frc consts  --      1.3373                 0.7592                 1.2174
 IR Inten    --     22.7548                16.4138                10.6860

                     37                     38                     39
                      A                      A                      A
 Frequencies --    786.7893               818.2395               830.1109
 Red. masses --      1.8111                 1.9929                 1.2180
 Frc consts  --      0.6606                 0.7861                 0.4945
 IR Inten    --     24.2433                 5.6657                 0.5138

                     40                     41                     42
                      A                      A                      A
 Frequencies --    845.4720               862.5275               887.4570
 Red. masses --      1.8639                 1.7280                 2.4027
 Frc consts  --      0.7850                 0.7574                 1.1149
 IR Inten    --      2.0200                 2.9329                17.4577

                     43                     44                     45
                      A                      A                      A
 Frequencies --    898.0744               905.9870               912.3847
 Red. masses --      3.1571                 1.6640                 1.2930
 Frc consts  --      1.5002                 0.8047                 0.6342
 IR Inten    --      8.7469                21.5884                 1.4160

                     46                     47                     48
                      A                      A                      A
 Frequencies --    926.3236               928.1037               953.1583
 Red. masses --      2.3959                 2.4105                 1.7902
 Frc consts  --      1.2113                 1.2233                 0.9583
 IR Inten    --     10.8193                 0.2220                13.0755

                     49                     50                     51
                      A                      A                      A
 Frequencies --    973.8027              1019.0772              1042.4834
 Red. masses --      2.2392                 2.0552                 2.2294
 Frc consts  --      1.2511                 1.2575                 1.4275
 IR Inten    --     22.0774                20.1065                 6.0798

                     52                     53                     54
                      A                      A                      A
 Frequencies --   1069.7166              1084.4907              1099.5715
 Red. masses --      3.6253                 2.6449                 2.2130
 Frc consts  --      2.4442                 1.8328                 1.5764
 IR Inten    --     27.3477                12.0461                30.1100

                     55                     56                     57
                      A                      A                      A
 Frequencies --   1114.3301              1121.8280              1133.6861
 Red. masses --      2.0449                 1.7342                 2.0049
 Frc consts  --      1.4961                 1.2859                 1.5182
 IR Inten    --     59.5231                 6.2663               100.7902

                     58                     59                     60
                      A                      A                      A
 Frequencies --   1147.8936              1186.5679              1193.2425
 Red. masses --      1.6088                 2.8493                 1.3705
 Frc consts  --      1.2490                 2.3636                 1.1497
 IR Inten    --     59.1403                 9.2159                49.9520

                     61                     62                     63
                      A                      A                      A
 Frequencies --   1206.4551              1223.4532              1245.4494
 Red. masses --      1.6286                 1.3204                 1.2941
 Frc consts  --      1.3967                 1.1645                 1.1827
 IR Inten    --     16.6285                 4.3694                25.2290

                     64                     65                     66
                      A                      A                      A
 Frequencies --   1257.3567              1269.6466              1289.7816
 Red. masses --      3.3570                 1.1594                 2.8401
 Frc consts  --      3.1269                 1.1012                 2.7837
 IR Inten    --    248.7357                 1.9634                24.0548

                     67                     68                     69
                      A                      A                      A
 Frequencies --   1301.7926              1323.3169              1328.9036
 Red. masses --      1.4456                 1.4830                 1.4280
 Frc consts  --      1.4434                 1.5301                 1.4859
 IR Inten    --      8.3213                26.2244                20.1077

                     70                     71                     72
                      A                      A                      A
 Frequencies --   1332.5940              1339.0941              1358.9180
 Red. masses --      1.7378                 1.4469                 1.3649
 Frc consts  --      1.8183                 1.5286                 1.4851
 IR Inten    --     52.0215               143.1349                67.4307

                     73                     74                     75
                      A                      A                      A
 Frequencies --   1364.4316              1376.5325              1388.4230
 Red. masses --      1.2312                 1.3984                 1.4025
 Frc consts  --      1.3505                 1.5612                 1.5930
 IR Inten    --      1.4507                 6.4549                18.2571

                     76                     77                     78
                      A                      A                      A
 Frequencies --   1400.0115              1417.6188              1423.7601
 Red. masses --      4.0860                 1.2561                 1.4129
 Frc consts  --      4.7185                 1.4873                 1.6875
 IR Inten    --      7.3358                 6.2999                 0.9269

                     79                     80                     81
                      A                      A                      A
 Frequencies --   1432.1910              1443.8521              1484.9224
 Red. masses --      1.2323                 1.3073                 3.7660
 Frc consts  --      1.4893                 1.6057                 4.8926
 IR Inten    --      9.5733                21.9970                72.6163

                     82                     83                     84
                      A                      A                      A
 Frequencies --   1514.3403              1516.5181              1519.5131
 Red. masses --      1.0669                 1.0431                 1.0683
 Frc consts  --      1.4415                 1.4135                 1.4533
 IR Inten    --      3.6575                 5.6361                 1.7315

                     85                     86                     87
                      A                      A                      A
 Frequencies --   1526.7368              1531.9148              1535.0327
 Red. masses --      1.0894                 1.0517                 1.0803
 Frc consts  --      1.4961                 1.4542                 1.4998
 IR Inten    --      3.6319                 1.7437                24.3508

                     88                     89                     90
                      A                      A                      A
 Frequencies --   1541.0798              1547.7638              1551.0682
 Red. masses --      1.0928                 1.0936                 1.0960
 Frc consts  --      1.5291                 1.5436                 1.5535
 IR Inten    --      4.8526                 3.9624                 1.5075

                     91                     92                     93
                      A                      A                      A
 Frequencies --   1568.3200              1633.6690              1652.6870
 Red. masses --      2.8180                 3.7348                 3.8619
 Frc consts  --      4.0837                 5.8728                 6.2149
 IR Inten    --    141.3254                18.0265                90.3673

                     94                     95                     96
                      A                      A                      A
 Frequencies --   1682.2802              1754.8983              3028.0696
 Red. masses --      1.5283                11.0330                 1.0718
 Frc consts  --      2.5483                20.0192                 5.7902
 IR Inten    --    141.9449               156.3030                49.3376

                     97                     98                     99
                      A                      A                      A
 Frequencies --   3038.3479              3054.8200              3058.1990
 Red. masses --      1.0760                 1.0666                 1.0389
 Frc consts  --      5.8523                 5.8645                 5.7248
 IR Inten    --     48.8275                41.6064                11.6906

                    100                    101                    102
                      A                      A                      A
 Frequencies --   3062.3814              3063.4645              3074.5876
 Red. masses --      1.0362                 1.0594                 1.0616
 Frc consts  --      5.7254                 5.8579                 5.9127
 IR Inten    --     14.8264                25.8447                48.5234

                    103                    104                    105
                      A                      A                      A
 Frequencies --   3092.2798              3098.1944              3115.3189
 Red. masses --      1.0868                 1.1040                 1.0994
 Frc consts  --      6.1228                 6.2439                 6.2865
 IR Inten    --      2.8841                11.3473                23.3529

                    106                    107                    108
                      A                      A                      A
 Frequencies --   3115.6729              3118.9954              3125.4906
 Red. masses --      1.1023                 1.1003                 1.0999
 Frc consts  --      6.3044                 6.3064                 6.3307
 IR Inten    --     65.6003                15.7325                44.1187

                    109                    110                    111
                      A                      A                      A
 Frequencies --   3131.2876              3147.4503              3148.8713
 Red. masses --      1.1018                 1.1031                 1.0980
 Frc consts  --      6.3647                 6.4384                 6.4144
 IR Inten    --     28.0963                45.5596                29.2697

                    112                    113                    114
                      A                      A                      A
 Frequencies --   3166.5203              3211.4725              3221.4212
 Red. masses --      1.0905                 1.0896                 1.0885
 Frc consts  --      6.4421                 6.6212                 6.6556
 IR Inten    --     14.2311                 5.9605                13.7538

                    115                    116                    117
                      A                      A                      A
 Frequencies --   3261.8373              3561.2485              3667.2002
 Red. masses --      1.0895                 1.0469                 1.0991
 Frc consts  --      6.8300                 7.8225                 8.7088
 IR Inten    --      5.9650                20.0034                16.9973

 - Thermochemistry -
 -------------------
 Temperature   298.150 Kelvin.  Pressure   1.00000 Atm.
 Atom     1 has atomic number  6 and mass  12.00000

 Molecular mass:   262.16813 amu.
 Principal axes and moments of inertia in atomic units:
                           1         2         3
     Eigenvalues --  2793.209539104.79167**********
           X            0.99999  -0.00274   0.00328
           Y            0.00271   0.99994   0.01076
           Z           -0.00330  -0.01075   0.99994
 This molecule is an asymmetric top.
 Rotational symmetry number  1.
 Warning -- assumption of classical behavior for rotation
           may cause significant error
 Rotational temperatures (Kelvin)      0.03101     0.00951     0.00816
 Rotational constants (GHZ):           0.64612     0.19822     0.16992
 Zero-point vibrational energy     937330.8 (Joules/Mol)
                                  224.02743 (Kcal/Mol)
 Warning -- explicit consideration of  28 degrees of freedom as
           vibrations may cause significant error
 Vibrational temperatures:     30.70    33.63    46.49    91.69   118.97
          (Kelvin)            157.98   169.07   191.78   203.03   244.38
                              289.87   300.49   323.88   381.00   405.41
                              419.09   436.61   468.12   477.46   516.76
                              552.90   607.56   647.37   680.85   765.31
                              792.27   818.04   833.81   894.15   903.50
                              933.07   953.17   972.85  1028.05  1071.26
                             1117.17  1132.01  1177.26  1194.34  1216.45
                             1240.98  1276.85  1292.13  1303.51  1312.72
                             1332.77  1335.33  1371.38  1401.08  1466.22
                             1499.90  1539.08  1560.34  1582.04  1603.27
                             1614.06  1631.12  1651.56  1707.21  1716.81
                             1735.82  1760.28  1791.92  1809.06  1826.74
                             1855.71  1872.99  1903.96  1912.00  1917.31
                             1926.66  1955.18  1963.11  1980.52  1997.63
                             2014.30  2039.64  2048.47  2060.60  2077.38
                             2136.47  2178.80  2181.93  2186.24  2196.63
                             2204.08  2208.57  2217.27  2226.89  2231.64
                             2256.46  2350.49  2377.85  2420.43  2524.91
                             4356.72  4371.50  4395.20  4400.07  4406.08
                             4407.64  4423.65  4449.10  4457.61  4482.25
                             4482.76  4487.54  4496.88  4505.22  4528.48
                             4530.52  4555.92  4620.59  4634.91  4693.06
                             5123.84  5276.28

 Zero-point correction=                           0.357010 (Hartree/Particle)
 Thermal correction to Energy=                    0.376054
 Thermal correction to Enthalpy=                  0.376998
 Thermal correction to Gibbs Free Energy=         0.308110
 Sum of electronic and zero-point Energies=           -844.487943
 Sum of electronic and thermal Energies=              -844.468900
 Sum of electronic and thermal Enthalpies=            -844.467956
 Sum of electronic and thermal Free Energies=         -844.536844

                     E (Thermal)             CV                S
                      KCal/Mol        Cal/Mol-Kelvin    Cal/Mol-Kelvin
 Total                  235.977             72.896            144.987
 Electronic               0.000              0.000              0.000
 Translational            0.889              2.981             42.591
 Rotational               0.889              2.981             33.957
 Vibrational            234.200             66.934             68.440
 Vibration     1          0.593              1.985              6.505
 Vibration     2          0.593              1.985              6.325
 Vibration     3          0.594              1.983              5.682
 Vibration     4          0.597              1.972              4.338
 Vibration     5          0.600              1.961              3.826
 Vibration     6          0.606              1.941              3.272
 Vibration     7          0.608              1.935              3.141
 Vibration     8          0.613              1.920              2.898
 Vibration     9          0.615              1.912              2.789
 Vibration    10          0.625              1.880              2.437
 Vibration    11          0.638              1.838              2.120
 Vibration    12          0.642              1.827              2.054
 Vibration    13          0.650              1.803              1.918
 Vibration    14          0.671              1.738              1.630
 Vibration    15          0.681              1.707              1.523
 Vibration    16          0.687              1.690              1.467
 Vibration    17          0.695              1.667              1.398
 Vibration    18          0.709              1.625              1.283
 Vibration    19          0.714              1.612              1.251
 Vibration    20          0.734              1.556              1.126
 Vibration    21          0.753              1.504              1.022
 Vibration    22          0.785              1.422              0.884
 Vibration    23          0.809              1.361              0.796
 Vibration    24          0.830              1.309              0.729
 Vibration    25          0.887              1.179              0.583
 Vibration    26          0.906              1.138              0.543
 Vibration    27          0.925              1.099              0.507
 Vibration    28          0.936              1.076              0.486

                           ! Non-Optimized Parameters !
 Normal termination of Gaussian 16 at Sun Dec 13 13:27:49 2020.

 ----------------------------------------------------------------------
 # B3LYP/6-311++G(d,p) empiricaldispersion=gd3bj scf=xqc pop=npa geom=c
 heck
 ----------------------------------------------------------------------

 --------------------------------------
 CID_82256751_JID_9438_Energie_neutraal
 --------------------------------------
 Structure from the checkpoint file:  "JID_9438.chk"
 Charge =  0 Multiplicity = 1

 SCF Done:  E(RB3LYP) =  -845.083249817     A.U. after   16 cycles
 Normal termination of Gaussian 16 at Sun Dec 13 13:38:15 2020.

 ----------------------------------------------------------------------
 # B3LYP/6-311++G(d,p) empiricaldispersion=gd3bj scf=xqc pop=npa geom=c
 heck
 ----------------------------------------------------------------------

 ------------------------------------
 CID_82256751_JID_9438_Energie_kation
 ------------------------------------
 Structure from the checkpoint file:  "JID_9438.chk"
 Charge =  1 Multiplicity = 2

 SCF Done:  E(UB3LYP) =  -844.820007680     A.U. after   28 cycles
 Normal termination of Gaussian 16 at Sun Dec 13 14:04:22 2020.
 Gaussian 16:  ES64L-G16RevA.03 25-Dec-2016

 ----------------------------------------------------------------------
 # B3LYP/6-311++G(d,p) empiricaldispersion=gd3bj scf=xqc pop=npa geom=c
 heck
 ----------------------------------------------------------------------

 -----------------------------------
 CID_82256751_JID_9438_Energie_anion
 -----------------------------------
 Structure from the checkpoint file:  "JID_9438.chk"
 Charge = -1 Multiplicity = 2

                         Standard orientation:
 ---------------------------------------------------------------------
 Center     Atomic      Atomic             Coordinates (Angstroms)
 Number     Number       Type             X           Y           Z
 ---------------------------------------------------------------------
      1          6           0        4.115875   -2.667494    0.426361
      2          6           0        4.564675   -1.514663   -0.463169
      3          8           0        4.110598   -0.247699    0.017971
      4          6           0        2.801319    0.109885   -0.159098
      5          6           0        2.440532    1.321537    0.481846
      6          6           0        1.129782    1.770456    0.361372
      7          6           0        0.161146    1.048974   -0.356343
      8          6           0        0.542765   -0.135239   -0.994279
      9          6           0        1.857619   -0.598435   -0.897481
     10          6           0       -1.206080    1.650443   -0.418331
     11          8           0       -1.341604    2.852308   -0.229888
     12          6           0       -2.495715    0.814107   -0.603108
     13          6           0       -2.628602    0.029667   -1.922826
     14          7           0       -2.725262    0.083838    0.654274
     15          6           0       -2.213605   -1.285029    0.774676
     16          6           0       -3.373362   -2.244738    0.383205
     17          6           0       -4.651315   -1.374703    0.515440
     18          6           0       -4.124610   -0.029580    1.076433
     19          7           0        3.420938    2.043172    1.158108
     20          1           0        4.471738   -2.514662    1.450083
     21          1           0        4.527614   -3.612105    0.053694
     22          1           0        3.025955   -2.753425    0.452981
     23          1           0        5.654514   -1.428924   -0.461273
     24          1           0        4.246457   -1.655298   -1.503547
     25          1           0        0.830375    2.703607    0.827820
     26          1           0       -0.155939   -0.696409   -1.598362
     27          1           0        2.132213   -1.516353   -1.403481
     28          1           0       -3.253672    1.600927   -0.625652
     29          1           0       -2.080509   -0.914595   -1.920097
     30          1           0       -3.681467   -0.205398   -2.110723
     31          1           0       -2.264375    0.629971   -2.764454
     32          1           0       -1.938833   -1.450583    1.824730
     33          1           0       -1.307393   -1.424483    0.186189
     34          1           0       -3.255356   -2.610447   -0.641676
     35          1           0       -3.399623   -3.121724    1.037954
     36          1           0       -5.121379   -1.224400   -0.462038
     37          1           0       -5.403131   -1.826336    1.170635
     38          1           0       -4.700180    0.840936    0.751616
     39          1           0       -4.152907   -0.053201    2.174725
     40          1           0        3.071502    2.651918    1.886534
     41          1           0        4.210166    1.483924    1.454837
 ---------------------------------------------------------------------

 SCF Done:  E(UB3LYP) =  -845.079845578     A.U. after   33 cycles
 SCF Done:  E(UB3LYP) =  -845.079845578     a.u. after    1 cycles

 The electronic state is 2-A.
 Alpha  occ. eigenvalues --  -19.04591 -18.95751 -14.21008 -14.19815 -10.12823
 Alpha  occ. eigenvalues --  -10.10847 -10.10404 -10.09739 -10.09369 -10.09217
 Alpha  occ. eigenvalues --  -10.08771 -10.07764 -10.07380 -10.06591 -10.06467
 Alpha  occ. eigenvalues --  -10.05585 -10.05122 -10.04643 -10.04027  -0.96116
 Alpha  occ. eigenvalues --   -0.89636  -0.83025  -0.80938  -0.72452  -0.68980
 Alpha  occ. eigenvalues --   -0.67162  -0.64043  -0.62746  -0.62621  -0.61195
 Alpha  occ. eigenvalues --   -0.55684  -0.54528  -0.49791  -0.49388  -0.48925
 Alpha  occ. eigenvalues --   -0.47287  -0.43731  -0.42040  -0.41049  -0.40239
 Alpha  occ. eigenvalues --   -0.38354  -0.37715  -0.36688  -0.35269  -0.35189
 Alpha  occ. eigenvalues --   -0.33578  -0.33266  -0.31891  -0.31431  -0.30823
 Alpha  occ. eigenvalues --   -0.30121  -0.29784  -0.29508  -0.29319  -0.28059
 Alpha  occ. eigenvalues --   -0.27796  -0.27018  -0.25789  -0.25502  -0.24939
 Alpha  occ. eigenvalues --   -0.24239  -0.23926  -0.23616  -0.22326  -0.21623
 Alpha  occ. eigenvalues --   -0.21473  -0.19493  -0.13116  -0.12117  -0.09996
 Alpha  occ. eigenvalues --   -0.09185   0.04146
 Alpha virt. eigenvalues --    0.06073   0.06295   0.07368   0.07665   0.08024
 Alpha virt. eigenvalues --    0.08713   0.08835   0.09484   0.10301   0.10480
 Alpha virt. eigenvalues --    0.10823   0.11224   0.11408   0.12111   0.12276

  Beta  occ. eigenvalues --  -19.04570 -18.95458 -14.21012 -14.19780 -10.12809
  Beta  occ. eigenvalues --  -10.10658 -10.10171 -10.09728 -10.09424 -10.09232
  Beta  occ. eigenvalues --  -10.08764 -10.07759 -10.07373 -10.06551 -10.06450
  Beta  occ. eigenvalues --  -10.05612 -10.05068 -10.04597 -10.03889  -0.96028
  Beta  occ. eigenvalues --   -0.89090  -0.82980  -0.80935  -0.72305  -0.68925
  Beta  occ. eigenvalues --   -0.67066  -0.63980  -0.62707  -0.62438  -0.61051
  Beta  occ. eigenvalues --   -0.55486  -0.54462  -0.49713  -0.49109  -0.48881
  Beta  occ. eigenvalues --   -0.47199  -0.43617  -0.41904  -0.40998  -0.40184
  Beta  occ. eigenvalues --   -0.38302  -0.37646  -0.36638  -0.35184  -0.35029
  Beta  occ. eigenvalues --   -0.33515  -0.33142  -0.31766  -0.31312  -0.30772
  Beta  occ. eigenvalues --   -0.30043  -0.29533  -0.29435  -0.29208  -0.27954
  Beta  occ. eigenvalues --   -0.27580  -0.26923  -0.25729  -0.25449  -0.24890
  Beta  occ. eigenvalues --   -0.23974  -0.23597  -0.23055  -0.22270  -0.21520
  Beta  occ. eigenvalues --   -0.21302  -0.19040  -0.12916  -0.11543  -0.09794
  Beta  occ. eigenvalues --   -0.08675
  Beta virt. eigenvalues --    0.06155   0.06713   0.07409   0.07783   0.08132
  Beta virt. eigenvalues --    0.08522   0.08911   0.09075   0.09690   0.10382
  Beta virt. eigenvalues --    0.10526   0.10904   0.11212   0.11517   0.12067

 Mulliken charges and spin densities:
               1          2
     1  C    0.997569  -1.386156
     2  C   -0.408046   0.196947
     3  O   -0.152329   0.003547
     4  C   -0.273746   0.261468
     5  C   -0.659320   0.557742
     6  C   -0.715825   0.292359
     7  C    0.819961  -0.177144
     8  C    0.130222  -0.201128
     9  C    0.871066  -0.719432
    10  C   -0.599654  -0.143121
    11  O   -0.303069   0.098487
    12  C   -0.264418   0.081035
    13  C   -0.415006  -0.220371
    14  N    0.415040   0.021569
    15  C   -0.462486   0.208896
    16  C    0.036638  -0.414442
    17  C   -0.481625   0.193602
    18  C    0.057185  -0.159394
    19  N   -0.380518  -0.011902
    20  H   -0.036980   0.175399
    21  H   -0.419207   0.547611
    22  H   -0.236615   0.398415
    23  H   -0.319842   0.503723
    24  H    0.066887   0.053818
    25  H    0.178267   0.012084
    26  H   -0.024344   0.081795
    27  H   -0.061593   0.244564
    28  H    0.171296  -0.018253
    29  H    0.058493   0.096578
    30  H    0.003985   0.131225
    31  H    0.181858  -0.018548
    32  H    0.071759   0.100907
    33  H    0.253808  -0.181137
    34  H    0.036593   0.099567
    35  H    0.022451   0.114312
    36  H    0.106011   0.007336
    37  H    0.102481   0.039105
    38  H    0.096889   0.031595
    39  H    0.096335   0.045967
    40  H    0.186658   0.040795
    41  H    0.253169   0.010579
 Sum of Mulliken charges =  -1.00000   1.00000

 Dipole moment (field-independent basis, Debye):
    X=             -4.6725    Y=              0.0467    Z=              0.7863  Tot=              4.7384
 Quadrupole moment (field-independent basis, Debye-Ang):
   XX=           -182.9769   YY=           -171.5861   ZZ=           -131.8677
   XY=             21.0534   XZ=              3.9645   YZ=              2.9812

 Summary of Natural Population Analysis:

                                       Natural Population
                Natural  -----------------------------------------------
    Atom  No    Charge         Core      Valence    Rydberg      Total
 -----------------------------------------------------------------------
      C    1   -0.30120      0.99966     2.29674    0.00480     3.30120
      C    2   -0.00953      0.99959     1.99761    0.01233     3.00953
      O    3   -0.28448      0.99986     3.27469    0.00994     4.28448
      C    4    0.17617      0.99935     1.81170    0.01278     2.82383
      C    5    0.04795      0.99947     1.93956    0.01302     2.95205
      C    6   -0.06896      0.99946     2.06137    0.00813     3.06896
      C    7   -0.06902      0.99947     2.05823    0.01131     3.06902
      C    8   -0.09393      0.99954     2.08588    0.00851     3.09393
      C    9   -0.15190      0.99953     2.14401    0.00836     3.15190
      C   10    0.31211      0.99959     1.66623    0.02207     2.68789
      O   11   -0.27527      0.99988     3.26919    0.00620     4.27527
      C   12   -0.03943      0.99954     2.02586    0.01402     3.03943
      C   13   -0.30022      0.99965     2.29403    0.00654     3.30022
      N   14   -0.26940      0.99972     2.75765    0.01203     3.76940
      C   15   -0.09420      0.99962     2.08323    0.01135     3.09420
      C   16   -0.20370      0.99965     2.19725    0.00680     3.20370
      C   17   -0.20415      0.99965     2.19771    0.00679     3.20415
      C   18   -0.08186      0.99963     2.07279    0.00944     3.08186
      N   19   -0.40134      0.99971     2.89247    0.00916     3.90134
      H   20    0.09928      0.00000     0.39958    0.00114     0.40072
      H   21    0.10270      0.00000     0.39516    0.00213     0.39730
      H   22    0.10481      0.00000     0.39378    0.00141     0.39519
      H   23    0.08911      0.00000     0.40966    0.00123     0.41089
      H   24    0.08292      0.00000     0.41563    0.00145     0.41708
      H   25    0.10464      0.00000     0.39351    0.00185     0.39536
      H   26    0.09564      0.00000     0.40273    0.00163     0.40436
      H   27    0.10024      0.00000     0.39816    0.00160     0.39976
      H   28    0.10054      0.00000     0.39696    0.00249     0.39946
      H   29    0.09670      0.00000     0.40214    0.00116     0.40330
      H   30    0.09532      0.00000     0.40359    0.00109     0.40468
      H   31    0.10412      0.00000     0.39508    0.00079     0.39588
      H   32    0.09125      0.00000     0.40773    0.00102     0.40875
      H   33    0.10897      0.00000     0.38970    0.00133     0.39103
      H   34    0.09684      0.00000     0.40175    0.00141     0.40316
      H   35    0.09565      0.00000     0.40289    0.00146     0.40435
      H   36    0.09387      0.00000     0.40473    0.00140     0.40613
      H   37    0.09436      0.00000     0.40426    0.00138     0.40564
      H   38    0.09608      0.00000     0.40287    0.00104     0.40392
      H   39    0.08776      0.00000     0.41100    0.00124     0.41224
      H   40    0.18166      0.00000     0.31699    0.00134     0.31834
      H   41    0.18987      0.00000     0.30840    0.00172     0.31013
 =======================================================================
   * Total *    0.00000     18.99257    51.78254    0.22489    71.00000

 Normal termination of Gaussian 16 at Sun Dec 13 14:35:11 2020.
