 Gaussian 16, Revision A.03,

 -----------------------------------------------------------
 # opt freq B3LYP/6-31G(d) empiricaldispersion=gd3bj scf=xqc
 -----------------------------------------------------------

 ------------------------------
 CID_88155650_JID_3749_neutraal
 ------------------------------
 Symbolic Z-matrix:
 Charge =  0 Multiplicity = 1

 SCF Done:  E(RB3LYP) =  -950.586103453     A.U. after   15 cycles
 SCF Done:  E(RB3LYP) =  -950.599350235     A.U. after   14 cycles
 SCF Done:  E(RB3LYP) =  -950.600347166     A.U. after   14 cycles
 SCF Done:  E(RB3LYP) =  -950.600842763     A.U. after   14 cycles
 SCF Done:  E(RB3LYP) =  -950.602241468     A.U. after   12 cycles
 SCF Done:  E(RB3LYP) =  -950.602786680     A.U. after   13 cycles
 SCF Done:  E(RB3LYP) =  -950.602916424     A.U. after   13 cycles
 SCF Done:  E(RB3LYP) =  -950.602852903     A.U. after   13 cycles
 SCF Done:  E(RB3LYP) =  -950.603053542     A.U. after   12 cycles
 SCF Done:  E(RB3LYP) =  -950.603202492     A.U. after   13 cycles
 SCF Done:  E(RB3LYP) =  -950.603531922     A.U. after   13 cycles
 SCF Done:  E(RB3LYP) =  -950.603559604     A.U. after   12 cycles
 SCF Done:  E(RB3LYP) =  -950.603561610     A.U. after    9 cycles
 SCF Done:  E(RB3LYP) =  -950.603562022     A.U. after    9 cycles
 SCF Done:  E(RB3LYP) =  -950.603562082     A.U. after    8 cycles
 SCF Done:  E(RB3LYP) =  -950.603562103     A.U. after    7 cycles
 Optimization completed.
    -- Stationary point found.
 Normal termination of Gaussian 16 at Wed Dec  9 23:30:55 2020.

 --------------------------------------------------------------------
 #N Geom=AllCheck Guess=TCheck SCRF=Check GenChk RB3LYP/6-31G(d) Freq
 --------------------------------------------------------------------

 Structure from the checkpoint file:  "JID_3749.chk"
 ------------------------------
 CID_88155650_JID_3749_neutraal
 ------------------------------
 Charge =  0 Multiplicity = 1

 SCF Done:  E(RB3LYP) =  -950.603562103     A.U. after    1 cycles

  Exact polarizability: 138.789   8.623 117.657  10.690 -11.436  94.049
 Approx polarizability: 187.802  15.758 232.082  24.462 -26.193 164.494

                      1                      2                      3
                      A                      A                      A
 Frequencies --     14.7588                30.6283                61.3161
 Red. masses --      7.7792                 7.9133                 6.9198
 Frc consts  --      0.0010                 0.0044                 0.0153
 IR Inten    --      0.6070                 0.3293                 1.0647

                      4                      5                      6
                      A                      A                      A
 Frequencies --     71.2983               122.7979               175.7740
 Red. masses --      8.4559                 9.0666                 4.5249
 Frc consts  --      0.0253                 0.0806                 0.0824
 IR Inten    --      0.6238                 3.1622                 4.5515

                      7                      8                      9
                      A                      A                      A
 Frequencies --    178.6477               324.2332               342.9419
 Red. masses --      4.4198                 4.1204                 4.9345
 Frc consts  --      0.0831                 0.2552                 0.3419
 IR Inten    --      1.7401                 6.9794                15.2410

                     10                     11                     12
                      A                      A                      A
 Frequencies --    415.4352               436.4467               447.9358
 Red. masses --      2.9702                 6.1597                10.8137
 Frc consts  --      0.3020                 0.6913                 1.2784
 IR Inten    --      0.0050                 1.4492                 3.1274

                     13                     14                     15
                      A                      A                      A
 Frequencies --    458.0456               491.8734               596.9756
 Red. masses --      5.2311                 8.3438                 9.4597
 Frc consts  --      0.6466                 1.1894                 1.9863
 IR Inten    --      0.5042                 8.0642                57.1159

                     16                     17                     18
                      A                      A                      A
 Frequencies --    633.4337               693.7698               699.4617
 Red. masses --      6.4090                 5.3169                 3.5769
 Frc consts  --      1.5151                 1.5078                 1.0311
 IR Inten    --      1.3070                 1.7130                 5.9967

                     19                     20                     21
                      A                      A                      A
 Frequencies --    715.2941               730.3940               811.6815
 Red. masses --      2.6369                 3.1140                 2.9345
 Frc consts  --      0.7949                 0.9788                 1.1391
 IR Inten    --     10.7877               145.9074                 1.5378

                     22                     23                     24
                      A                      A                      A
 Frequencies --    817.5309               867.3798               957.3771
 Red. masses --      4.4433                 1.2468                 1.3948
 Frc consts  --      1.7497                 0.5526                 0.7533
 IR Inten    --      3.8345                 0.0386                 0.9758

                     25                     26                     27
                      A                      A                      A
 Frequencies --    985.3140              1001.4983              1010.8162
 Red. masses --      1.3542                 7.8228                 1.2779
 Frc consts  --      0.7746                 4.6229                 0.7693
 IR Inten    --      0.1237                66.4473                 0.0280

                     28                     29                     30
                      A                      A                      A
 Frequencies --   1023.0537              1056.4263              1089.4530
 Red. masses --      6.2604                 2.4625                 2.3601
 Frc consts  --      3.8606                 1.6192                 1.6504
 IR Inten    --      8.8286                58.8172               127.4812

                     31                     32                     33
                      A                      A                      A
 Frequencies --   1106.3090              1123.0829              1168.8298
 Red. masses --      2.1762                 2.1696                 5.6587
 Frc consts  --      1.5693                 1.6123                 4.5548
 IR Inten    --    152.4167               121.6956                18.7245

                     34                     35                     36
                      A                      A                      A
 Frequencies --   1196.8106              1210.0742              1291.1479
 Red. masses --      1.1022                 1.1409                 3.8187
 Frc consts  --      0.9302                 0.9843                 3.7508
 IR Inten    --      0.2985                33.8181               373.7213

                     37                     38                     39
                      A                      A                      A
 Frequencies --   1331.6481              1355.0177              1372.5402
 Red. masses --      1.0993                 1.5083                 4.6832
 Frc consts  --      1.1485                 1.6317                 5.1981
 IR Inten    --      8.5857                 6.0941                 4.9139

                     40                     41                     42
                      A                      A                      A
 Frequencies --   1442.8860              1500.2889              1509.3423
 Red. masses --      1.2502                 2.2650                 1.0843
 Frc consts  --      1.5335                 3.0038                 1.4553
 IR Inten    --     63.2864                15.3973                29.4690

                     43                     44                     45
                      A                      A                      A
 Frequencies --   1543.5901              1644.4455              1664.6799
 Red. masses --      2.2395                 5.7037                 5.5554
 Frc consts  --      3.1439                 9.0875                 9.0704
 IR Inten    --      0.9366                 4.8606                21.0098

                     46                     47                     48
                      A                      A                      A
 Frequencies --   1810.4379              2129.1759              3103.6893
 Red. masses --     11.9684                11.9242                 1.0594
 Frc consts  --     23.1129                31.8495                 6.0127
 IR Inten    --    225.6416              1067.3037                30.7079

                     49                     50                     51
                      A                      A                      A
 Frequencies --   3169.5637              3191.2189              3203.6222
 Red. masses --      1.1083                 1.0861                 1.0900
 Frc consts  --      6.5598                 6.5166                 6.5913
 IR Inten    --     12.4140                 0.4608                14.1308

                     52                     53                     54
                      A                      A                      A
 Frequencies --   3213.2221              3230.5077              3237.8519
 Red. masses --      1.0948                 1.0935                 1.0930
 Frc consts  --      6.6600                 6.7239                 6.7514
 IR Inten    --     21.2990                 4.5550                 2.9793

 - Thermochemistry -
 -------------------
 Temperature   298.150 Kelvin.  Pressure   1.00000 Atm.
 Atom     1 has atomic number  6 and mass  12.00000

 Molecular mass:   193.01975 amu.
 Principal axes and moments of inertia in atomic units:
                           1         2         3
     Eigenvalues --  1380.457824924.189535349.13353
           X            0.99980   0.01942   0.00561
           Y           -0.01914   0.99876  -0.04589
           Z           -0.00649   0.04578   0.99893
 This molecule is an asymmetric top.
 Rotational symmetry number  1.
 Warning -- assumption of classical behavior for rotation
           may cause significant error
 Rotational temperatures (Kelvin)      0.06274     0.01759     0.01619
 Rotational constants (GHZ):           1.30735     0.36651     0.33739
 Zero-point vibrational energy     382876.6 (Joules/Mol)
                                   91.50971 (Kcal/Mol)
 Warning -- explicit consideration of  15 degrees of freedom as
           vibrations may cause significant error
 Vibrational temperatures:     21.23    44.07    88.22   102.58   176.68
          (Kelvin)            252.90   257.03   466.50   493.42   597.72
                              627.95   644.48   659.03   707.70   858.91
                              911.37   998.18  1006.37  1029.15  1050.87
                             1167.83  1176.24  1247.97  1377.45  1417.65
                             1440.93  1454.34  1471.95  1519.96  1567.48
                             1591.73  1615.87  1681.69  1721.94  1741.03
                             1857.67  1915.94  1949.57  1974.78  2075.99
                             2158.58  2171.61  2220.88  2365.99  2395.10
                             2604.82  3063.41  4465.52  4560.30  4591.45
                             4609.30  4623.11  4647.98  4658.55

 Zero-point correction=                           0.145830 (Hartree/Particle)
 Thermal correction to Energy=                    0.157379
 Thermal correction to Enthalpy=                  0.158323
 Thermal correction to Gibbs Free Energy=         0.104605
 Sum of electronic and zero-point Energies=           -950.457732
 Sum of electronic and thermal Energies=              -950.446183
 Sum of electronic and thermal Enthalpies=            -950.445239
 Sum of electronic and thermal Free Energies=         -950.498957

                     E (Thermal)             CV                S
                      KCal/Mol        Cal/Mol-Kelvin    Cal/Mol-Kelvin
 Total                   98.757             41.243            113.060
 Electronic               0.000              0.000              0.000
 Translational            0.889              2.981             41.678
 Rotational               0.889              2.981             31.964
 Vibrational             96.980             35.282             39.417
 Vibration     1          0.593              1.986              7.238
 Vibration     2          0.594              1.984              5.788
 Vibration     3          0.597              1.973              4.414
 Vibration     4          0.598              1.968              4.117
 Vibration     5          0.610              1.930              3.056
 Vibration     6          0.628              1.872              2.373
 Vibration     7          0.629              1.869              2.342
 Vibration     8          0.709              1.627              1.289
 Vibration     9          0.722              1.590              1.198
 Vibration    10          0.779              1.437              0.908
 Vibration    11          0.797              1.391              0.838
 Vibration    12          0.807              1.365              0.802
 Vibration    13          0.816              1.343              0.772
 Vibration    14          0.848              1.268              0.679
 Vibration    15          0.955              1.038              0.455

 Optimization completed.
    -- Stationary point found.
 Normal termination of Gaussian 16 at Wed Dec  9 23:35:34 2020.

 ----------------------------------------------------------------------
 # B3LYP/6-311++G(d,p) empiricaldispersion=gd3bj scf=xqc pop=npa geom=c
 heck
 ----------------------------------------------------------------------

 --------------------------------------
 CID_88155650_JID_3749_Energie_neutraal
 --------------------------------------
 Structure from the checkpoint file:  "JID_3749.chk"
 Charge =  0 Multiplicity = 1

 SCF Done:  E(RB3LYP) =  -950.781070565     A.U. after   15 cycles
 Normal termination of Gaussian 16 at Wed Dec  9 23:37:35 2020.

 ----------------------------------------------------------------------
 # B3LYP/6-311++G(d,p) empiricaldispersion=gd3bj scf=xqc pop=npa geom=c
 heck
 ----------------------------------------------------------------------

 ------------------------------------
 CID_88155650_JID_3749_Energie_kation
 ------------------------------------
 Structure from the checkpoint file:  "JID_3749.chk"
 Charge =  1 Multiplicity = 2

 SCF Done:  E(UB3LYP) =  -950.453463084     A.U. after   31 cycles
 Normal termination of Gaussian 16 at Wed Dec  9 23:43:21 2020.
 Gaussian 16:  ES64L-G16RevA.03 25-Dec-2016

 ----------------------------------------------------------------------
 # B3LYP/6-311++G(d,p) empiricaldispersion=gd3bj scf=xqc pop=npa geom=c
 heck
 ----------------------------------------------------------------------

 -----------------------------------
 CID_88155650_JID_3749_Energie_anion
 -----------------------------------
 Structure from the checkpoint file:  "JID_3749.chk"
 Charge = -1 Multiplicity = 2

                         Standard orientation:
 ---------------------------------------------------------------------
 Center     Atomic      Atomic             Coordinates (Angstroms)
 Number     Number       Type             X           Y           Z
 ---------------------------------------------------------------------
      1          6           0        3.955274    0.658205    0.503613
      2          6           0        3.398639    1.076125   -0.707926
      3          6           0        2.127917    0.644158   -1.073794
      4          6           0        1.409031   -0.210458   -0.227218
      5          6           0        1.967404   -0.628058    0.988361
      6          6           0        3.239707   -0.191934    1.349636
      7          6           0        0.060123   -0.636411   -0.666710
      8          8           0       -0.483381   -0.295268   -1.695529
      9          8           0       -0.535860   -1.482637    0.233053
     10          6           0       -1.856167   -1.899351   -0.107298
     11          7           0       -2.844931   -0.921884    0.227080
     12          6           0       -2.961540    0.273234    0.300754
     13         16           0       -3.229713    1.823881    0.456598
     14          1           0        4.947172    0.996779    0.789384
     15          1           0        3.955256    1.738802   -1.363758
     16          1           0        1.672364    0.956399   -2.007181
     17          1           0        1.403672   -1.285236    1.639863
     18          1           0        3.673257   -0.513614    2.291837
     19          1           0       -1.915389   -2.109704   -1.178058
     20          1           0       -2.034807   -2.802153    0.476086
 ---------------------------------------------------------------------

 SCF Done:  E(UB3LYP) =  -950.794892812     A.U. after   25 cycles

 The electronic state is 2-A.
 Alpha  occ. eigenvalues --  -88.71601 -19.02615 -18.94398 -14.21565 -10.15463
 Alpha  occ. eigenvalues --  -10.13814 -10.12712 -10.03751 -10.03723 -10.03133
 Alpha  occ. eigenvalues --  -10.02865 -10.02821 -10.02762  -7.80345  -5.76721
 Alpha  occ. eigenvalues --   -5.76101  -5.75999  -0.96532  -0.87152  -0.82918
 Alpha  occ. eigenvalues --   -0.71729  -0.66632  -0.62808  -0.60939  -0.59961
 Alpha  occ. eigenvalues --   -0.50521  -0.47038  -0.45131  -0.40981  -0.40384
 Alpha  occ. eigenvalues --   -0.36568  -0.34760  -0.32179  -0.31601  -0.30668
 Alpha  occ. eigenvalues --   -0.29746  -0.29081  -0.28788  -0.27341  -0.25420
 Alpha  occ. eigenvalues --   -0.23126  -0.22682  -0.21828  -0.20595  -0.18506
 Alpha  occ. eigenvalues --   -0.14080  -0.12979  -0.12563  -0.12351  -0.12159
 Alpha  occ. eigenvalues --    0.04372
 Alpha virt. eigenvalues --    0.07611   0.08691   0.09346   0.10251   0.11236
 Alpha virt. eigenvalues --    0.11595   0.11786   0.12092   0.12255   0.13983
 Alpha virt. eigenvalues --    0.14169   0.14492   0.15659   0.16452   0.16806

  Beta  occ. eigenvalues --  -88.71589 -19.02572 -18.94031 -14.21530 -10.15389
  Beta  occ. eigenvalues --  -10.13551 -10.12422 -10.03803 -10.03787 -10.02991
  Beta  occ. eigenvalues --  -10.02685 -10.02608 -10.02548  -7.80334  -5.76725
  Beta  occ. eigenvalues --   -5.76050  -5.75994  -0.96250  -0.86600  -0.82679
  Beta  occ. eigenvalues --   -0.71403  -0.66333  -0.62404  -0.60667  -0.59703
  Beta  occ. eigenvalues --   -0.49868  -0.46877  -0.44828  -0.40789  -0.40245
  Beta  occ. eigenvalues --   -0.36382  -0.34311  -0.31756  -0.31319  -0.30466
  Beta  occ. eigenvalues --   -0.29449  -0.28743  -0.28087  -0.26772  -0.24891
  Beta  occ. eigenvalues --   -0.22847  -0.21984  -0.21595  -0.20476  -0.17287
  Beta  occ. eigenvalues --   -0.13663  -0.12648  -0.12515  -0.11583  -0.10638
  Beta virt. eigenvalues --    0.08322   0.08702   0.09706   0.10165   0.10395
  Beta virt. eigenvalues --    0.11235   0.11661   0.11832   0.12370   0.12412
  Beta virt. eigenvalues --    0.13944   0.14117   0.14429   0.15713   0.16447

 Mulliken charges and spin densities:
               1          2
     1  C   -0.272824   0.241357
     2  C   -0.415494  -0.041490
     3  C   -0.141784   0.169544
     4  C    0.744536   0.015624
     5  C   -0.368226   0.144943
     6  C   -0.302414  -0.038419
     7  C   -0.331838   0.191702
     8  O   -0.345953   0.127883
     9  O   -0.058149   0.003106
    10  C   -0.121593  -0.087094
    11  N   -0.017818   0.027935
    12  C    0.146508   0.153309
    13  S   -0.448653   0.066083
    14  H    0.095147  -0.019813
    15  H    0.111984   0.003044
    16  H    0.161554  -0.009649
    17  H    0.145513  -0.006364
    18  H    0.114508   0.002280
    19  H    0.176437   0.034336
    20  H    0.128559   0.021681
 Sum of Mulliken charges =  -1.00000   1.00000

 Dipole moment (field-independent basis, Debye):
    X=              0.1611    Y=             -2.4095    Z=              1.2126  Tot=              2.7022
 Quadrupole moment (field-independent basis, Debye-Ang):
   XX=           -123.9783   YY=            -91.8187   ZZ=            -94.6337
   XY=              7.4665   XZ=              0.5329   YZ=             -2.1722

 Summary of Natural Population Analysis:

                                       Natural Population
                Natural  -----------------------------------------------
    Atom  No    Charge         Core      Valence    Rydberg      Total
 -----------------------------------------------------------------------
      C    1   -0.04591      0.99958     2.03650    0.00984     3.04591
      C    2   -0.12930      0.99957     2.12025    0.00948     3.12930
      C    3   -0.04826      0.99954     2.04020    0.00852     3.04826
      C    4   -0.05971      0.99946     2.04957    0.01068     3.05971
      C    5   -0.05778      0.99955     2.04991    0.00832     3.05778
      C    6   -0.12849      0.99958     2.11923    0.00969     3.12849
      C    7    0.43167      0.99963     1.54558    0.02313     2.56833
      O    8   -0.28395      0.99987     3.27877    0.00531     4.28395
      O    9   -0.28775      0.99986     3.28061    0.00728     4.28775
      C   10    0.07697      0.99957     1.90806    0.01539     2.92303
      N   11   -0.24940      0.99948     2.73705    0.01287     3.74940
      C   12    0.16320      0.99953     1.82244    0.01483     2.83680
      S   13   -0.03460      4.99945     3.01873    0.01642     8.03460
      H   14    0.08561      0.00000     0.41334    0.00106     0.41439
      H   15    0.09080      0.00000     0.40814    0.00106     0.40920
      H   16    0.10449      0.00000     0.39451    0.00100     0.39551
      H   17    0.10067      0.00000     0.39841    0.00092     0.39933
      H   18    0.09025      0.00000     0.40866    0.00109     0.40975
      H   19    0.09567      0.00000     0.40214    0.00219     0.40433
      H   20    0.08583      0.00000     0.41307    0.00110     0.41417
 =======================================================================
   * Total *   -0.00000     16.99468    32.84517    0.16016    50.00000

 Normal termination of Gaussian 16 at Wed Dec  9 23:48:03 2020.
