 Gaussian 16, Revision A.03,

 -----------------------------------------------------------
 # opt freq B3LYP/6-31G(d) empiricaldispersion=gd3bj scf=xqc
 -----------------------------------------------------------

 ------------------------------
 CID_24209131_JID_6663_neutraal
 ------------------------------
 Symbolic Z-matrix:
 Charge =  0 Multiplicity = 1

 SCF Done:  E(RB3LYP) =  -655.342330282     A.U. after   15 cycles
 SCF Done:  E(RB3LYP) =  -655.347171001     A.U. after   12 cycles
 SCF Done:  E(RB3LYP) =  -655.347100514     A.U. after   12 cycles
 SCF Done:  E(RB3LYP) =  -655.347647270     A.U. after   12 cycles
 SCF Done:  E(RB3LYP) =  -655.348054959     A.U. after   11 cycles
 SCF Done:  E(RB3LYP) =  -655.348166779     A.U. after   11 cycles
 SCF Done:  E(RB3LYP) =  -655.348433733     A.U. after   13 cycles
 SCF Done:  E(RB3LYP) =  -655.348528162     A.U. after   13 cycles
 SCF Done:  E(RB3LYP) =  -655.348572953     A.U. after   11 cycles
 SCF Done:  E(RB3LYP) =  -655.348599407     A.U. after   12 cycles
 SCF Done:  E(RB3LYP) =  -655.348601711     A.U. after   10 cycles
 SCF Done:  E(RB3LYP) =  -655.348606406     A.U. after    9 cycles
 SCF Done:  E(RB3LYP) =  -655.348610329     A.U. after   11 cycles
 SCF Done:  E(RB3LYP) =  -655.348612439     A.U. after   10 cycles
 SCF Done:  E(RB3LYP) =  -655.348613402     A.U. after   10 cycles
 SCF Done:  E(RB3LYP) =  -655.348613437     A.U. after    7 cycles
 Optimization completed.
    -- Stationary point found.
 Normal termination of Gaussian 16 at Fri Dec 11 00:12:29 2020.

 --------------------------------------------------------------------
 #N Geom=AllCheck Guess=TCheck SCRF=Check GenChk RB3LYP/6-31G(d) Freq
 --------------------------------------------------------------------

 Structure from the checkpoint file:  "JID_6663.chk"
 ------------------------------
 CID_24209131_JID_6663_neutraal
 ------------------------------
 Charge =  0 Multiplicity = 1

 SCF Done:  E(RB3LYP) =  -655.348613437     A.U. after    1 cycles

  Exact polarizability: 239.754  11.155 172.621  -2.543  -0.992  72.811
 Approx polarizability: 345.977  26.449 324.852  -6.119  -3.285 114.989

                      1                      2                      3
                      A                      A                      A
 Frequencies --     34.7004                74.7124                82.2186
 Red. masses --      4.5918                 3.1734                 2.1150
 Frc consts  --      0.0033                 0.0104                 0.0084
 IR Inten    --      3.7250                 0.2233                 0.0863

                      4                      5                      6
                      A                      A                      A
 Frequencies --     95.7887               180.1114               200.0869
 Red. masses --      1.2871                 3.2919                 3.9414
 Frc consts  --      0.0070                 0.0629                 0.0930
 IR Inten    --      0.0969                 0.6127                 2.7464

                      7                      8                      9
                      A                      A                      A
 Frequencies --    211.1122               273.7233               304.9081
 Red. masses --      3.6073                 2.5176                 4.3119
 Frc consts  --      0.0947                 0.1111                 0.2362
 IR Inten    --      0.3378                 0.2489                 2.4058

                     10                     11                     12
                      A                      A                      A
 Frequencies --    349.7175               361.1279               400.1767
 Red. masses --      3.4508                 3.9299                 3.6412
 Frc consts  --      0.2487                 0.3020                 0.3436
 IR Inten    --      2.5215                 1.5943                 0.7187

                     13                     14                     15
                      A                      A                      A
 Frequencies --    411.6657               443.9984               477.4952
 Red. masses --      3.7785                 3.2603                 4.0725
 Frc consts  --      0.3773                 0.3787                 0.5471
 IR Inten    --      0.2562                 2.2431                 0.5362

                     16                     17                     18
                      A                      A                      A
 Frequencies --    508.7688               544.8307               549.3959
 Red. masses --      3.4859                 4.4680                 3.5485
 Frc consts  --      0.5316                 0.7814                 0.6310
 IR Inten    --      4.4999                 1.4617                 4.5167

                     19                     20                     21
                      A                      A                      A
 Frequencies --    556.7546               588.3487               619.6007
 Red. masses --      4.3032                 3.2703                 4.2743
 Frc consts  --      0.7859                 0.6670                 0.9668
 IR Inten    --     15.3797                 6.1356                 3.6941

                     22                     23                     24
                      A                      A                      A
 Frequencies --    641.0507               712.9362               724.7501
 Red. masses --      3.5192                 3.4597                 5.9383
 Frc consts  --      0.8521                 1.0361                 1.8378
 IR Inten    --      3.0647                 1.2103                 0.4572

                     25                     26                     27
                      A                      A                      A
 Frequencies --    785.1746               799.6572               827.0470
 Red. masses --      3.3056                 3.6865                 1.4658
 Frc consts  --      1.2007                 1.3889                 0.5907
 IR Inten    --      0.3663                 0.0615                 3.1284

                     28                     29                     30
                      A                      A                      A
 Frequencies --    843.7701               856.4909               883.9386
 Red. masses --      2.6973                 1.4830                 1.5161
 Frc consts  --      1.1314                 0.6410                 0.6979
 IR Inten    --     12.1364                36.8046                 0.0925

                     31                     32                     33
                      A                      A                      A
 Frequencies --    902.5829               935.5230               951.0187
 Red. masses --      1.5068                 2.9476                 2.6535
 Frc consts  --      0.7232                 1.5199                 1.4140
 IR Inten    --      6.2317                 1.5415                 5.3592

                     34                     35                     36
                      A                      A                      A
 Frequencies --    975.9159              1000.0590              1006.5938
 Red. masses --      1.3253                 3.0641                 1.2806
 Frc consts  --      0.7437                 1.8056                 0.7645
 IR Inten    --      0.5097                 1.7157                 1.1987

                     37                     38                     39
                      A                      A                      A
 Frequencies --   1014.0380              1040.0615              1077.5694
 Red. masses --      2.9409                 1.5698                 1.5220
 Frc consts  --      1.7817                 1.0005                 1.0412
 IR Inten    --     17.8310                 5.3859                 4.4445

                     40                     41                     42
                      A                      A                      A
 Frequencies --   1083.2960              1089.3576              1149.6265
 Red. masses --      2.0570                 2.0427                 1.9381
 Frc consts  --      1.4222                 1.4283                 1.5092
 IR Inten    --      0.0461                 4.2945                43.7012

                     43                     44                     45
                      A                      A                      A
 Frequencies --   1172.0847              1191.9710              1212.4895
 Red. masses --      1.3577                 1.5281                 1.4954
 Frc consts  --      1.0990                 1.2792                 1.2952
 IR Inten    --     12.9763                 1.0463                12.4415

                     46                     47                     48
                      A                      A                      A
 Frequencies --   1219.9988              1228.9991              1255.8993
 Red. masses --      1.4681                 2.3521                 1.7707
 Frc consts  --      1.2874                 2.0932                 1.6455
 IR Inten    --     20.6717                45.5773                20.8450

                     49                     50                     51
                      A                      A                      A
 Frequencies --   1270.8106              1296.0531              1312.8281
 Red. masses --      2.7604                 1.2629                 1.6852
 Frc consts  --      2.6266                 1.2499                 1.7113
 IR Inten    --      7.5906                 4.7251                 8.3885

                     52                     53                     54
                      A                      A                      A
 Frequencies --   1362.1050              1374.4361              1397.4125
 Red. masses --      1.8946                 1.6464                 1.6680
 Frc consts  --      2.0710                 1.8325                 1.9190
 IR Inten    --     17.0108                42.0103                15.4876

                     55                     56                     57
                      A                      A                      A
 Frequencies --   1404.1482              1410.9585              1419.8471
 Red. masses --      2.2920                 4.0699                 3.7921
 Frc consts  --      2.6625                 4.7737                 4.5042
 IR Inten    --      1.2635                 9.7035                 1.5095

                     58                     59                     60
                      A                      A                      A
 Frequencies --   1443.1257              1446.4709              1491.1520
 Red. masses --      1.2595                 3.2170                 1.0909
 Frc consts  --      1.5455                 3.9657                 1.4292
 IR Inten    --      0.3092                17.2937                 4.0243

                     61                     62                     63
                      A                      A                      A
 Frequencies --   1508.4349              1513.0672              1518.1616
 Red. masses --      1.1595                 1.0442                 1.2175
 Frc consts  --      1.5545                 1.4085                 1.6533
 IR Inten    --      3.7031                 5.4875                13.2667

                     64                     65                     66
                      A                      A                      A
 Frequencies --   1526.5827              1529.1409              1558.5123
 Red. masses --      1.4127                 1.5123                 2.7094
 Frc consts  --      1.9397                 2.0835                 3.8774
 IR Inten    --     12.9391                 4.2147                37.5851

                     67                     68                     69
                      A                      A                      A
 Frequencies --   1613.7395              1656.6132              1688.7568
 Red. masses --      6.9633                 5.8667                 5.8551
 Frc consts  --     10.6839                 9.4860                 9.8383
 IR Inten    --      8.3157                45.7706                 1.1490

                     70                     71                     72
                      A                      A                      A
 Frequencies --   1757.7989              3007.5735              3018.3820
 Red. masses --     11.7167                 1.0707                 1.0709
 Frc consts  --     21.3301                 5.7063                 5.7481
 IR Inten    --    168.7912                22.6329                 9.9244

                     73                     74                     75
                      A                      A                      A
 Frequencies --   3042.6431              3048.1098              3078.0497
 Red. masses --      1.0374                 1.0618                 1.0903
 Frc consts  --      5.6582                 5.8125                 6.0864
 IR Inten    --     41.0482                34.1910                36.3434

                     76                     77                     78
                      A                      A                      A
 Frequencies --   3092.4490              3094.0998              3119.6447
 Red. masses --      1.1035                 1.1007                 1.0923
 Frc consts  --      6.2179                 6.2087                 6.2634
 IR Inten    --     48.4683                20.2079                18.8224

                     79                     80                     81
                      A                      A                      A
 Frequencies --   3126.8923              3171.5664              3177.5971
 Red. masses --      1.1010                 1.0897                 1.0882
 Frc consts  --      6.3426                 6.4580                 6.4738
 IR Inten    --     16.1386                14.3943                 9.9736

                     82                     83                     84
                      A                      A                      A
 Frequencies --   3177.9744              3195.8336              3288.3764
 Red. masses --      1.0884                 1.0956                 1.0912
 Frc consts  --      6.4764                 6.5927                 6.9522
 IR Inten    --     21.3172                29.2676                12.5056

 - Thermochemistry -
 -------------------
 Temperature   298.150 Kelvin.  Pressure   1.00000 Atm.
 Atom     1 has atomic number  6 and mass  12.00000

 Molecular mass:   210.10447 amu.
 Principal axes and moments of inertia in atomic units:
                           1         2         3
     Eigenvalues --  1549.996894909.414726378.42778
           X            0.99996   0.00837  -0.00006
           Y           -0.00837   0.99996  -0.00025
           Z            0.00005   0.00025   1.00000
 This molecule is an asymmetric top.
 Rotational symmetry number  1.
 Warning -- assumption of classical behavior for rotation
           may cause significant error
 Rotational temperatures (Kelvin)      0.05588     0.01764     0.01358
 Rotational constants (GHZ):           1.16435     0.36761     0.28294
 Zero-point vibrational energy     657889.2 (Joules/Mol)
                                  157.23930 (Kcal/Mol)
 Warning -- explicit consideration of  21 degrees of freedom as
           vibrations may cause significant error
 Vibrational temperatures:     49.93   107.49   118.29   137.82   259.14
          (Kelvin)            287.88   303.74   393.83   438.69   503.17
                              519.58   575.76   592.30   638.81   687.01
                              732.00   783.89   790.46   801.05   846.50
                              891.47   922.33  1025.76  1042.75  1129.69
                             1150.53  1189.94  1214.00  1232.30  1271.79
                             1298.62  1346.01  1368.30  1404.13  1438.86
                             1448.26  1458.97  1496.42  1550.38  1558.62
                             1567.34  1654.06  1686.37  1714.98  1744.50
                             1755.31  1768.26  1806.96  1828.41  1864.73
                             1888.87  1959.77  1977.51  2010.56  2020.26
                             2030.05  2042.84  2076.34  2081.15  2145.44
                             2170.30  2176.97  2184.30  2196.41  2200.09
                             2242.35  2321.81  2383.50  2429.74  2529.08
                             4327.23  4342.78  4377.68  4385.55  4428.63
                             4449.34  4451.72  4488.47  4498.90  4563.18
                             4571.85  4572.40  4598.09  4731.24

 Zero-point correction=                           0.250577 (Hartree/Particle)
 Thermal correction to Energy=                    0.263492
 Thermal correction to Enthalpy=                  0.264436
 Thermal correction to Gibbs Free Energy=         0.210685
 Sum of electronic and zero-point Energies=           -655.098037
 Sum of electronic and thermal Energies=              -655.085121
 Sum of electronic and thermal Enthalpies=            -655.084177
 Sum of electronic and thermal Free Energies=         -655.137928

                     E (Thermal)             CV                S
                      KCal/Mol        Cal/Mol-Kelvin    Cal/Mol-Kelvin
 Total                  165.344             51.757            113.128
 Electronic               0.000              0.000              0.000
 Translational            0.889              2.981             41.931
 Rotational               0.889              2.981             32.251
 Vibrational            163.566             45.796             38.946
 Vibration     1          0.594              1.983              5.541
 Vibration     2          0.599              1.966              4.025
 Vibration     3          0.600              1.961              3.837
 Vibration     4          0.603              1.952              3.538
 Vibration     5          0.629              1.867              2.327
 Vibration     6          0.638              1.840              2.132
 Vibration     7          0.643              1.824              2.034
 Vibration     8          0.676              1.722              1.573
 Vibration     9          0.696              1.664              1.390
 Vibration    10          0.727              1.576              1.167
 Vibration    11          0.735              1.552              1.117
 Vibration    12          0.766              1.470              0.962
 Vibration    13          0.776              1.445              0.921
 Vibration    14          0.804              1.374              0.814
 Vibration    15          0.834              1.300              0.717
 Vibration    16          0.864              1.231              0.637
 Vibration    17          0.900              1.151              0.555
 Vibration    18          0.905              1.141              0.545
 Vibration    19          0.912              1.125              0.530
 Vibration    20          0.946              1.057              0.470
 Vibration    21          0.980              0.991              0.417

 Optimization completed.
    -- Stationary point found.
 Normal termination of Gaussian 16 at Fri Dec 11 00:23:02 2020.

 ----------------------------------------------------------------------
 # B3LYP/6-311++G(d,p) empiricaldispersion=gd3bj scf=xqc pop=npa geom=c
 heck
 ----------------------------------------------------------------------

 --------------------------------------
 CID_24209131_JID_6663_Energie_neutraal
 --------------------------------------
 Structure from the checkpoint file:  "JID_6663.chk"
 Charge =  0 Multiplicity = 1

 SCF Done:  E(RB3LYP) =  -655.513104427     A.U. after   15 cycles
 Normal termination of Gaussian 16 at Fri Dec 11 00:27:57 2020.

 ----------------------------------------------------------------------
 # B3LYP/6-311++G(d,p) empiricaldispersion=gd3bj scf=xqc pop=npa geom=c
 heck
 ----------------------------------------------------------------------

 ------------------------------------
 CID_24209131_JID_6663_Energie_kation
 ------------------------------------
 Structure from the checkpoint file:  "JID_6663.chk"
 Charge =  1 Multiplicity = 2

 SCF Done:  E(UB3LYP) =  -655.225540477     A.U. after   28 cycles
 Normal termination of Gaussian 16 at Fri Dec 11 00:41:00 2020.
 Gaussian 16:  ES64L-G16RevA.03 25-Dec-2016

 ----------------------------------------------------------------------
 # B3LYP/6-311++G(d,p) empiricaldispersion=gd3bj scf=xqc pop=npa geom=c
 heck
 ----------------------------------------------------------------------

 -----------------------------------
 CID_24209131_JID_6663_Energie_anion
 -----------------------------------
 Structure from the checkpoint file:  "JID_6663.chk"
 Charge = -1 Multiplicity = 2

                         Standard orientation:
 ---------------------------------------------------------------------
 Center     Atomic      Atomic             Coordinates (Angstroms)
 Number     Number       Type             X           Y           Z
 ---------------------------------------------------------------------
      1          6           0       -4.875611   -0.218673    0.064432
      2          6           0       -3.369141   -0.188200    0.035110
      3          6           0       -2.662983    0.993405    0.007981
      4          6           0       -1.244967    1.016695   -0.019403
      5          6           0       -0.499619   -0.207209   -0.019345
      6          6           0       -1.251601   -1.415217    0.009372
      7          6           0       -2.628022   -1.396783    0.035196
      8          6           0        0.945514   -0.145511   -0.051729
      9          6           0        1.582510    1.101428   -0.066796
     10          6           0        3.088297    1.253470   -0.096193
     11          6           0        3.806954    0.048147    0.499600
     12          6           0        3.299141   -1.209645   -0.196393
     13          6           0        1.787946   -1.381052   -0.083806
     14          8           0        1.335080   -2.519025   -0.049658
     15          6           0        0.816281    2.291139   -0.064248
     16          6           0       -0.553400    2.252870   -0.044960
     17          1           0       -5.278495   -0.755896   -0.803174
     18          1           0       -5.296721    0.791283    0.060445
     19          1           0       -5.244545   -0.734750    0.959542
     20          1           0       -3.191827    1.944255    0.007398
     21          1           0       -0.721006   -2.354521    0.011236
     22          1           0       -3.166524   -2.341748    0.057184
     23          1           0        3.412905    1.384803   -1.140678
     24          1           0        3.365829    2.176829    0.425239
     25          1           0        4.892201    0.147079    0.385178
     26          1           0        3.597986   -0.011923    1.575671
     27          1           0        3.542394   -1.156464   -1.269273
     28          1           0        3.753939   -2.126375    0.188504
     29          1           0        1.335619    3.245827   -0.072903
     30          1           0       -1.130192    3.174608   -0.040012
 ---------------------------------------------------------------------

 SCF Done:  E(UB3LYP) =  -655.532459335     A.U. after   24 cycles

 The electronic state is 2-A.
 Alpha  occ. eigenvalues --  -18.92538 -10.07510 -10.05729 -10.04856 -10.04654
 Alpha  occ. eigenvalues --  -10.04245 -10.03434 -10.03359 -10.03252 -10.02770
 Alpha  occ. eigenvalues --  -10.02592 -10.02226 -10.01998 -10.01579 -10.01275
 Alpha  occ. eigenvalues --  -10.01212  -0.86598  -0.72867  -0.70194  -0.66919
 Alpha  occ. eigenvalues --   -0.63169  -0.61620  -0.59003  -0.57202  -0.54999
 Alpha  occ. eigenvalues --   -0.48429  -0.47907  -0.45930  -0.43755  -0.39497
 Alpha  occ. eigenvalues --   -0.37002  -0.35031  -0.34687  -0.32466  -0.31964
 Alpha  occ. eigenvalues --   -0.30764  -0.29878  -0.29576  -0.28986  -0.27876
 Alpha  occ. eigenvalues --   -0.25977  -0.25908  -0.25715  -0.25535  -0.23955
 Alpha  occ. eigenvalues --   -0.22881  -0.22354  -0.20412  -0.20069  -0.18843
 Alpha  occ. eigenvalues --   -0.18681  -0.17601  -0.13622  -0.09921  -0.08129
 Alpha  occ. eigenvalues --   -0.07949   0.03761
 Alpha virt. eigenvalues --    0.08061   0.08440   0.09661   0.10578   0.10656
 Alpha virt. eigenvalues --    0.11098   0.11167   0.12173   0.12188   0.12655
 Alpha virt. eigenvalues --    0.13016   0.13528   0.14144   0.14528   0.15492

  Beta  occ. eigenvalues --  -18.92160 -10.07265 -10.05725 -10.04845 -10.04670
  Beta  occ. eigenvalues --  -10.04290 -10.03455 -10.03455 -10.03202 -10.02525
  Beta  occ. eigenvalues --  -10.02430 -10.02083 -10.02022 -10.01443 -10.01234
  Beta  occ. eigenvalues --  -10.00806  -0.85897  -0.72613  -0.69962  -0.66757
  Beta  occ. eigenvalues --   -0.62919  -0.61327  -0.58692  -0.56941  -0.54751
  Beta  occ. eigenvalues --   -0.48182  -0.47584  -0.45611  -0.43514  -0.39210
  Beta  occ. eigenvalues --   -0.36784  -0.34887  -0.34495  -0.32338  -0.31775
  Beta  occ. eigenvalues --   -0.30743  -0.29768  -0.29345  -0.28633  -0.27787
  Beta  occ. eigenvalues --   -0.25744  -0.25685  -0.25579  -0.24868  -0.23726
  Beta  occ. eigenvalues --   -0.22549  -0.22209  -0.20262  -0.18971  -0.18624
  Beta  occ. eigenvalues --   -0.18420  -0.16559  -0.12517  -0.09174  -0.07698
  Beta  occ. eigenvalues --   -0.06522
  Beta virt. eigenvalues --    0.08048   0.08422   0.09440   0.09649   0.10566
  Beta virt. eigenvalues --    0.10703   0.11104   0.11200   0.12166   0.12608
  Beta virt. eigenvalues --    0.12767   0.13237   0.13887   0.14368   0.14505

 Mulliken charges and spin densities:
               1          2
     1  C   -0.336626   0.010180
     2  C    0.621322  -0.043707
     3  C   -0.543561   0.118575
     4  C    0.413834  -0.070675
     5  C    0.430758   0.046145
     6  C   -0.372513   0.007576
     7  C   -0.671407   0.099426
     8  C    0.372478   0.110951
     9  C    0.353406   0.213182
    10  C   -0.423172  -0.000900
    11  C   -0.265580   0.006504
    12  C   -0.175614  -0.009020
    13  C   -0.779939   0.131340
    14  O   -0.368953   0.142047
    15  C   -0.453043  -0.047837
    16  C   -0.405131   0.308694
    17  H    0.130303  -0.001105
    18  H    0.136863  -0.000278
    19  H    0.130160  -0.001178
    20  H    0.023267  -0.009657
    21  H    0.163271  -0.005684
    22  H    0.117099  -0.008959
    23  H    0.133430   0.008160
    24  H    0.108580   0.000979
    25  H    0.120741   0.001023
    26  H    0.106658   0.000012
    27  H    0.117841   0.014548
    28  H    0.149529   0.004014
    29  H    0.095120   0.000206
    30  H    0.070881  -0.024564
 Sum of Mulliken charges =  -1.00000   1.00000

 Dipole moment (field-independent basis, Debye):
    X=             -0.1306    Y=              2.9215    Z=              0.0854  Tot=              2.9257
 Quadrupole moment (field-independent basis, Debye-Ang):
   XX=           -118.3551   YY=           -120.2731   ZZ=           -104.3169
   XY=              5.0734   XZ=             -0.0864   YZ=             -0.1938

 Summary of Natural Population Analysis:

                                       Natural Population
                Natural  -----------------------------------------------
    Atom  No    Charge         Core      Valence    Rydberg      Total
 -----------------------------------------------------------------------
      C    1   -0.28733      0.99964     2.28314    0.00455     3.28733
      C    2   -0.04587      0.99952     2.03750    0.00885     3.04587
      C    3   -0.06041      0.99941     2.05220    0.00880     3.06041
      C    4   -0.06556      0.99956     2.05477    0.01123     3.06556
      C    5    0.04771      0.99949     1.94699    0.00582     2.95229
      C    6   -0.10161      0.99959     2.08919    0.01283     3.10161
      C    7   -0.08098      0.99953     2.07245    0.00901     3.08098
      C    8   -0.05820      0.99941     2.04642    0.01238     3.05820
      C    9    0.04459      0.99951     1.94617    0.00973     2.95541
      C   10   -0.19455      0.99961     2.18742    0.00752     3.19455
      C   11   -0.18344      0.99964     2.17684    0.00696     3.18344
      C   12   -0.22746      0.99961     2.21930    0.00854     3.22746
      C   13    0.30430      0.99963     1.67472    0.02136     2.69570
      O   14   -0.27982      0.99987     3.27111    0.00883     4.27982
      C   15   -0.12273      0.99953     2.11327    0.00994     3.12273
      C   16   -0.00737      0.99954     1.99846    0.00938     3.00737
      H   17    0.09534      0.00000     0.40350    0.00115     0.40466
      H   18    0.09521      0.00000     0.40388    0.00090     0.40479
      H   19    0.09535      0.00000     0.40350    0.00115     0.40465
      H   20    0.08540      0.00000     0.41277    0.00184     0.41460
      H   21    0.11977      0.00000     0.37819    0.00203     0.38023
      H   22    0.08634      0.00000     0.41242    0.00124     0.41366
      H   23    0.09606      0.00000     0.40251    0.00142     0.40394
      H   24    0.09441      0.00000     0.40419    0.00140     0.40559
      H   25    0.08680      0.00000     0.41166    0.00154     0.41320
      H   26    0.09230      0.00000     0.40630    0.00140     0.40770
      H   27    0.09798      0.00000     0.40067    0.00135     0.40202
      H   28    0.10164      0.00000     0.39677    0.00158     0.39836
      H   29    0.08648      0.00000     0.41170    0.00182     0.41352
      H   30    0.08571      0.00000     0.41344    0.00085     0.41429
 =======================================================================
   * Total *    0.00005     15.99308    39.83147    0.17540    55.99995

 Normal termination of Gaussian 16 at Fri Dec 11 00:52:15 2020.
