 Gaussian 16, Revision A.03,

 -----------------------------------------------------------
 # opt freq B3LYP/6-31G(d) empiricaldispersion=gd3bj scf=xqc
 -----------------------------------------------------------

 ------------------------------
 CID_53743369_JID_5460_neutraal
 ------------------------------
 Symbolic Z-matrix:
 Charge =  0 Multiplicity = 1

 SCF Done:  E(RB3LYP) =  -692.429458456     A.U. after   14 cycles
 SCF Done:  E(RB3LYP) =  -692.433380605     A.U. after   13 cycles
 SCF Done:  E(RB3LYP) =  -692.431564703     A.U. after   13 cycles
 SCF Done:  E(RB3LYP) =  -692.433693293     A.U. after   13 cycles
 SCF Done:  E(RB3LYP) =  -692.434412942     A.U. after   12 cycles
 SCF Done:  E(RB3LYP) =  -692.434558093     A.U. after   13 cycles
 SCF Done:  E(RB3LYP) =  -692.434496930     A.U. after   12 cycles
 SCF Done:  E(RB3LYP) =  -692.434606879     A.U. after   12 cycles
 SCF Done:  E(RB3LYP) =  -692.434656696     A.U. after   11 cycles
 SCF Done:  E(RB3LYP) =  -692.434667125     A.U. after   10 cycles
 SCF Done:  E(RB3LYP) =  -692.434680222     A.U. after    7 cycles
 SCF Done:  E(RB3LYP) =  -692.434680257     A.U. after    7 cycles
 SCF Done:  E(RB3LYP) =  -692.434680280     A.U. after    7 cycles
 SCF Done:  E(RB3LYP) =  -692.434680317     A.U. after    7 cycles
 SCF Done:  E(RB3LYP) =  -692.434680353     A.U. after    7 cycles
 SCF Done:  E(RB3LYP) =  -692.434680388     A.U. after    7 cycles
 Optimization completed.
    -- Stationary point found.
 Normal termination of Gaussian 16 at Thu Dec 10 16:17:04 2020.

 --------------------------------------------------------------------
 #N Geom=AllCheck Guess=TCheck SCRF=Check GenChk RB3LYP/6-31G(d) Freq
 --------------------------------------------------------------------

 Structure from the checkpoint file:  "JID_5460.chk"
 ------------------------------
 CID_53743369_JID_5460_neutraal
 ------------------------------
 Charge =  0 Multiplicity = 1

 SCF Done:  E(RB3LYP) =  -692.434680388     A.U. after    1 cycles

  Exact polarizability: 164.105  -3.039 117.815   6.824   0.445 119.286
 Approx polarizability: 200.614  -6.831 169.538  21.101  -7.824 185.614

                      1                      2                      3
                      A                      A                      A
 Frequencies --     18.2474                23.3458                44.1098
 Red. masses --      3.6613                 3.9471                 4.2235
 Frc consts  --      0.0007                 0.0013                 0.0048
 IR Inten    --      1.2330                 0.0517                 0.5746

                      4                      5                      6
                      A                      A                      A
 Frequencies --     51.8338                69.5838                76.9507
 Red. masses --      4.8969                 2.8665                 2.4161
 Frc consts  --      0.0078                 0.0082                 0.0084
 IR Inten    --      2.1779                 1.9230                 6.6386

                      7                      8                      9
                      A                      A                      A
 Frequencies --     83.6039                95.8694               127.2776
 Red. masses --      2.9282                 4.2929                 3.7763
 Frc consts  --      0.0121                 0.0232                 0.0360
 IR Inten    --      0.4855                 1.4103                 1.7738

                     10                     11                     12
                      A                      A                      A
 Frequencies --    161.6597               170.7745               194.4960
 Red. masses --      2.6701                 1.0783                 2.1896
 Frc consts  --      0.0411                 0.0185                 0.0488
 IR Inten    --      2.6729                 0.0120                 0.6799

                     13                     14                     15
                      A                      A                      A
 Frequencies --    224.8989               237.5133               251.2448
 Red. masses --      1.2909                 2.7580                 1.4002
 Frc consts  --      0.0385                 0.0917                 0.0521
 IR Inten    --      1.7454                 0.4153                 1.2670

                     16                     17                     18
                      A                      A                      A
 Frequencies --    284.6635               299.7132               330.0088
 Red. masses --      2.8059                 2.1221                 2.4179
 Frc consts  --      0.1340                 0.1123                 0.1551
 IR Inten    --      4.7975                 3.4620                 0.3674

                     19                     20                     21
                      A                      A                      A
 Frequencies --    344.2844               398.6093               428.5907
 Red. masses --      2.8259                 2.1766                 7.0773
 Frc consts  --      0.1974                 0.2038                 0.7660
 IR Inten    --      0.0441                 1.3146                 2.7397

                     22                     23                     24
                      A                      A                      A
 Frequencies --    456.1950               490.0810               515.3154
 Red. masses --      2.6387                 2.4562                 2.5323
 Frc consts  --      0.3235                 0.3476                 0.3962
 IR Inten    --      6.6042                 2.6328                 2.5124

                     25                     26                     27
                      A                      A                      A
 Frequencies --    544.1665               590.5770               604.6117
 Red. masses --      2.8622                 1.9604                 1.8100
 Frc consts  --      0.4994                 0.4029                 0.3898
 IR Inten    --      2.9198                42.7768                57.8764

                     28                     29                     30
                      A                      A                      A
 Frequencies --    642.3442               732.3831               736.0054
 Red. masses --      2.5087                 3.5510                 2.1997
 Frc consts  --      0.6099                 1.1222                 0.7021
 IR Inten    --      7.5406                27.9786                 3.5316

                     31                     32                     33
                      A                      A                      A
 Frequencies --    763.6284               795.0574               813.5632
 Red. masses --      1.7968                 1.5984                 2.3598
 Frc consts  --      0.6173                 0.5953                 0.9203
 IR Inten    --      9.9440                54.6760                 6.4957

                     34                     35                     36
                      A                      A                      A
 Frequencies --    820.2552               836.3018               902.8737
 Red. masses --      1.3669                 1.8549                 1.9299
 Frc consts  --      0.5418                 0.7644                 0.9269
 IR Inten    --      5.3267                13.3826                 2.8421

                     37                     38                     39
                      A                      A                      A
 Frequencies --    931.3071               972.2302               984.7601
 Red. masses --      1.8518                 1.7583                 1.8350
 Frc consts  --      0.9463                 0.9792                 1.0484
 IR Inten    --     11.5950                 6.1817                 3.0569

                     40                     41                     42
                      A                      A                      A
 Frequencies --   1002.4321              1029.0723              1040.7451
 Red. masses --      2.1884                 1.7158                 1.6522
 Frc consts  --      1.2957                 1.0706                 1.0544
 IR Inten    --      3.1894                 4.1404                 3.4095

                     43                     44                     45
                      A                      A                      A
 Frequencies --   1050.4729              1092.6220              1099.0368
 Red. masses --      2.0471                 1.8766                 1.6331
 Frc consts  --      1.3310                 1.3200                 1.1622
 IR Inten    --      9.1990                16.9921                30.6735

                     46                     47                     48
                      A                      A                      A
 Frequencies --   1102.8535              1118.2961              1144.1711
 Red. masses --      1.5601                 2.2983                 1.8889
 Frc consts  --      1.1180                 1.6934                 1.4570
 IR Inten    --      3.6938                 2.8029                 3.0071

                     49                     50                     51
                      A                      A                      A
 Frequencies --   1153.5149              1173.5784              1200.3052
 Red. masses --      2.2442                 1.6177                 2.4176
 Frc consts  --      1.7594                 1.3127                 2.0522
 IR Inten    --     22.0138                30.4920                34.0300

                     52                     53                     54
                      A                      A                      A
 Frequencies --   1227.0458              1227.3194              1269.8029
 Red. masses --      1.4279                 2.4556                 1.4201
 Frc consts  --      1.2667                 2.1793                 1.3491
 IR Inten    --      4.8225                39.0570                 2.5915

                     55                     56                     57
                      A                      A                      A
 Frequencies --   1276.8932              1282.9856              1321.8604
 Red. masses --      1.3419                 1.4600                 1.2646
 Frc consts  --      1.2891                 1.4159                 1.3019
 IR Inten    --     33.3027                12.6509                 4.8453

                     58                     59                     60
                      A                      A                      A
 Frequencies --   1340.4171              1347.6713              1357.1132
 Red. masses --      1.2878                 1.3244                 1.2601
 Frc consts  --      1.3633                 1.4172                 1.3673
 IR Inten    --     12.8800                15.0669                 1.2947

                     61                     62                     63
                      A                      A                      A
 Frequencies --   1385.2594              1399.2195              1406.3868
 Red. masses --      1.4372                 1.7842                 1.6823
 Frc consts  --      1.6249                 2.0581                 1.9605
 IR Inten    --     51.7417                53.1803                40.8132

                     64                     65                     66
                      A                      A                      A
 Frequencies --   1412.4659              1417.6211              1433.6626
 Red. masses --      1.3146                 1.4423                 1.3457
 Frc consts  --      1.5452                 1.7078                 1.6297
 IR Inten    --     37.8652                19.0004                 2.9836

                     67                     68                     69
                      A                      A                      A
 Frequencies --   1439.9989              1484.6310              1485.2396
 Red. masses --      1.2563                 1.1724                 1.0764
 Frc consts  --      1.5349                 1.5225                 1.3990
 IR Inten    --     15.7405                 4.3236                 3.7815

                     70                     71                     72
                      A                      A                      A
 Frequencies --   1495.2485              1499.2824              1503.6583
 Red. masses --      1.5175                 1.1081                 1.1898
 Frc consts  --      1.9990                 1.4676                 1.5850
 IR Inten    --     74.2143                11.7234                23.6865

                     73                     74                     75
                      A                      A                      A
 Frequencies --   1511.5219              1513.5957              1520.3181
 Red. masses --      1.0867                 1.1073                 1.0599
 Frc consts  --      1.4629                 1.4946                 1.4434
 IR Inten    --      8.1964                15.9286                 3.2167

                     76                     77                     78
                      A                      A                      A
 Frequencies --   1520.5883              1529.0291              1538.7869
 Red. masses --      1.0602                 1.0609                 1.0805
 Frc consts  --      1.4443                 1.4613                 1.5074
 IR Inten    --     10.8602                 4.0773                18.5454

                     79                     80                     81
                      A                      A                      A
 Frequencies --   1541.5838              1551.5737              1555.2801
 Red. masses --      1.0599                 1.0928                 1.0730
 Frc consts  --      1.4840                 1.5500                 1.5292
 IR Inten    --     14.5124                11.8052                 3.6726

                     82                     83                     84
                      A                      A                      A
 Frequencies --   1790.7374              1806.8022              2957.4828
 Red. masses --      8.0114                10.8825                 1.0601
 Frc consts  --     15.1364                20.9316                 5.4629
 IR Inten    --    412.0567               109.5867                88.3580

                     85                     86                     87
                      A                      A                      A
 Frequencies --   2995.9198              3035.4107              3042.2860
 Red. masses --      1.0689                 1.0666                 1.0656
 Frc consts  --      5.6525                 5.7903                 5.8110
 IR Inten    --     33.2400                22.2517                26.7227

                     88                     89                     90
                      A                      A                      A
 Frequencies --   3056.6959              3059.7747              3060.5731
 Red. masses --      1.0356                 1.0819                 1.0472
 Frc consts  --      5.7011                 5.9681                 5.7794
 IR Inten    --     19.2452                33.5880                 1.8044

                     91                     92                     93
                      A                      A                      A
 Frequencies --   3061.9869              3064.8467              3073.3025
 Red. masses --      1.0690                 1.0693                 1.0752
 Frc consts  --      5.9051                 5.9176                 5.9837
 IR Inten    --      8.4355                26.5911                52.6544

                     94                     95                     96
                      A                      A                      A
 Frequencies --   3074.3062              3087.0572              3088.8870
 Red. masses --      1.0887                 1.0938                 1.0844
 Frc consts  --      6.0624                 6.1414                 6.0962
 IR Inten    --     44.2880                65.2325                12.4602

                     97                     98                     99
                      A                      A                      A
 Frequencies --   3116.4178              3116.8211              3118.7155
 Red. masses --      1.0997                 1.0995                 1.0984
 Frc consts  --      6.2928                 6.2932                 6.2945
 IR Inten    --     12.3793                17.4428                14.7591

                    100                    101                    102
                      A                      A                      A
 Frequencies --   3118.8328              3133.8471              3140.3241
 Red. masses --      1.1016                 1.1004                 1.1023
 Frc consts  --      6.3134                 6.3675                 6.4046
 IR Inten    --     28.9955                24.5335                34.5057

                    103                    104                    105
                      A                      A                      A
 Frequencies --   3173.9185              3489.9836              3597.3395
 Red. masses --      1.1035                 1.0734                 1.0749
 Frc consts  --      6.5496                 7.7026                 8.1959
 IR Inten    --     10.2664                 2.1512                16.7975

 - Thermochemistry -
 -------------------
 Temperature   298.150 Kelvin.  Pressure   1.00000 Atm.
 Atom     1 has atomic number  6 and mass  12.00000

 Molecular mass:   214.16813 amu.
 Principal axes and moments of inertia in atomic units:
                           1         2         3
     Eigenvalues --  1635.013996764.015767041.73946
           X            0.99993   0.00486  -0.01120
           Y           -0.00303   0.98742   0.15807
           Z            0.01183  -0.15803   0.98736
 This molecule is an asymmetric top.
 Rotational symmetry number  1.
 Warning -- assumption of classical behavior for rotation
           may cause significant error
 Rotational temperatures (Kelvin)      0.05297     0.01281     0.01230
 Rotational constants (GHZ):           1.10381     0.26682     0.25629
 Zero-point vibrational energy     869172.9 (Joules/Mol)
                                  207.73731 (Kcal/Mol)
 Warning -- explicit consideration of  27 degrees of freedom as
           vibrations may cause significant error
 Vibrational temperatures:     26.25    33.59    63.46    74.58   100.12
          (Kelvin)            110.71   120.29   137.93   183.12   232.59
                              245.71   279.84   323.58   341.73   361.49
                              409.57   431.22   474.81   495.35   573.51
                              616.65   656.36   705.12   741.42   782.93
                              849.71   869.90   924.19  1053.74  1058.95
                             1098.69  1143.91  1170.54  1180.16  1203.25
                             1299.03  1339.94  1398.82  1416.85  1442.28
                             1480.61  1497.40  1511.40  1572.04  1581.27
                             1586.76  1608.98  1646.21  1659.65  1688.52
                             1726.97  1765.45  1765.84  1826.96  1837.16
                             1845.93  1901.86  1928.56  1939.00  1952.58
                             1993.08  2013.16  2023.48  2032.22  2039.64
                             2062.72  2071.84  2136.05  2136.93  2151.33
                             2157.13  2163.43  2174.74  2177.73  2187.40
                             2187.79  2199.93  2213.97  2218.00  2232.37
                             2237.70  2576.47  2599.59  4255.16  4310.46
                             4367.28  4377.17  4397.90  4402.33  4403.48
                             4405.52  4409.63  4421.80  4423.24  4441.59
                             4444.22  4483.83  4484.41  4487.14  4487.30
                             4508.91  4518.23  4566.56  5021.31  5175.77

 Zero-point correction=                           0.331050 (Hartree/Particle)
 Thermal correction to Energy=                    0.349292
 Thermal correction to Enthalpy=                  0.350236
 Thermal correction to Gibbs Free Energy=         0.282204
 Sum of electronic and zero-point Energies=           -692.103630
 Sum of electronic and thermal Energies=              -692.085389
 Sum of electronic and thermal Enthalpies=            -692.084444
 Sum of electronic and thermal Free Energies=         -692.152477

                     E (Thermal)             CV                S
                      KCal/Mol        Cal/Mol-Kelvin    Cal/Mol-Kelvin
 Total                  219.184             65.108            143.186
 Electronic               0.000              0.000              0.000
 Translational            0.889              2.981             41.988
 Rotational               0.889              2.981             32.721
 Vibrational            217.406             59.146             68.477
 Vibration     1          0.593              1.986              6.816
 Vibration     2          0.593              1.985              6.327
 Vibration     3          0.595              1.980              5.065
 Vibration     4          0.596              1.977              4.746
 Vibration     5          0.598              1.969              4.165
 Vibration     6          0.599              1.965              3.967
 Vibration     7          0.600              1.960              3.804
 Vibration     8          0.603              1.952              3.537
 Vibration     9          0.611              1.926              2.987
 Vibration    10          0.622              1.889              2.530
 Vibration    11          0.626              1.878              2.427
 Vibration    12          0.635              1.848              2.185
 Vibration    13          0.650              1.803              1.919
 Vibration    14          0.656              1.783              1.821
 Vibration    15          0.663              1.761              1.722
 Vibration    16          0.683              1.702              1.505
 Vibration    17          0.692              1.674              1.419
 Vibration    18          0.713              1.616              1.260
 Vibration    19          0.723              1.587              1.192
 Vibration    20          0.765              1.473              0.968
 Vibration    21          0.790              1.408              0.863
 Vibration    22          0.814              1.347              0.777
 Vibration    23          0.846              1.272              0.683
 Vibration    24          0.870              1.216              0.621
 Vibration    25          0.899              1.152              0.556
 Vibration    26          0.948              1.052              0.466
 Vibration    27          0.963              1.022              0.442

                           ! Non-Optimized Parameters !
 Normal termination of Gaussian 16 at Thu Dec 10 16:28:52 2020.

 ----------------------------------------------------------------------
 # B3LYP/6-311++G(d,p) empiricaldispersion=gd3bj scf=xqc pop=npa geom=c
 heck
 ----------------------------------------------------------------------

 --------------------------------------
 CID_53743369_JID_5460_Energie_neutraal
 --------------------------------------
 Structure from the checkpoint file:  "JID_5460.chk"
 Charge =  0 Multiplicity = 1

 SCF Done:  E(RB3LYP) =  -692.645157471     A.U. after   15 cycles
 Normal termination of Gaussian 16 at Thu Dec 10 16:34:09 2020.

 ----------------------------------------------------------------------
 # B3LYP/6-311++G(d,p) empiricaldispersion=gd3bj scf=xqc pop=npa geom=c
 heck
 ----------------------------------------------------------------------

 ------------------------------------
 CID_53743369_JID_5460_Energie_kation
 ------------------------------------
 Structure from the checkpoint file:  "JID_5460.chk"
 Charge =  1 Multiplicity = 2

 SCF Done:  E(UB3LYP) =  -692.343460820     A.U. after   29 cycles
 Normal termination of Gaussian 16 at Thu Dec 10 16:51:21 2020.
 Gaussian 16:  ES64L-G16RevA.03 25-Dec-2016

 ----------------------------------------------------------------------
 # B3LYP/6-311++G(d,p) empiricaldispersion=gd3bj scf=xqc pop=npa geom=c
 heck
 ----------------------------------------------------------------------

 -----------------------------------
 CID_53743369_JID_5460_Energie_anion
 -----------------------------------
 Structure from the checkpoint file:  "JID_5460.chk"
 Charge = -1 Multiplicity = 2

                         Standard orientation:
 ---------------------------------------------------------------------
 Center     Atomic      Atomic             Coordinates (Angstroms)
 Number     Number       Type             X           Y           Z
 ---------------------------------------------------------------------
      1          6           0        3.957439   -0.928122   -1.602588
      2          6           0        3.734153    0.199874   -0.581322
      3          6           0        2.984485   -0.308320    0.643810
      4          8           0        3.573417   -0.667105    1.655350
      5          7           0        1.616414   -0.412454    0.558761
      6          6           0        0.725200    0.041387   -0.491817
      7          6           0       -0.405325   -0.974466   -0.772544
      8          6           0       -1.178349   -1.479289    0.455386
      9          6           0       -1.989438   -0.433980    1.236285
     10          6           0       -3.125662    0.228429    0.449808
     11          7           0       -4.086417   -0.759657   -0.041758
     12          6           0       -5.256805   -0.138157   -0.652637
     13          6           0        0.189879    1.478537   -0.289702
     14          8           0       -0.642737    1.915971   -1.061496
     15          6           0        0.775686    2.318483    0.824387
     16          1           0        4.479609   -1.765607   -1.129656
     17          1           0        4.563920   -0.574980   -2.442568
     18          1           0        3.011043   -1.307237   -2.004227
     19          1           0        4.696661    0.563260   -0.213916
     20          1           0        3.219880    1.044672   -1.053893
     21          1           0        1.199417   -0.776152    1.406732
     22          1           0        1.307487    0.110007   -1.416360
     23          1           0       -1.083491   -0.501771   -1.489666
     24          1           0        0.047420   -1.837848   -1.273328
     25          1           0       -1.857011   -2.274683    0.123503
     26          1           0       -0.484526   -1.981695    1.142706
     27          1           0       -2.423549   -0.927895    2.113474
     28          1           0       -1.325770    0.353265    1.620232
     29          1           0       -3.667279    0.899243    1.129122
     30          1           0       -2.718791    0.865141   -0.353539
     31          1           0       -3.629751   -1.337055   -0.745229
     32          1           0       -5.020899    0.588426   -1.452371
     33          1           0       -5.905871   -0.913568   -1.072605
     34          1           0       -5.826847    0.393733    0.118170
     35          1           0        0.293619    3.297307    0.826393
     36          1           0        0.644903    1.831619    1.796686
     37          1           0        1.856829    2.439413    0.686093
 ---------------------------------------------------------------------

 SCF Done:  E(UB3LYP) =  -692.640275887     A.U. after   32 cycles

 The electronic state is 2-A.
 Alpha  occ. eigenvalues --  -18.98514 -18.98331 -14.23216 -14.20436 -10.17010
 Alpha  occ. eigenvalues --  -10.12388 -10.10911 -10.09866 -10.08987 -10.07823
 Alpha  occ. eigenvalues --  -10.07239 -10.07079 -10.06685 -10.06658 -10.06586
 Alpha  occ. eigenvalues --   -0.93691  -0.92116  -0.82343  -0.81123  -0.70241
 Alpha  occ. eigenvalues --   -0.67782  -0.65277  -0.63476  -0.59748  -0.56298
 Alpha  occ. eigenvalues --   -0.55317  -0.52369  -0.48081  -0.46608  -0.44020
 Alpha  occ. eigenvalues --   -0.40122  -0.39616  -0.37910  -0.37262  -0.36358
 Alpha  occ. eigenvalues --   -0.35174  -0.34017  -0.33705  -0.33167  -0.33000
 Alpha  occ. eigenvalues --   -0.31913  -0.31301  -0.30425  -0.29974  -0.28867
 Alpha  occ. eigenvalues --   -0.28453  -0.27331  -0.27005  -0.26509  -0.25711
 Alpha  occ. eigenvalues --   -0.25397  -0.24483  -0.23131  -0.22606  -0.22231
 Alpha  occ. eigenvalues --   -0.17489  -0.15488  -0.13605  -0.12367   0.04300
 Alpha virt. eigenvalues --    0.06227   0.07270   0.07520   0.07697   0.08629
 Alpha virt. eigenvalues --    0.09176   0.09817   0.10414   0.10508   0.10758
 Alpha virt. eigenvalues --    0.11244   0.11609   0.12092   0.12253   0.12566

  Beta  occ. eigenvalues --  -18.98505 -18.98109 -14.23202 -14.20422 -10.17001
  Beta  occ. eigenvalues --  -10.12070 -10.10934 -10.09854 -10.08987 -10.07809
  Beta  occ. eigenvalues --  -10.07227 -10.07070 -10.06680 -10.06643 -10.06531
  Beta  occ. eigenvalues --   -0.93669  -0.91653  -0.82304  -0.81104  -0.70197
  Beta  occ. eigenvalues --   -0.67734  -0.65137  -0.63306  -0.59705  -0.56245
  Beta  occ. eigenvalues --   -0.55224  -0.52289  -0.48016  -0.46504  -0.43650
  Beta  occ. eigenvalues --   -0.40086  -0.39491  -0.37730  -0.37205  -0.36258
  Beta  occ. eigenvalues --   -0.35108  -0.33964  -0.33661  -0.33006  -0.32738
  Beta  occ. eigenvalues --   -0.31803  -0.31158  -0.30378  -0.29836  -0.28811
  Beta  occ. eigenvalues --   -0.28363  -0.27202  -0.26960  -0.26418  -0.25642
  Beta  occ. eigenvalues --   -0.25351  -0.24038  -0.23096  -0.22547  -0.21603
  Beta  occ. eigenvalues --   -0.17379  -0.15472  -0.13581  -0.12199
  Beta virt. eigenvalues --    0.06331   0.07138   0.07634   0.07935   0.08743
  Beta virt. eigenvalues --    0.09480   0.09715   0.10058   0.10506   0.10628
  Beta virt. eigenvalues --    0.11020   0.11465   0.11881   0.12256   0.12402

 Mulliken charges and spin densities:
               1          2
     1  C    1.005694  -1.455095
     2  C   -1.033254   0.855260
     3  C    0.399465  -0.393430
     4  O   -0.332177   0.005555
     5  N   -0.161575   0.066875
     6  C   -0.761411   0.846414
     7  C    1.574564  -1.913718
     8  C   -0.265018  -0.157476
     9  C    0.001681  -0.117983
    10  C   -0.504611  -0.136564
    11  N   -0.109140   0.037542
    12  C   -0.008217  -0.313832
    13  C   -0.347605   0.281577
    14  O   -0.275267   0.079554
    15  C   -0.174307  -0.387588
    16  H    0.014510   0.130235
    17  H   -0.475407   0.620722
    18  H   -0.248479   0.401717
    19  H   -0.076081   0.277479
    20  H    0.083013   0.068668
    21  H    0.404120  -0.099556
    22  H   -0.214897   0.479928
    23  H   -0.127921   0.330937
    24  H   -0.231236   0.413021
    25  H   -0.070760   0.235509
    26  H    0.031442   0.093161
    27  H    0.099863   0.087652
    28  H   -0.004759   0.093493
    29  H    0.141015  -0.011799
    30  H    0.217455  -0.020554
    31  H    0.151355   0.047863
    32  H    0.055854   0.066230
    33  H   -0.103574   0.226679
    34  H    0.035028   0.086768
    35  H    0.120530   0.048572
    36  H    0.174080  -0.030178
    37  H    0.016030   0.156360
 Sum of Mulliken charges =  -1.00000   1.00000

 Dipole moment (field-independent basis, Debye):
    X=             -3.7723    Y=              1.6794    Z=              3.9679  Tot=              5.7266
 Quadrupole moment (field-independent basis, Debye-Ang):
   XX=           -174.6278   YY=           -127.0150   ZZ=           -133.3267
   XY=              0.2483   XZ=              0.3671   YZ=              2.4956

 Summary of Natural Population Analysis:

                                       Natural Population
                Natural  -----------------------------------------------
    Atom  No    Charge         Core      Valence    Rydberg      Total
 -----------------------------------------------------------------------
      C    1   -0.28163      0.99966     2.27685    0.00513     3.28163
      C    2   -0.23518      0.99960     2.22735    0.00823     3.23518
      C    3    0.34836      0.99967     1.62908    0.02289     2.65164
      O    4   -0.32989      0.99988     3.32432    0.00570     4.32989
      N    5   -0.32148      0.99966     2.81235    0.00947     3.82148
      C    6   -0.06089      0.99953     2.04672    0.01463     3.06089
      C    7   -0.19046      0.99960     2.17966    0.01119     3.19046
      C    8   -0.19508      0.99962     2.18652    0.00894     3.19508
      C    9   -0.19345      0.99962     2.18532    0.00851     3.19345
      C   10   -0.09470      0.99962     2.08323    0.01185     3.09470
      N   11   -0.33999      0.99975     2.82933    0.01090     3.83999
      C   12   -0.17608      0.99967     2.16968    0.00673     3.17608
      C   13    0.32350      0.99966     1.65513    0.02171     2.67650
      O   14   -0.28062      0.99987     3.27396    0.00679     4.28062
      C   15   -0.33714      0.99962     2.33262    0.00489     3.33714
      H   16    0.09942      0.00000     0.39955    0.00103     0.40058
      H   17    0.10119      0.00000     0.39735    0.00146     0.39881
      H   18    0.10189      0.00000     0.39669    0.00142     0.39811
      H   19    0.10865      0.00000     0.39030    0.00106     0.39135
      H   20    0.10279      0.00000     0.39560    0.00162     0.39721
      H   21    0.19176      0.00000     0.30567    0.00257     0.30824
      H   22    0.12242      0.00000     0.37457    0.00301     0.37758
      H   23    0.10972      0.00000     0.38887    0.00141     0.39028
      H   24    0.10309      0.00000     0.39522    0.00168     0.39691
      H   25    0.10008      0.00000     0.39861    0.00131     0.39992
      H   26    0.09305      0.00000     0.40564    0.00131     0.40695
      H   27    0.09788      0.00000     0.40106    0.00107     0.40212
      H   28    0.09616      0.00000     0.40280    0.00104     0.40384
      H   29    0.08718      0.00000     0.41177    0.00104     0.41282
      H   30    0.09705      0.00000     0.40149    0.00146     0.40295
      H   31    0.17052      0.00000     0.32576    0.00372     0.32948
      H   32    0.07905      0.00000     0.41920    0.00175     0.42095
      H   33    0.09222      0.00000     0.40682    0.00096     0.40778
      H   34    0.08711      0.00000     0.41158    0.00131     0.41289
      H   35    0.10632      0.00000     0.39277    0.00091     0.39368
      H   36    0.10652      0.00000     0.39270    0.00078     0.39348
      H   37    0.11066      0.00000     0.38822    0.00113     0.38934
 =======================================================================
   * Total *   -0.00000     14.99503    43.81439    0.19058    59.00000

 Normal termination of Gaussian 16 at Thu Dec 10 17:12:02 2020.
