 Gaussian 16, Revision A.03,

 ----------------------------------------------------------------------
 # opt=(cartesian,calcfc,maxcycle=500) freq B3LYP/6-31G(d) empiricaldis
 persion=gd3bj scf=xqc
 ----------------------------------------------------------------------

 -------------------------------
 CID_106010684_JID_1441_neutraal
 -------------------------------
 Symbolic Z-matrix:
 Charge =  0 Multiplicity = 1

 SCF Done:  E(RB3LYP) =  -462.112938353     A.U. after   14 cycles
 SCF Done:  E(RB3LYP) =  -462.115091616     A.U. after   11 cycles
 SCF Done:  E(RB3LYP) =  -462.117207049     A.U. after   12 cycles
 SCF Done:  E(RB3LYP) =  -462.117297860     A.U. after   12 cycles
 SCF Done:  E(RB3LYP) =  -462.117577033     A.U. after   11 cycles
 SCF Done:  E(RB3LYP) =  -462.117525343     A.U. after   12 cycles
 SCF Done:  E(RB3LYP) =  -462.117757268     A.U. after   10 cycles
 SCF Done:  E(RB3LYP) =  -462.117800627     A.U. after   11 cycles
 SCF Done:  E(RB3LYP) =  -462.117856753     A.U. after   11 cycles
 SCF Done:  E(RB3LYP) =  -462.117818705     A.U. after   11 cycles
 SCF Done:  E(RB3LYP) =  -462.117968377     A.U. after    8 cycles
 SCF Done:  E(RB3LYP) =  -462.117968486     A.U. after    6 cycles
 SCF Done:  E(RB3LYP) =  -462.117968481     A.U. after    7 cycles
 SCF Done:  E(RB3LYP) =  -462.117968354     A.U. after    8 cycles
 SCF Done:  E(RB3LYP) =  -462.117968486     A.U. after    6 cycles
 SCF Done:  E(RB3LYP) =  -462.117968487     A.U. after    7 cycles
 Optimization completed.
    -- Stationary point found.

 1\1\GINC-NODE365\FOpt\RB3LYP\6-31G(d)\C9H16N2\VSC10255\27-Feb-2021\0\\
 # opt=(cartesian,calcfc,maxcycle=500) freq B3LYP/6-31G(d) empiricaldis
 persion=gd3bj scf=xqc\\CID_106010684_JID_1441_neutraal\\0,1\N,-2.62612
 83585,-0.2231629777,0.5348086798\N,-4.9126924433,0.8023961268,0.435274
 6689\C,1.6844468668,-0.1152154051,-0.5140259331\C,2.5120142869,1.17480
 71606,-0.6380062271\C,2.168586809,-0.7166694669,0.8276881536\C,3.90535
 32764,0.7527153387,-0.152392766\C,3.6258902655,-0.2092613089,1.0296426
 987\C,0.1733732457,0.0986470409,-0.6064349604\C,-0.6346257203,-1.20124

 Normal termination of Gaussian 16 at Sat Feb 27 18:50:33 2021.

 --------------------------------------------------------------------
 #N Geom=AllCheck Guess=TCheck SCRF=Check GenChk RB3LYP/6-31G(d) Freq
 --------------------------------------------------------------------

 Structure from the checkpoint file:  "JID_1441.chk"
 -------------------------------
 CID_106010684_JID_1441_neutraal
 -------------------------------
 Charge =  0 Multiplicity = 1

 SCF Done:  E(RB3LYP) =  -462.117968487     A.U. after    1 cycles

  Exact polarizability: 129.096  -7.869  90.286  -0.261   0.306  86.806
 Approx polarizability: 159.535 -19.700 132.320  -2.248   1.781 128.547

                      1                      2                      3
                      A                      A                      A
 Frequencies --     23.2452                35.6913                46.5628
 Red. masses --      2.6699                 5.6842                 2.0824
 Frc consts  --      0.0008                 0.0043                 0.0027
 IR Inten    --      1.4680                 7.4530                 0.7705

                      4                      5                      6
                      A                      A                      A
 Frequencies --     77.4792               119.1597               151.5844
 Red. masses --      2.7614                 3.6656                 2.5563
 Frc consts  --      0.0098                 0.0307                 0.0346
 IR Inten    --      2.9417                 2.4832                 1.1836

                      7                      8                      9
                      A                      A                      A
 Frequencies --    177.9278               226.7002               256.9277
 Red. masses --      4.0167                 1.8587                 2.5970
 Frc consts  --      0.0749                 0.0563                 0.1010
 IR Inten    --      5.3496                 0.8168                 0.4128

                     10                     11                     12
                      A                      A                      A
 Frequencies --    358.2898               395.4769               432.9252
 Red. masses --      2.6906                 2.7663                 1.9273
 Frc consts  --      0.2035                 0.2549                 0.2128
 IR Inten    --      2.2157                 9.8284                33.3175

                     13                     14                     15
                      A                      A                      A
 Frequencies --    478.7627               531.1414               585.9567
 Red. masses --      2.2301                 6.9705                 1.9250
 Frc consts  --      0.3012                 1.1586                 0.3894
 IR Inten    --     19.5861                34.7466                11.4201

                     16                     17                     18
                      A                      A                      A
 Frequencies --    617.7103               634.7549               772.8613
 Red. masses --      2.5746                 3.4163                 1.2542
 Frc consts  --      0.5788                 0.8110                 0.4414
 IR Inten    --     20.7936                 9.9796                 2.6376

                     19                     20                     21
                      A                      A                      A
 Frequencies --    784.3956               838.5380               864.1586
 Red. masses --      1.1892                 2.0297                 2.2086
 Frc consts  --      0.4311                 0.8409                 0.9718
 IR Inten    --      1.4475                 0.1735                 0.3638

                     22                     23                     24
                      A                      A                      A
 Frequencies --    890.6211               903.9441               918.6737
 Red. masses --      2.2395                 2.4974                 1.7421
 Frc consts  --      1.0466                 1.2023                 0.8663
 IR Inten    --      0.1192                 0.3193                 0.9611

                     25                     26                     27
                      A                      A                      A
 Frequencies --    956.6342               977.8148              1007.8452
 Red. masses --      1.9655                 1.6544                 1.3496
 Frc consts  --      1.0598                 0.9320                 0.8077
 IR Inten    --      1.5641                 2.2210                 1.2996

                     28                     29                     30
                      A                      A                      A
 Frequencies --   1042.0553              1048.6024              1057.6731
 Red. masses --      2.9104                 2.4596                 1.5529
 Frc consts  --      1.8620                 1.5935                 1.0235
 IR Inten    --      1.1050                 0.0395                 1.7985

                     31                     32                     33
                      A                      A                      A
 Frequencies --   1083.0218              1120.7732              1141.8292
 Red. masses --      2.2434                 2.2288                 2.4141
 Frc consts  --      1.5503                 1.6495                 1.8544
 IR Inten    --      1.3525                 0.2951                12.4841

                     34                     35                     36
                      A                      A                      A
 Frequencies --   1176.7222              1198.5061              1220.9407
 Red. masses --      3.5113                 1.6063                 1.3961
 Frc consts  --      2.8646                 1.3595                 1.2261
 IR Inten    --     43.9352                 3.7278                 2.7882

                     37                     38                     39
                      A                      A                      A
 Frequencies --   1227.3774              1251.1189              1274.0215
 Red. masses --      1.4215                 1.3191                 1.3036
 Frc consts  --      1.2617                 1.2165                 1.2467
 IR Inten    --      1.3165                 6.6328                 1.1909

                     40                     41                     42
                      A                      A                      A
 Frequencies --   1300.1671              1303.9110              1328.3792
 Red. masses --      1.2076                 1.2892                 1.2078
 Frc consts  --      1.2027                 1.2914                 1.2557
 IR Inten    --      1.7066                 0.9106                 5.3403

                     43                     44                     45
                      A                      A                      A
 Frequencies --   1334.9740              1343.5759              1361.8500
 Red. masses --      1.2572                 1.2271                 1.2913
 Frc consts  --      1.3200                 1.3051                 1.4110
 IR Inten    --      2.7266                 0.8068                 0.4473

                     46                     47                     48
                      A                      A                      A
 Frequencies --   1363.2828              1379.1013              1404.4823
 Red. masses --      1.3062                 1.3696                 1.3197
 Frc consts  --      1.4303                 1.5348                 1.5338
 IR Inten    --      0.4567                 4.3385                13.3485

                     49                     50                     51
                      A                      A                      A
 Frequencies --   1408.2345              1430.7556              1482.4567
 Red. masses --      1.4721                 1.6433                 1.3209
 Frc consts  --      1.7200                 1.9820                 1.7104
 IR Inten    --      2.1734                 2.9141                48.8449

                     52                     53                     54
                      A                      A                      A
 Frequencies --   1514.1813              1516.6889              1522.1157
 Red. masses --      1.0949                 1.0784                 1.0934
 Frc consts  --      1.4791                 1.4616                 1.4925
 IR Inten    --      2.2545                 0.8744                 1.7202

                     55                     56                     57
                      A                      A                      A
 Frequencies --   1525.9384              1530.6006              1537.6365
 Red. masses --      1.0917                 1.0950                 1.0821
 Frc consts  --      1.4978                 1.5115                 1.5074
 IR Inten    --      1.9871                 3.9143                11.7233

                     58                     59                     60
                      A                      A                      A
 Frequencies --   1549.4987              2349.2865              2999.8367
 Red. masses --      1.1037                12.3101                 1.0827
 Frc consts  --      1.5613                40.0297                 5.7406
 IR Inten    --      0.7227               161.5456                13.7840

                     61                     62                     63
                      A                      A                      A
 Frequencies --   3023.0259              3028.9417              3031.3812
 Red. masses --      1.0651                 1.0660                 1.0687
 Frc consts  --      5.7350                 5.7620                 5.7861
 IR Inten    --     10.4896                24.9401                 7.8590

                     64                     65                     66
                      A                      A                      A
 Frequencies --   3036.2639              3039.6986              3049.2904
 Red. masses --      1.0645                 1.0678                 1.0656
 Frc consts  --      5.7819                 5.8130                 5.8376
 IR Inten    --     78.0482                36.3268                33.9551

                     67                     68                     69
                      A                      A                      A
 Frequencies --   3061.5212              3067.6859              3082.3655
 Red. masses --      1.0957                 1.0640                 1.1013
 Frc consts  --      6.0506                 5.8994                 6.1651
 IR Inten    --      2.0281                41.2794                45.6798

                     70                     71                     72
                      A                      A                      A
 Frequencies --   3087.4554              3095.6864              3101.1642
 Red. masses --      1.0976                 1.0975                 1.0984
 Frc consts  --      6.1642                 6.1965                 6.2240
 IR Inten    --     26.7579                42.5465                18.4624

                     73                     74                     75
                      A                      A                      A
 Frequencies --   3110.9699              3115.1786              3549.2452
 Red. masses --      1.0961                 1.1052                 1.0744
 Frc consts  --      6.2503                 6.3189                 7.9745
 IR Inten    --     26.3327                85.5003                17.9244

 - Thermochemistry -
 -------------------
 Temperature   298.150 Kelvin.  Pressure   1.00000 Atm.
 Atom     1 has atomic number  7 and mass  14.00307

 Molecular mass:   152.13135 amu.
 Principal axes and moments of inertia in atomic units:
                           1         2         3
     Eigenvalues --   607.209394892.910794967.30402
           X            0.99991   0.01109   0.00759
           Y           -0.01040   0.99630  -0.08532
           Z           -0.00851   0.08524   0.99632
 This molecule is an asymmetric top.
 Rotational symmetry number  1.
 Warning -- assumption of classical behavior for rotation
           may cause significant error
 Rotational temperatures (Kelvin)      0.14264     0.01770     0.01744
 Rotational constants (GHZ):           2.97219     0.36885     0.36332
 Zero-point vibrational energy     639256.0 (Joules/Mol)
                                  152.78584 (Kcal/Mol)
 Warning -- explicit consideration of  16 degrees of freedom as
           vibrations may cause significant error
 Vibrational temperatures:     33.44    51.35    66.99   111.48   171.44
          (Kelvin)            218.10   256.00   326.17   369.66   515.50
                              569.00   622.88   688.83   764.19   843.06
                              888.75   913.27  1111.98  1128.57  1206.47
                             1243.33  1281.41  1300.57  1321.77  1376.38
                             1406.86  1450.06  1499.29  1508.71  1521.76
                             1558.23  1612.54  1642.84  1693.04  1724.38
                             1756.66  1765.92  1800.08  1833.03  1870.65
                             1876.04  1911.24  1920.73  1933.11  1959.40
                             1961.46  1984.22  2020.74  2026.14  2058.54
                             2132.92  2178.57  2182.18  2189.99  2195.49
                             2202.19  2212.32  2229.38  3380.10  4316.10
                             4349.46  4357.97  4361.48  4368.51  4373.45
                             4387.25  4404.85  4413.72  4434.84  4442.16
                             4454.00  4461.88  4475.99  4482.05  5106.57

 Zero-point correction=                           0.243480 (Hartree/Particle)
 Thermal correction to Energy=                    0.255436
 Thermal correction to Enthalpy=                  0.256380
 Thermal correction to Gibbs Free Energy=         0.202937
 Sum of electronic and zero-point Energies=           -461.874489
 Sum of electronic and thermal Energies=              -461.862533
 Sum of electronic and thermal Enthalpies=            -461.861589
 Sum of electronic and thermal Free Energies=         -461.915031

                     E (Thermal)             CV                S
                      KCal/Mol        Cal/Mol-Kelvin    Cal/Mol-Kelvin
 Total                  160.288             43.080            112.480
 Electronic               0.000              0.000              0.000
 Translational            0.889              2.981             40.969
 Rotational               0.889              2.981             31.068
 Vibrational            158.511             37.118             40.443
 Vibration     1          0.593              1.985              6.336
 Vibration     2          0.594              1.982              5.485
 Vibration     3          0.595              1.979              4.958
 Vibration     4          0.599              1.964              3.954
 Vibration     5          0.609              1.933              3.114
 Vibration     6          0.619              1.901              2.652
 Vibration     7          0.628              1.869              2.350
 Vibration     8          0.650              1.800              1.905
 Vibration     9          0.667              1.751              1.683
 Vibration    10          0.733              1.558              1.130
 Vibration    11          0.762              1.480              0.979
 Vibration    12          0.794              1.398              0.849
 Vibration    13          0.835              1.297              0.713
 Vibration    14          0.886              1.181              0.585
 Vibration    15          0.943              1.062              0.474
 Vibration    16          0.977              0.994              0.420

 1\1\GINC-NODE365\Freq\RB3LYP\6-31G(d)\C9H16N2\VSC10255\27-Feb-2021\0\\
 #N Geom=AllCheck Guess=TCheck SCRF=Check GenChk RB3LYP/6-31G(d) Freq\\
 CID_106010684_JID_1441_neutraal\\0,1\N,-2.6261283585,-0.2231629777,0.5
 348086798\N,-4.9126924433,0.8023961268,0.4352746689\C,1.6844468668,-0.
 1152154051,-0.5140259331\C,2.5120142869,1.1748071606,-0.6380062271\C,2
 .168586809,-0.7166694669,0.8276881536\C,3.9053532764,0.7527153387,-0.1
 52392766\C,3.6258902655,-0.2092613089,1.0296426987\C,0.1733732457,0.09
 86470409,-0.6064349604\C,-0.6346257203,-1.201248015,-0.5413108914\C,-2

 Normal termination of Gaussian 16 at Sat Feb 27 18:55:19 2021.

 ----------------------------------------------------------------------
 # B3LYP/6-311++G(d,p) empiricaldispersion=gd3bj scf=xqc pop=npa geom=c
 heck
 ----------------------------------------------------------------------

 ---------------------------------------
 CID_106010684_JID_1441_Energie_neutraal
 ---------------------------------------
 Structure from the checkpoint file:  "JID_1441.chk"
 Charge =  0 Multiplicity = 1

 SCF Done:  E(RB3LYP) =  -462.250030438     A.U. after   14 cycles
 Normal termination of Gaussian 16 at Sat Feb 27 18:57:14 2021.

 ----------------------------------------------------------------------
 # B3LYP/6-311++G(d,p) empiricaldispersion=gd3bj scf=xqc pop=npa geom=c
 heck
 ----------------------------------------------------------------------

 -------------------------------------
 CID_106010684_JID_1441_Energie_kation
 -------------------------------------
 Structure from the checkpoint file:  "JID_1441.chk"
 Charge =  1 Multiplicity = 2

 SCF Done:  E(UB3LYP) =  -461.905432579     A.U. after   26 cycles
 Normal termination of Gaussian 16 at Sat Feb 27 19:01:52 2021.
 Gaussian 16:  ES64L-G16RevA.03 25-Dec-2016

 ------------------------------------
 CID_106010684_JID_1441_Energie_anion
 ------------------------------------
 Structure from the checkpoint file:  "JID_1441.chk"
 Charge = -1 Multiplicity = 2

                         Standard orientation:
 ---------------------------------------------------------------------
 Center     Atomic      Atomic             Coordinates (Angstroms)
 Number     Number       Type             X           Y           Z
 ---------------------------------------------------------------------
      1          7           0       -2.760343   -0.132537    0.492836
      2          7           0       -5.006739    0.981865    0.536079
      3          6           0        1.557250   -0.041120   -0.528338
      4          6           0        2.432734    1.221656   -0.470715
      5          6           0        2.011032   -0.841416    0.716630
      6          6           0        3.806658    0.684078   -0.047965
      7          6           0        3.484941   -0.422090    0.988181
      8          6           0        0.055693    0.240022   -0.590836
      9          6           0       -0.800263   -1.025054   -0.708106
     10          6           0       -2.300670   -0.748660   -0.767781
     11          6           0       -3.973213    0.438709    0.526060
     12          1           0        1.845821   -0.606671   -1.428286
     13          1           0        2.038572    1.903672    0.296472
     14          1           0        2.452414    1.770938   -1.418603
     15          1           0        1.904476   -1.921778    0.575287
     16          1           0        1.376607   -0.570607    1.571113
     17          1           0        4.469113    1.458867    0.351254
     18          1           0        4.309762    0.247887   -0.920165
     19          1           0        4.175763   -1.266788    0.902075
     20          1           0        3.588146   -0.036116    2.007944
     21          1           0       -0.244314    0.800819    0.303954
     22          1           0       -0.159682    0.893072   -1.448468
     23          1           0       -0.593218   -1.701157    0.134090
     24          1           0       -0.524013   -1.580362   -1.614094
     25          1           0       -2.857009   -1.673284   -0.977013
     26          1           0       -2.527993   -0.037680   -1.568053
     27          1           0       -2.529845   -0.662857    1.327305
 ---------------------------------------------------------------------

 SCF Done:  E(UB3LYP) =  -462.241137676     A.U. after   31 cycles

 The electronic state is 2-A.
 Alpha  occ. eigenvalues --  -14.25706 -14.19808 -10.13013 -10.11637 -10.07151
 Alpha  occ. eigenvalues --  -10.06944 -10.06794 -10.06556 -10.06547 -10.06461
 Alpha  occ. eigenvalues --  -10.05950  -0.86560  -0.78458  -0.74271  -0.69056
 Alpha  occ. eigenvalues --   -0.63143  -0.60936  -0.56621  -0.50600  -0.48869
 Alpha  occ. eigenvalues --   -0.47208  -0.45524  -0.39546  -0.38778  -0.37974
 Alpha  occ. eigenvalues --   -0.35488  -0.33457  -0.31862  -0.30699  -0.30340
 Alpha  occ. eigenvalues --   -0.27619  -0.26240  -0.25839  -0.25173  -0.24295
 Alpha  occ. eigenvalues --   -0.23822  -0.22902  -0.22645  -0.22101  -0.21426
 Alpha  occ. eigenvalues --   -0.21338  -0.15598   0.04260
 Alpha virt. eigenvalues --    0.06404   0.07066   0.07853   0.08642   0.09020
 Alpha virt. eigenvalues --    0.09701   0.10265   0.10951   0.11205   0.12021
 Alpha virt. eigenvalues --    0.12370   0.12743   0.13110   0.13874   0.14466

  Beta  occ. eigenvalues --  -14.25646 -14.19798 -10.13007 -10.11610 -10.07114
  Beta  occ. eigenvalues --  -10.06931 -10.06780 -10.06546 -10.06532 -10.06449
  Beta  occ. eigenvalues --  -10.05924  -0.86470  -0.78419  -0.74241  -0.69002
  Beta  occ. eigenvalues --   -0.63092  -0.60895  -0.56559  -0.50499  -0.48768
  Beta  occ. eigenvalues --   -0.47159  -0.45459  -0.39444  -0.38735  -0.37918
  Beta  occ. eigenvalues --   -0.35452  -0.33415  -0.31831  -0.30654  -0.30297
  Beta  occ. eigenvalues --   -0.27566  -0.26225  -0.25779  -0.25138  -0.24260
  Beta  occ. eigenvalues --   -0.23783  -0.22858  -0.22611  -0.22059  -0.21386
  Beta  occ. eigenvalues --   -0.21306  -0.15552
  Beta virt. eigenvalues --    0.06510   0.07499   0.07867   0.08238   0.09317
  Beta virt. eigenvalues --    0.09363   0.09984   0.10774   0.11150   0.11626
  Beta virt. eigenvalues --    0.12173   0.12517   0.13227   0.13374   0.14115

 Mulliken charges and spin densities:
               1          2
     1  N   -0.199357   0.194636
     2  N   -0.316935  -0.033605
     3  C   -1.421662   2.245145
     4  C    0.140838  -0.662231
     5  C    0.576749  -1.054978
     6  C   -0.472688   0.192863
     7  C    0.695134  -1.202713
     8  C    1.226882  -1.801564
     9  C   -0.815031   0.704348
    10  C    1.285695  -1.926226
    11  C    0.248441  -0.186011
    12  H   -0.047494   0.211344
    13  H    0.050221   0.078082
    14  H   -0.097051   0.233471
    15  H   -0.214381   0.357603
    16  H   -0.136693   0.306378
    17  H   -0.086787   0.238223
    18  H   -0.029679   0.160902
    19  H   -0.103890   0.247989
    20  H   -0.030269   0.159558
    21  H    0.068107   0.101371
    22  H    0.047460   0.072509
    23  H   -0.301987   0.496989
    24  H   -0.351210   0.498133
    25  H   -0.444891   0.641281
    26  H    0.064312   0.105916
    27  H   -0.333832   0.620587
 Sum of Mulliken charges =  -1.00000   1.00000

 Dipole moment (field-independent basis, Debye):
    X=              4.5036    Y=              2.6998    Z=             -1.8489  Tot=              5.5669
 Quadrupole moment (field-independent basis, Debye-Ang):
   XX=           -158.8983   YY=           -107.1435   ZZ=           -100.5562
   XY=              3.8908   XZ=              6.1411   YZ=              0.7850

 Summary of Natural Population Analysis:

                                       Natural Population
                Natural  -----------------------------------------------
    Atom  No    Charge         Core      Valence    Rydberg      Total
 -----------------------------------------------------------------------
      N    1   -0.34123      0.99966     2.82994    0.01164     3.84123
      N    2   -0.22618      0.99979     2.71784    0.00855     3.72618
      C    3   -0.10962      0.99960     2.09880    0.01123     3.10962
      C    4   -0.18623      0.99962     2.17972    0.00689     3.18623
      C    5   -0.19282      0.99963     2.18431    0.00888     3.19282
      C    6   -0.18984      0.99964     2.18344    0.00676     3.18984
      C    7   -0.19100      0.99965     2.18451    0.00685     3.19100
      C    8   -0.18516      0.99960     2.17786    0.00770     3.18516
      C    9   -0.19509      0.99962     2.18638    0.00908     3.19509
      C   10   -0.07564      0.99960     2.06453    0.01151     3.07564
      C   11    0.23452      0.99964     1.74997    0.01586     2.76548
      H   12    0.09222      0.00000     0.40586    0.00191     0.40778
      H   13    0.09264      0.00000     0.40595    0.00142     0.40736
      H   14    0.09873      0.00000     0.40019    0.00108     0.40127
      H   15    0.10308      0.00000     0.39538    0.00154     0.39692
      H   16    0.09733      0.00000     0.40098    0.00169     0.40267
      H   17    0.09608      0.00000     0.40276    0.00116     0.40392
      H   18    0.09325      0.00000     0.40517    0.00158     0.40675
      H   19    0.09701      0.00000     0.40173    0.00126     0.40299
      H   20    0.09456      0.00000     0.40409    0.00135     0.40544
      H   21    0.09960      0.00000     0.39866    0.00175     0.40040
      H   22    0.09414      0.00000     0.40458    0.00128     0.40586
      H   23    0.10293      0.00000     0.39364    0.00342     0.39707
      H   24    0.10227      0.00000     0.39608    0.00165     0.39773
      H   25    0.09362      0.00000     0.40443    0.00195     0.40638
      H   26    0.09484      0.00000     0.40374    0.00142     0.40516
      H   27    0.20599      0.00000     0.28557    0.00844     0.29401
 =======================================================================
   * Total *   -0.00000     10.99604    30.86610    0.13786    42.00000

 Normal termination of Gaussian 16 at Sat Feb 27 19:07:19 2021.
