 Gaussian 16, Revision A.03,

 -----------------------------------------------------------
 # opt freq B3LYP/6-31G(d) empiricaldispersion=gd3bj scf=xqc
 -----------------------------------------------------------

 ------------------------------
 CID_104813621_JID_375_neutraal
 ------------------------------
 Symbolic Z-matrix:
 Charge =  0 Multiplicity = 1

 SCF Done:  E(RB3LYP) =  -406.669625065     A.U. after   14 cycles
 SCF Done:  E(RB3LYP) =  -406.688580590     A.U. after   12 cycles
 SCF Done:  E(RB3LYP) =  -406.690078107     A.U. after   12 cycles
 SCF Done:  E(RB3LYP) =  -406.686625274     A.U. after   14 cycles
 SCF Done:  E(RB3LYP) =  -406.690317812     A.U. after   11 cycles
 SCF Done:  E(RB3LYP) =  -406.689284716     A.U. after   12 cycles
 SCF Done:  E(RB3LYP) =  -406.690379199     A.U. after   10 cycles
 SCF Done:  E(RB3LYP) =  -406.690390752     A.U. after    9 cycles
 SCF Done:  E(RB3LYP) =  -406.690392707     A.U. after    8 cycles
 SCF Done:  E(RB3LYP) =  -406.690392925     A.U. after    8 cycles
 SCF Done:  E(RB3LYP) =  -406.690392955     A.U. after    7 cycles
 SCF Done:  E(RB3LYP) =  -406.690392962     A.U. after    6 cycles
 SCF Done:  E(RB3LYP) =  -406.690392965     A.U. after    6 cycles
 Optimization completed.
    -- Stationary point found.

 1\1\GINC-NODE314\FOpt\RB3LYP\6-31G(d)\C9H15N1\VSC10255\13-Dec-2020\0\\
 # opt freq B3LYP/6-31G(d) empiricaldispersion=gd3bj scf=xqc\\CID_10481
 3621_JID_375_neutraal\\0,1\C,0.9857613916,-0.2943287456,-0.0435716069\
 C,0.4372628968,-1.5256676248,-0.605715108\C,-0.0266236024,-2.545033199
 7,-1.0621493484\C,-0.5563607083,-3.7771877215,-1.6475862867\C,0.247828
 1047,-4.2542815016,-2.8839207858\C,1.6799900525,-4.5646077254,-2.55825
 58085\C,2.2548631847,-5.7613038511,-2.7014163185\C,3.6769443353,-6.083
 499396,-2.3332018033\C,3.78309199,-6.9532729383,-1.0690576141\N,3.0870

 Normal termination of Gaussian 16 at Sun Dec 13 19:55:51 2020.

 --------------------------------------------------------------------
 #N Geom=AllCheck Guess=TCheck SCRF=Check GenChk RB3LYP/6-31G(d) Freq
 --------------------------------------------------------------------

 Structure from the checkpoint file:  "JID_375.chk"
 ------------------------------
 CID_104813621_JID_375_neutraal
 ------------------------------
 Charge =  0 Multiplicity = 1

 SCF Done:  E(RB3LYP) =  -406.690392965     A.U. after    1 cycles

  Exact polarizability: 131.415  -9.498 101.373  -5.169   6.596  73.667
 Approx polarizability: 168.154 -22.366 146.632 -10.259  13.362 101.952

 ******    1 imaginary frequencies (negative Signs) ******

                      1                      2                      3
                      A                      A                      A
 Frequencies --    -15.0947                20.8455                47.4782
 Red. masses --      1.0134                 3.8613                 3.3565
 Frc consts  --      0.0001                 0.0010                 0.0045
 IR Inten    --      0.0013                 0.4961                 0.4428

                      4                      5                      6
                      A                      A                      A
 Frequencies --     77.8037               106.2510               125.3834
 Red. masses --      3.4612                 2.7434                 2.1485
 Frc consts  --      0.0123                 0.0182                 0.0199
 IR Inten    --      0.0637                 2.2759                 8.9274

                      7                      8                      9
                      A                      A                      A
 Frequencies --    146.9213               210.2814               270.8764
 Red. masses --      2.9792                 2.7305                 1.9583
 Frc consts  --      0.0379                 0.0711                 0.0847
 IR Inten    --      3.4177                 5.9542                19.4988

                     10                     11                     12
                      A                      A                      A
 Frequencies --    279.4826               290.4901               329.6185
 Red. masses --      2.5147                 1.3489                 2.7146
 Frc consts  --      0.1157                 0.0671                 0.1738
 IR Inten    --      3.8112                44.7027                11.3939

                     13                     14                     15
                      A                      A                      A
 Frequencies --    380.3774               390.7362               468.5664
 Red. masses --      3.6708                 3.9680                 2.0264
 Frc consts  --      0.3129                 0.3569                 0.2621
 IR Inten    --      0.0534                 0.9770                 5.1617

                     16                     17                     18
                      A                      A                      A
 Frequencies --    522.6233               552.7086               715.5300
 Red. masses --      2.3989                 3.4553                 2.8950
 Frc consts  --      0.3860                 0.6219                 0.8733
 IR Inten    --      1.8638                 3.2688                 0.2282

                     19                     20                     21
                      A                      A                      A
 Frequencies --    808.3570               834.6264               868.1677
 Red. masses --      1.6088                 1.6827                 1.8235
 Frc consts  --      0.6194                 0.6906                 0.8098
 IR Inten    --      0.4198                 6.7215                12.0995

                     22                     23                     24
                      A                      A                      A
 Frequencies --    879.6726               908.4610               948.2214
 Red. masses --      1.7032                 1.6334                 2.4344
 Frc consts  --      0.7765                 0.7942                 1.2896
 IR Inten    --     76.1784                54.3813                 0.1392

                     25                     26                     27
                      A                      A                      A
 Frequencies --   1014.5821              1040.1949              1052.6482
 Red. masses --      1.3085                 1.5044                 1.6898
 Frc consts  --      0.7936                 0.9591                 1.1032
 IR Inten    --     14.1486                15.3663                16.0734

                     28                     29                     30
                      A                      A                      A
 Frequencies --   1071.4015              1071.7621              1081.3686
 Red. masses --      1.3985                 1.3904                 2.3525
 Frc consts  --      0.9459                 0.9410                 1.6208
 IR Inten    --      2.8613                 2.0029                 1.9186

                     31                     32                     33
                      A                      A                      A
 Frequencies --   1120.6094              1137.8822              1171.5747
 Red. masses --      2.6092                 2.3136                 2.5590
 Frc consts  --      1.9305                 1.7649                 2.0694
 IR Inten    --      6.4192                 6.3904                 0.0656

                     34                     35                     36
                      A                      A                      A
 Frequencies --   1186.6089              1207.0646              1234.8493
 Red. masses --      1.3741                 1.2411                 1.1818
 Frc consts  --      1.1399                 1.0654                 1.0617
 IR Inten    --      1.8208                 1.7354                 1.7717

                     37                     38                     39
                      A                      A                      A
 Frequencies --   1271.1307              1337.5122              1338.1773
 Red. masses --      1.2180                 1.2713                 1.2670
 Frc consts  --      1.1595                 1.3400                 1.3368
 IR Inten    --      0.1601                 0.7479                 8.6333

                     40                     41                     42
                      A                      A                      A
 Frequencies --   1361.8807              1366.4533              1380.5418
 Red. masses --      1.2496                 1.2703                 1.4125
 Frc consts  --      1.3656                 1.3975                 1.5862
 IR Inten    --      9.9174                 3.9861                 4.5480

                     43                     44                     45
                      A                      A                      A
 Frequencies --   1404.3429              1438.3102              1445.5032
 Red. masses --      1.4469                 1.3874                 1.2428
 Frc consts  --      1.6813                 1.6911                 1.5301
 IR Inten    --     16.6614                25.6139                 5.6558

                     46                     47                     48
                      A                      A                      A
 Frequencies --   1503.8002              1505.7341              1509.6487
 Red. masses --      1.1089                 1.0912                 1.0406
 Frc consts  --      1.4774                 1.4576                 1.3973
 IR Inten    --      6.8177                 7.8099                 5.4727

                     49                     50                     51
                      A                      A                      A
 Frequencies --   1510.1097              1510.6101              1537.9166
 Red. masses --      1.0633                 1.0788                 1.0873
 Frc consts  --      1.4286                 1.4504                 1.5151
 IR Inten    --      6.1257                 2.1774                 1.9955

                     52                     53                     54
                      A                      A                      A
 Frequencies --   1698.1179              1756.6749              2374.4864
 Red. masses --      1.0907                 5.9739                11.7976
 Frc consts  --      1.8530                10.8616                39.1907
 IR Inten    --     30.4888                 0.0740                 0.2812

                     55                     56                     57
                      A                      A                      A
 Frequencies --   2962.2275              3029.8282              3033.3224
 Red. masses --      1.0726                 1.0589                 1.0640
 Frc consts  --      5.5455                 5.7270                 5.7679
 IR Inten    --     70.7781                29.5417                26.2618

                     58                     59                     60
                      A                      A                      A
 Frequencies --   3037.0157              3040.4623              3064.3570
 Red. masses --      1.0348                 1.0596                 1.1000
 Frc consts  --      5.6232                 5.7715                 6.0858
 IR Inten    --     37.0131                22.4860                34.5670

                     61                     62                     63
                      A                      A                      A
 Frequencies --   3073.3917              3084.0020              3086.1891
 Red. masses --      1.0889                 1.1015                 1.1042
 Frc consts  --      6.0599                 6.1728                 6.1964
 IR Inten    --     61.6715                40.8099                18.2667

                     64                     65                     66
                      A                      A                      A
 Frequencies --   3096.8132              3097.0884              3135.3615
 Red. masses --      1.1015                 1.1014                 1.0896
 Frc consts  --      6.2237                 6.2247                 6.3111
 IR Inten    --     15.1375                14.8999                18.0695

                     67                     68                     69
                      A                      A                      A
 Frequencies --   3151.8209              3466.2755              3549.0069
 Red. masses --      1.0874                 1.0499                 1.0919
 Frc consts  --      6.3643                 7.4325                 8.1030
 IR Inten    --     25.5965                 2.1648                 0.7854

 - Thermochemistry -
 -------------------
 Temperature   298.150 Kelvin.  Pressure   1.00000 Atm.
 Atom     1 has atomic number  6 and mass  12.00000

 Molecular mass:   137.12045 amu.
 Principal axes and moments of inertia in atomic units:
                           1         2         3
     Eigenvalues --   867.861973890.806214258.39434
           X            0.99998  -0.00409  -0.00572
           Y            0.00421   0.99977   0.02083
           Z            0.00563  -0.02085   0.99977
 This molecule is an asymmetric top.
 Rotational symmetry number  1.
 Warning -- assumption of classical behavior for rotation
           may cause significant error
 Rotational temperatures (Kelvin)      0.09980     0.02226     0.02034
 Rotational constants (GHZ):           2.07953     0.46385     0.42381
    1 imaginary frequencies ignored.
 Zero-point vibrational energy     584568.0 (Joules/Mol)
                                  139.71511 (Kcal/Mol)
 Warning -- explicit consideration of  16 degrees of freedom as
           vibrations may cause significant error
 Vibrational temperatures:     29.99    68.31   111.94   152.87   180.40
          (Kelvin)            211.39   302.55   389.73   402.11   417.95
                              474.25   547.28   562.18   674.16   751.94
                              795.22  1029.49  1163.05  1200.84  1249.10
                             1265.65  1307.07  1364.28  1459.76  1496.61
                             1514.53  1541.51  1542.03  1555.85  1612.31
                             1637.16  1685.63  1707.27  1736.70  1776.67
                             1828.87  1924.38  1925.34  1959.44  1966.02
                             1986.29  2020.54  2069.41  2079.76  2163.63
                             2166.42  2172.05  2172.71  2173.43  2212.72
                             2443.21  2527.46  3416.36  4261.98  4359.25
                             4364.27  4369.59  4374.55  4408.93  4421.93
                             4437.19  4440.34  4455.62  4456.02  4511.09
                             4534.77  4987.20  5106.23

 Zero-point correction=                           0.222650 (Hartree/Particle)
 Thermal correction to Energy=                    0.234482
 Thermal correction to Enthalpy=                  0.235426
 Thermal correction to Gibbs Free Energy=         0.183056
 Sum of electronic and zero-point Energies=           -406.467743
 Sum of electronic and thermal Energies=              -406.455911
 Sum of electronic and thermal Enthalpies=            -406.454967
 Sum of electronic and thermal Free Energies=         -406.507337

                     E (Thermal)             CV                S
                      KCal/Mol        Cal/Mol-Kelvin    Cal/Mol-Kelvin
 Total                  147.140             41.751            110.223
 Electronic               0.000              0.000              0.000
 Translational            0.889              2.981             40.659
 Rotational               0.889              2.981             31.042
 Vibrational            145.362             35.789             38.522
 Vibration     1          0.593              1.986              6.552
 Vibration     2          0.595              1.979              4.920
 Vibration     3          0.599              1.964              3.946
 Vibration     4          0.605              1.944              3.336
 Vibration     5          0.610              1.928              3.016
 Vibration     6          0.617              1.906              2.712
 Vibration     7          0.642              1.825              2.041
 Vibration     8          0.675              1.727              1.591
 Vibration     9          0.680              1.712              1.537
 Vibration    10          0.686              1.691              1.471
 Vibration    11          0.712              1.616              1.262
 Vibration    12          0.750              1.512              1.038
 Vibration    13          0.758              1.490              0.997
 Vibration    14          0.826              1.320              0.742
 Vibration    15          0.878              1.200              0.604
 Vibration    16          0.908              1.134              0.539

                           ! Non-Optimized Parameters !

 1\1\GINC-NODE314\Freq\RB3LYP\6-31G(d)\C9H15N1\VSC10255\13-Dec-2020\0\\
 #N Geom=AllCheck Guess=TCheck SCRF=Check GenChk RB3LYP/6-31G(d) Freq\\
 CID_104813621_JID_375_neutraal\\0,1\C,0.9857613916,-0.2943287456,-0.04
 35716069\C,0.4372628968,-1.5256676248,-0.605715108\C,-0.0266236024,-2.
 5450331997,-1.0621493484\C,-0.5563607083,-3.7771877215,-1.6475862867\C
 ,0.2478281047,-4.2542815016,-2.8839207858\C,1.6799900525,-4.5646077254
 ,-2.5582558085\C,2.2548631847,-5.7613038511,-2.7014163185\C,3.67694433
 53,-6.083499396,-2.3332018033\C,3.78309199,-6.9532729383,-1.0690576141

 Normal termination of Gaussian 16 at Sun Dec 13 19:59:23 2020.

 ----------------------------------------------------------------------
 # B3LYP/6-311++G(d,p) empiricaldispersion=gd3bj scf=xqc pop=npa geom=c
 heck
 ----------------------------------------------------------------------

 --------------------------------------
 CID_104813621_JID_375_Energie_neutraal
 --------------------------------------
 Structure from the checkpoint file:  "JID_375.chk"
 Charge =  0 Multiplicity = 1

 SCF Done:  E(RB3LYP) =  -406.815854890     A.U. after   14 cycles
 Normal termination of Gaussian 16 at Sun Dec 13 20:00:47 2020.

 ----------------------------------------------------------------------
 # B3LYP/6-311++G(d,p) empiricaldispersion=gd3bj scf=xqc pop=npa geom=c
 heck
 ----------------------------------------------------------------------

 ------------------------------------
 CID_104813621_JID_375_Energie_kation
 ------------------------------------
 Structure from the checkpoint file:  "JID_375.chk"
 Charge =  1 Multiplicity = 2

 SCF Done:  E(UB3LYP) =  -406.511698053     A.U. after   25 cycles
 Normal termination of Gaussian 16 at Sun Dec 13 20:04:00 2020.
 Gaussian 16:  ES64L-G16RevA.03 25-Dec-2016

 -----------------------------------
 CID_104813621_JID_375_Energie_anion
 -----------------------------------
 Structure from the checkpoint file:  "JID_375.chk"
 Charge = -1 Multiplicity = 2

                         Standard orientation:
 ---------------------------------------------------------------------
 Center     Atomic      Atomic             Coordinates (Angstroms)
 Number     Number       Type             X           Y           Z
 ---------------------------------------------------------------------
      1          6           0        4.198758   -1.673259   -0.057824
      2          6           0        3.288344   -0.568233    0.230471
      3          6           0        2.540404    0.348546    0.480934
      4          6           0        1.617405    1.453733    0.742084
      5          6           0        0.656013    1.731883   -0.441646
      6          6           0       -0.224650    0.558623   -0.759990
      7          6           0       -1.558496    0.564408   -0.697711
      8          6           0       -2.438953   -0.623302   -0.973111
      9          6           0       -3.072330   -1.204484    0.302387
     10          7           0       -3.903643   -0.200484    0.976798
     11          1           0        4.626374   -2.087589    0.863401
     12          1           0        5.032364   -1.349548   -0.692980
     13          1           0        3.683603   -2.489473   -0.578906
     14          1           0        1.020314    1.234688    1.637588
     15          1           0        2.187165    2.366773    0.962163
     16          1           0        0.042814    2.607327   -0.195795
     17          1           0        1.263986    1.995721   -1.317931
     18          1           0        0.293546   -0.357965   -1.044440
     19          1           0       -2.068967    1.486702   -0.414253
     20          1           0       -3.251342   -0.333500   -1.652108
     21          1           0       -1.855636   -1.411726   -1.465001
     22          1           0       -3.722596   -2.042504    0.023894
     23          1           0       -2.266123   -1.615817    0.935702
     24          1           0       -4.398853   -0.634257    1.753964
     25          1           0       -3.300112    0.507062    1.393552
 ---------------------------------------------------------------------

 SCF Done:  E(UB3LYP) =  -406.800148556     A.U. after   33 cycles
 SCF Done:  E(UB3LYP) =  -406.800148556     a.u. after    1 cycles

 The electronic state is 2-A.
 Alpha  occ. eigenvalues --  -14.18982 -10.09553 -10.09051 -10.08392 -10.08183
 Alpha  occ. eigenvalues --  -10.06997 -10.06959 -10.06887 -10.06171 -10.05732
 Alpha  occ. eigenvalues --   -0.78179  -0.72152  -0.68611  -0.66402  -0.62272
 Alpha  occ. eigenvalues --   -0.58521  -0.54188  -0.49622  -0.45219  -0.39581
 Alpha  occ. eigenvalues --   -0.38668  -0.37645  -0.36217  -0.34951  -0.33881
 Alpha  occ. eigenvalues --   -0.32545  -0.32368  -0.31301  -0.29944  -0.28058
 Alpha  occ. eigenvalues --   -0.27536  -0.26552  -0.25212  -0.23095  -0.16258
 Alpha  occ. eigenvalues --   -0.15400  -0.15090  -0.14040   0.04510
 Alpha virt. eigenvalues --    0.06003   0.06887   0.08117   0.08884   0.09097
 Alpha virt. eigenvalues --    0.09681   0.09952   0.10316   0.10901   0.10956
 Alpha virt. eigenvalues --    0.12198   0.12664   0.13028   0.13367   0.14682

  Beta  occ. eigenvalues --  -14.18936 -10.09538 -10.09028 -10.08332 -10.08173
  Beta  occ. eigenvalues --  -10.06992 -10.06953 -10.06872 -10.06167 -10.05728
  Beta  occ. eigenvalues --   -0.78107  -0.72126  -0.68579  -0.66351  -0.62219
  Beta  occ. eigenvalues --   -0.58464  -0.54134  -0.49564  -0.45174  -0.39535
  Beta  occ. eigenvalues --   -0.38622  -0.37614  -0.36165  -0.34894  -0.33845
  Beta  occ. eigenvalues --   -0.32484  -0.32309  -0.31253  -0.29906  -0.28023
  Beta  occ. eigenvalues --   -0.27503  -0.26522  -0.25188  -0.23070  -0.16220
  Beta  occ. eigenvalues --   -0.15379  -0.15057  -0.13998
  Beta virt. eigenvalues --    0.06696   0.07187   0.07332   0.08490   0.09125
  Beta virt. eigenvalues --    0.09813   0.10012   0.10282   0.10576   0.11206
  Beta virt. eigenvalues --    0.11379   0.12499   0.12908   0.13247   0.13776

 Mulliken charges and spin densities:
               1          2
     1  C    2.678306  -3.134206
     2  C   -1.577532   1.385539
     3  C   -0.077583   0.089220
     4  C   -0.254452   0.023450
     5  C   -0.242545  -0.083558
     6  C    0.768344  -0.732834
     7  C   -0.768951   0.666066
     8  C   -0.305100   0.102513
     9  C    1.019237  -1.546870
    10  N   -0.380843   0.002405
    11  H   -0.319921   0.475109
    12  H   -0.407332   0.559795
    13  H   -0.452509   0.625500
    14  H   -0.036781   0.176270
    15  H   -0.056481   0.212474
    16  H    0.010978   0.134980
    17  H   -0.018672   0.156560
    18  H    0.255956  -0.107367
    19  H   -0.109094   0.263766
    20  H    0.065168   0.059970
    21  H   -0.135724   0.276913
    22  H   -0.237877   0.385404
    23  H   -0.111299   0.245646
    24  H   -0.261692   0.505814
    25  H   -0.043600   0.257440
 Sum of Mulliken charges =  -1.00000   1.00000

 Dipole moment (field-independent basis, Debye):
    X=             -0.9590    Y=              3.8979    Z=             -2.2295  Tot=              4.5917
 Quadrupole moment (field-independent basis, Debye-Ang):
   XX=           -163.2389   YY=            -98.6360   ZZ=            -93.4085
   XY=              9.6449   XZ=             11.3813   YZ=              0.1223

 Summary of Natural Population Analysis:

                                       Natural Population
                Natural  -----------------------------------------------
    Atom  No    Charge         Core      Valence    Rydberg      Total
 -----------------------------------------------------------------------
      C    1   -0.32968      0.99965     2.31888    0.01116     3.32968
      C    2    0.03617      0.99923     1.95602    0.00857     2.96383
      C    3   -0.04300      0.99932     2.03220    0.01147     3.04300
      C    4   -0.21815      0.99957     2.21006    0.00851     3.21815
      C    5   -0.19400      0.99961     2.18594    0.00845     3.19400
      C    6   -0.08776      0.99950     2.07890    0.00935     3.08776
      C    7   -0.09457      0.99951     2.08561    0.00945     3.09457
      C    8   -0.20714      0.99961     2.19869    0.00884     3.20714
      C    9   -0.08463      0.99964     2.07271    0.01228     3.08463
      N   10   -0.42634      0.99977     2.91533    0.01124     3.92634
      H   11    0.11128      0.00000     0.38714    0.00158     0.38872
      H   12    0.11166      0.00000     0.38613    0.00221     0.38834
      H   13    0.11312      0.00000     0.38474    0.00214     0.38688
      H   14    0.11021      0.00000     0.38802    0.00177     0.38979
      H   15    0.10686      0.00000     0.39161    0.00153     0.39314
      H   16    0.09713      0.00000     0.40130    0.00156     0.40287
      H   17    0.09966      0.00000     0.39885    0.00149     0.40034
      H   18    0.09633      0.00000     0.40183    0.00184     0.40367
      H   19    0.09047      0.00000     0.40808    0.00145     0.40953
      H   20    0.09962      0.00000     0.39898    0.00140     0.40038
      H   21    0.09924      0.00000     0.39940    0.00136     0.40076
      H   22    0.08862      0.00000     0.40994    0.00144     0.41138
      H   23    0.08012      0.00000     0.41782    0.00206     0.41988
      H   24    0.17792      0.00000     0.31859    0.00349     0.32208
      H   25    0.17358      0.00000     0.32373    0.00269     0.32642
 =======================================================================
   * Total *    0.00671      9.99542    27.87051    0.12736    37.99329

 Normal termination of Gaussian 16 at Sun Dec 13 20:08:12 2020.
