 Gaussian 16, Revision A.03,

 -----------------------------------------------------------
 # opt freq B3LYP/6-31G(d) empiricaldispersion=gd3bj scf=xqc
 -----------------------------------------------------------

 -------------------------------
 CID_148144706_JID_3960_neutraal
 -------------------------------
 Symbolic Z-matrix:
 Charge =  0 Multiplicity = 1

 SCF Done:  E(RB3LYP) =  -1597.70574230     A.U. after   17 cycles
 SCF Done:  E(RB3LYP) =  -1597.71573689     A.U. after   14 cycles
 SCF Done:  E(RB3LYP) =  -1597.71684390     A.U. after   13 cycles
 SCF Done:  E(RB3LYP) =  -1597.71645193     A.U. after   14 cycles
 SCF Done:  E(RB3LYP) =  -1597.71749053     A.U. after   13 cycles
 SCF Done:  E(RB3LYP) =  -1597.71775524     A.U. after   13 cycles
 SCF Done:  E(RB3LYP) =  -1597.71816268     A.U. after   14 cycles
 SCF Done:  E(RB3LYP) =  -1597.71854366     A.U. after   12 cycles
 SCF Done:  E(RB3LYP) =  -1597.71903414     A.U. after   13 cycles
 SCF Done:  E(RB3LYP) =  -1597.71860256     A.U. after   16 cycles
 SCF Done:  E(RB3LYP) =  -1597.71922268     A.U. after   13 cycles
 SCF Done:  E(RB3LYP) =  -1597.71930542     A.U. after   11 cycles
 SCF Done:  E(RB3LYP) =  -1597.71932166     A.U. after   10 cycles
 SCF Done:  E(RB3LYP) =  -1597.71932647     A.U. after   10 cycles
 SCF Done:  E(RB3LYP) =  -1597.71932742     A.U. after    9 cycles
 Optimization completed.
    -- Stationary point found.
 Normal termination of Gaussian 16 at Sun Dec 13 20:04:35 2020.

 --------------------------------------------------------------------
 #N Geom=AllCheck Guess=TCheck SCRF=Check GenChk RB3LYP/6-31G(d) Freq
 --------------------------------------------------------------------

 Structure from the checkpoint file:  "JID_3960.chk"
 -------------------------------
 CID_148144706_JID_3960_neutraal
 -------------------------------
 Charge =  0 Multiplicity = 1

 SCF Done:  E(RB3LYP) =  -1597.71932742     A.U. after    1 cycles

  Exact polarizability: 265.674 -21.342 160.008  -2.754  -1.478  80.625
 Approx polarizability: 450.683 -82.353 334.830 -12.860  -1.693 133.908

                      1                      2                      3
                      A                      A                      A
 Frequencies --     41.6691                63.2449                82.7266
 Red. masses --      4.4910                 4.7230                 5.3144
 Frc consts  --      0.0046                 0.0111                 0.0214
 IR Inten    --      0.9615                 1.3978                 0.7100

                      4                      5                      6
                      A                      A                      A
 Frequencies --    118.4805               167.2350               188.9053
 Red. masses --     12.0114                 1.8514                 2.0487
 Frc consts  --      0.0993                 0.0305                 0.0431
 IR Inten    --      0.7823                 0.4532                 1.5015

                      7                      8                      9
                      A                      A                      A
 Frequencies --    214.3108               240.9161               253.9651
 Red. masses --      2.4096                 4.1880                 5.1286
 Frc consts  --      0.0652                 0.1432                 0.1949
 IR Inten    --      0.7710                 2.0099                 0.0630

                     10                     11                     12
                      A                      A                      A
 Frequencies --    283.4399               319.4015               359.0848
 Red. masses --      4.1691                 3.7870                 4.9664
 Frc consts  --      0.1973                 0.2276                 0.3773
 IR Inten    --      2.8235                 4.9865                 4.9149

                     13                     14                     15
                      A                      A                      A
 Frequencies --    395.3511               420.0928               488.5437
 Red. masses --      5.7784                 4.1406                 6.5537
 Frc consts  --      0.5321                 0.4305                 0.9216
 IR Inten    --      0.7097                 0.6593                 3.3004

                     16                     17                     18
                      A                      A                      A
 Frequencies --    496.9617               520.3497               549.0718
 Red. masses --      9.0447                 7.2748                 2.6609
 Frc consts  --      1.3161                 1.1605                 0.4726
 IR Inten    --      4.2238                14.2457                10.9241

                     19                     20                     21
                      A                      A                      A
 Frequencies --    571.6873               613.6770               657.5264
 Red. masses --      6.8723                 5.6697                 6.3158
 Frc consts  --      1.3233                 1.2580                 1.6088
 IR Inten    --      3.2496                 1.2651                 2.5894

                     22                     23                     24
                      A                      A                      A
 Frequencies --    718.0397               767.2053               848.1468
 Red. masses --      3.5092                 2.2741                 1.2371
 Frc consts  --      1.0660                 0.7887                 0.5243
 IR Inten    --      2.0956                 3.4099                11.2302

                     25                     26                     27
                      A                      A                      A
 Frequencies --    875.4895               915.4750               931.1253
 Red. masses --      5.8905                 2.9069                 4.4036
 Frc consts  --      2.6601                 1.4354                 2.2494
 IR Inten    --      8.1215                 4.8255                72.0970

                     28                     29                     30
                      A                      A                      A
 Frequencies --    954.3677               982.7911              1040.4134
 Red. masses --      1.7630                 2.7802                 2.3354
 Frc consts  --      0.9461                 1.5821                 1.4895
 IR Inten    --     37.3399                10.6958                 6.7418

                     31                     32                     33
                      A                      A                      A
 Frequencies --   1051.8689              1066.2269              1072.5349
 Red. masses --      2.1024                 1.9677                 1.4636
 Frc consts  --      1.3705                 1.3180                 0.9920
 IR Inten    --      6.0826                18.3704                 0.9831

                     34                     35                     36
                      A                      A                      A
 Frequencies --   1090.9262              1129.1864              1194.7518
 Red. masses --      3.6662                 3.0138                 1.2166
 Frc consts  --      2.5708                 2.2641                 1.0232
 IR Inten    --    100.6315                65.1781                 0.8265

                     37                     38                     39
                      A                      A                      A
 Frequencies --   1245.5315              1281.0558              1324.9180
 Red. masses --      1.6264                 2.4805                 6.3526
 Frc consts  --      1.4866                 2.3984                 6.5703
 IR Inten    --      2.4951                77.0702               190.6912

                     40                     41                     42
                      A                      A                      A
 Frequencies --   1354.9398              1374.2831              1399.5248
 Red. masses --      1.2723                 1.5269                 1.6495
 Frc consts  --      1.3762                 1.6990                 1.9036
 IR Inten    --      9.5077                 1.3939                 8.7527

                     43                     44                     45
                      A                      A                      A
 Frequencies --   1413.4840              1442.1402              1489.4556
 Red. masses --      1.4044                 1.2323                 1.0900
 Frc consts  --      1.6532                 1.5100                 1.4248
 IR Inten    --     13.6128                 3.0417                 9.5663

                     46                     47                     48
                      A                      A                      A
 Frequencies --   1501.7769              1503.1276              1510.3292
 Red. masses --      1.1262                 1.1055                 1.1614
 Frc consts  --      1.4965                 1.4717                 1.5610
 IR Inten    --     14.3732                10.1133                 1.0325

                     49                     50                     51
                      A                      A                      A
 Frequencies --   1570.7924              1620.9003              1699.8219
 Red. masses --      3.7779                 6.7867                 6.9626
 Frc consts  --      5.4921                10.5057                11.8531
 IR Inten    --    153.2928                59.3642                34.3629

                     52                     53                     54
                      A                      A                      A
 Frequencies --   3011.6165              3023.3061              3061.1285
 Red. masses --      1.0728                 1.0690                 1.0397
 Frc consts  --      5.7330                 5.7569                 5.7401
 IR Inten    --     10.8992                26.9340                 9.2834

                     55                     56                     57
                      A                      A                      A
 Frequencies --   3104.5049              3109.9657              3120.8276
 Red. masses --      1.0906                 1.0918                 1.0966
 Frc consts  --      6.1932                 6.2215                 6.2930
 IR Inten    --      7.3659                15.8637                 7.1803

                     58                     59                     60
                      A                      A                      A
 Frequencies --   3145.6779              3161.5103              3220.3118
 Red. masses --      1.0905                 1.1022                 1.0915
 Frc consts  --      6.3580                 6.4908                 6.6691
 IR Inten    --     42.3315                 3.8920                 8.2463

 - Thermochemistry -
 -------------------
 Temperature   298.150 Kelvin.  Pressure   1.00000 Atm.
 Atom     1 has atomic number  6 and mass  12.00000

 Molecular mass:   226.98971 amu.
 Principal axes and moments of inertia in atomic units:
                           1         2         3
     Eigenvalues --  1502.616115463.771166739.78668
           X            0.99991  -0.01265   0.00345
           Y            0.01266   0.99991  -0.00444
           Z           -0.00340   0.00448   0.99998
 This molecule is an asymmetric top.
 Rotational symmetry number  1.
 Warning -- assumption of classical behavior for rotation
           may cause significant error
 Rotational temperatures (Kelvin)      0.05764     0.01585     0.01285
 Rotational constants (GHZ):           1.20107     0.33031     0.26777
 Zero-point vibrational energy     426924.0 (Joules/Mol)
                                  102.03729 (Kcal/Mol)
 Warning -- explicit consideration of  20 degrees of freedom as
           vibrations may cause significant error
 Vibrational temperatures:     59.95    91.00   119.03   170.47   240.61
          (Kelvin)            271.79   308.35   346.62   365.40   407.81
                              459.55   516.64   568.82   604.42   702.91
                              715.02   748.67   789.99   822.53   882.94
                              946.03  1033.10  1103.84  1220.29  1259.63
                             1317.16  1339.68  1373.12  1414.02  1496.92
                             1513.40  1534.06  1543.14  1569.60  1624.65
                             1718.98  1792.04  1843.15  1906.26  1949.46
                             1977.29  2013.60  2033.69  2074.92  2142.99
                             2160.72  2162.67  2173.03  2260.02  2332.11
                             2445.66  4333.04  4349.86  4404.28  4466.69
                             4474.55  4490.17  4525.93  4548.71  4633.31

 Zero-point correction=                           0.162607 (Hartree/Particle)
 Thermal correction to Energy=                    0.175177
 Thermal correction to Enthalpy=                  0.176121
 Thermal correction to Gibbs Free Energy=         0.122490
 Sum of electronic and zero-point Energies=          -1597.556721
 Sum of electronic and thermal Energies=             -1597.544151
 Sum of electronic and thermal Enthalpies=           -1597.543206
 Sum of electronic and thermal Free Energies=        -1597.596837

                     E (Thermal)             CV                S
                      KCal/Mol        Cal/Mol-Kelvin    Cal/Mol-Kelvin
 Total                  109.925             46.443            112.876
 Electronic               0.000              0.000              0.000
 Translational            0.889              2.981             42.161
 Rotational               0.889              2.981             32.381
 Vibrational            108.148             40.481             38.333
 Vibration     1          0.594              1.981              5.178
 Vibration     2          0.597              1.972              4.353
 Vibration     3          0.600              1.961              3.825
 Vibration     4          0.609              1.934              3.125
 Vibration     5          0.624              1.883              2.466
 Vibration     6          0.633              1.855              2.239
 Vibration     7          0.644              1.819              2.007
 Vibration     8          0.658              1.778              1.796
 Vibration     9          0.665              1.756              1.703
 Vibration    10          0.682              1.704              1.513
 Vibration    11          0.705              1.636              1.313
 Vibration    12          0.734              1.557              1.126
 Vibration    13          0.762              1.480              0.980
 Vibration    14          0.783              1.427              0.892
 Vibration    15          0.844              1.275              0.687
 Vibration    16          0.852              1.257              0.666
 Vibration    17          0.875              1.205              0.609
 Vibration    18          0.904              1.142              0.546
 Vibration    19          0.928              1.092              0.501
 Vibration    20          0.973              1.003              0.427

 Optimization completed.
    -- Stationary point found.
 Normal termination of Gaussian 16 at Sun Dec 13 20:10:08 2020.

 ----------------------------------------------------------------------
 # B3LYP/6-311++G(d,p) empiricaldispersion=gd3bj scf=xqc pop=npa geom=c
 heck
 ----------------------------------------------------------------------

 ---------------------------------------
 CID_148144706_JID_3960_Energie_neutraal
 ---------------------------------------
 Structure from the checkpoint file:  "JID_3960.chk"
 Charge =  0 Multiplicity = 1

 SCF Done:  E(RB3LYP) =  -1597.90065173     A.U. after   18 cycles
 Normal termination of Gaussian 16 at Sun Dec 13 20:13:08 2020.

 ----------------------------------------------------------------------
 # B3LYP/6-311++G(d,p) empiricaldispersion=gd3bj scf=xqc pop=npa geom=c
 heck
 ----------------------------------------------------------------------

 -------------------------------------
 CID_148144706_JID_3960_Energie_kation
 -------------------------------------
 Structure from the checkpoint file:  "JID_3960.chk"
 Charge =  1 Multiplicity = 2

 SCF Done:  E(UB3LYP) =  -1597.61497953     A.U. after   31 cycles
 Normal termination of Gaussian 16 at Sun Dec 13 20:20:20 2020.
 Gaussian 16:  ES64L-G16RevA.03 25-Dec-2016

 ----------------------------------------------------------------------
 # B3LYP/6-311++G(d,p) empiricaldispersion=gd3bj scf=xqc pop=npa geom=c
 heck
 ----------------------------------------------------------------------

 ------------------------------------
 CID_148144706_JID_3960_Energie_anion
 ------------------------------------
 Structure from the checkpoint file:  "JID_3960.chk"
 Charge = -1 Multiplicity = 2

                         Standard orientation:
 ---------------------------------------------------------------------
 Center     Atomic      Atomic             Coordinates (Angstroms)
 Number     Number       Type             X           Y           Z
 ---------------------------------------------------------------------
      1          6           0       -0.705294    2.217558    0.388923
      2          6           0       -0.922744    0.752196    0.127788
      3          6           0        0.085149   -0.178520    0.028027
      4         16           0       -0.372748   -1.875017   -0.179371
      5         16           0       -2.430199   -1.463995   -0.189454
      6          6           0       -2.286159    0.282499    0.017281
      7         16           0       -3.686802    1.171293    0.075344
      8          6           0        1.526562    0.067360    0.048653
      9          6           0        2.075602    1.105303   -0.625497
     10          7           0        3.427738    1.471841   -0.534516
     11          6           0        4.257399    0.581253   -0.130776
     12          6           0        3.852694   -0.833141    0.208867
     13          6           0        2.459004   -0.829227    0.845090
     14          1           0        0.295851    2.409863    0.778756
     15          1           0       -1.454112    2.573861    1.101985
     16          1           0       -0.839865    2.805116   -0.526711
     17          1           0        1.475771    1.752406   -1.256534
     18          1           0        5.304600    0.875576   -0.040549
     19          1           0        4.591728   -1.300825    0.865994
     20          1           0        3.835131   -1.419185   -0.723884
     21          1           0        2.071355   -1.850273    0.907857
     22          1           0        2.508078   -0.457622    1.880243
 ---------------------------------------------------------------------

 SCF Done:  E(UB3LYP) =  -1597.95122083     A.U. after   27 cycles

 The electronic state is 2-A.
 Alpha  occ. eigenvalues --  -88.75060 -88.74932 -88.65925 -14.18792 -10.09885
 Alpha  occ. eigenvalues --  -10.08600 -10.08384 -10.07346 -10.07124 -10.06376
 Alpha  occ. eigenvalues --  -10.06017 -10.05884 -10.04286  -7.83657  -7.83487
 Alpha  occ. eigenvalues --   -7.74690  -5.80077  -5.79986  -5.79648  -5.79420
 Alpha  occ. eigenvalues --   -5.79064  -5.78867  -5.71037  -5.70597  -5.70264
 Alpha  occ. eigenvalues --   -0.81713  -0.75475  -0.69188  -0.66095  -0.65301
 Alpha  occ. eigenvalues --   -0.62086  -0.56366  -0.53747  -0.52550  -0.50803
 Alpha  occ. eigenvalues --   -0.43633  -0.40416  -0.39306  -0.36611  -0.34487
 Alpha  occ. eigenvalues --   -0.34045  -0.31216  -0.30272  -0.29448  -0.28561
 Alpha  occ. eigenvalues --   -0.27372  -0.26008  -0.24948  -0.24495  -0.23425
 Alpha  occ. eigenvalues --   -0.22701  -0.21898  -0.21285  -0.17705  -0.15096
 Alpha  occ. eigenvalues --   -0.14267  -0.10747  -0.08132  -0.07916   0.00339
 Alpha virt. eigenvalues --    0.06936   0.07233   0.07948   0.09613   0.09901
 Alpha virt. eigenvalues --    0.10200   0.11047   0.12002   0.12442   0.13059
 Alpha virt. eigenvalues --    0.13085   0.13968   0.14392   0.14631   0.14912

  Beta  occ. eigenvalues --  -88.75017 -88.74893 -88.65860 -14.18865 -10.09554
  Beta  occ. eigenvalues --  -10.08256 -10.08038 -10.07366 -10.07093 -10.06112
  Beta  occ. eigenvalues --  -10.06018 -10.05919 -10.04286  -7.83618  -7.83452
  Beta  occ. eigenvalues --   -7.74632  -5.80058  -5.79965  -5.79631  -5.79408
  Beta  occ. eigenvalues --   -5.78921  -5.78736  -5.71012  -5.70387  -5.70227
  Beta  occ. eigenvalues --   -0.81464  -0.75085  -0.68977  -0.65794  -0.65041
  Beta  occ. eigenvalues --   -0.61720  -0.56038  -0.53566  -0.52336  -0.50361
  Beta  occ. eigenvalues --   -0.43156  -0.40131  -0.38992  -0.36403  -0.34268
  Beta  occ. eigenvalues --   -0.33819  -0.30998  -0.30020  -0.29272  -0.28334
  Beta  occ. eigenvalues --   -0.27194  -0.25833  -0.24283  -0.24154  -0.23007
  Beta  occ. eigenvalues --   -0.22276  -0.21680  -0.21025  -0.16398  -0.14353
  Beta  occ. eigenvalues --   -0.13841  -0.09811  -0.07810  -0.07062
  Beta virt. eigenvalues --    0.05579   0.07207   0.07992   0.08973   0.09618
  Beta virt. eigenvalues --    0.09885   0.10183   0.11098   0.12023   0.12447
  Beta virt. eigenvalues --    0.13063   0.13159   0.14284   0.14606   0.14835

 Mulliken charges and spin densities:
               1          2
     1  C   -0.801598  -0.000769
     2  C   -1.317092  -0.116516
     3  C    1.095805   0.206334
     4  S   -0.887648   0.050725
     5  S   -0.325448   0.081589
     6  C    1.440929   0.212242
     7  S   -0.984342   0.146089
     8  C    1.445905   0.022016
     9  C   -1.003882   0.188388
    10  N   -0.014939  -0.048041
    11  C   -0.131941   0.245717
    12  C   -0.407493   0.022075
    13  C   -0.338887   0.003169
    14  H    0.136643  -0.003069
    15  H    0.114813  -0.003171
    16  H    0.130771   0.003211
    17  H    0.172246  -0.010985
    18  H    0.147583  -0.017874
    19  H    0.125867   0.004786
    20  H    0.123920   0.015857
    21  H    0.133198  -0.003458
    22  H    0.145591   0.001687
 Sum of Mulliken charges =  -1.00000   1.00000

 Dipole moment (field-independent basis, Debye):
    X=              5.3934    Y=             -3.1710    Z=              1.0772  Tot=              6.3486
 Quadrupole moment (field-independent basis, Debye-Ang):
   XX=           -158.6634   YY=           -116.9050   ZZ=           -107.9908
   XY=             -3.0877   XZ=              4.7996   YZ=              0.7792

 Summary of Natural Population Analysis:

                                       Natural Population
                Natural  -----------------------------------------------
    Atom  No    Charge         Core      Valence    Rydberg      Total
 -----------------------------------------------------------------------
      C    1   -0.29065      0.99963     2.28548    0.00554     3.29065
      C    2   -0.08230      0.99934     2.07070    0.01225     3.08230
      C    3    0.00711      0.99936     1.98329    0.01025     2.99289
      S    4    0.08731      4.99952     2.89340    0.01977     7.91269
      S    5    0.11275      4.99944     2.86499    0.02283     7.88725
      C    6   -0.10212      0.99953     2.08679    0.01579     3.10212
      S    7   -0.07104      4.99948     3.05480    0.01677     8.07104
      C    8   -0.06100      0.99945     2.04781    0.01374     3.06100
      C    9    0.05761      0.99944     1.92973    0.01322     2.94239
      N   10   -0.25844      0.99969     2.74591    0.01284     3.75844
      C   11    0.13861      0.99965     1.84591    0.01583     2.86139
      C   12   -0.22772      0.99963     2.22151    0.00657     3.22772
      C   13   -0.19150      0.99960     2.18441    0.00749     3.19150
      H   14    0.10447      0.00000     0.39453    0.00100     0.39553
      H   15    0.10865      0.00000     0.38985    0.00150     0.39135
      H   16    0.10166      0.00000     0.39713    0.00121     0.39834
      H   17    0.09068      0.00000     0.40797    0.00135     0.40932
      H   18    0.07139      0.00000     0.42722    0.00139     0.42861
      H   19    0.09830      0.00000     0.40044    0.00126     0.40170
      H   20    0.10486      0.00000     0.39375    0.00139     0.39514
      H   21    0.10504      0.00000     0.39340    0.00156     0.39496
      H   22    0.09634      0.00000     0.40225    0.00141     0.40366
 =======================================================================
   * Total *   -0.00000     24.99377    33.82126    0.18497    59.00000

 Normal termination of Gaussian 16 at Sun Dec 13 20:26:43 2020.
