 Gaussian 16, Revision A.03,

 -----------------------------------------------------------
 # opt freq B3LYP/6-31G(d) empiricaldispersion=gd3bj scf=xqc
 -----------------------------------------------------------

 -------------------------------
 CID_151669520_JID_2341_neutraal
 -------------------------------
 Symbolic Z-matrix:
 Charge =  0 Multiplicity = 1

 SCF Done:  E(RB3LYP) =  -605.208191194     A.U. after   16 cycles
 SCF Done:  E(RB3LYP) =  -605.216197256     A.U. after   16 cycles
 SCF Done:  E(RB3LYP) =  -605.220303676     A.U. after   14 cycles
 SCF Done:  E(RB3LYP) =  -605.222439612     A.U. after   14 cycles
 SCF Done:  E(RB3LYP) =  -605.223459255     A.U. after   14 cycles
 SCF Done:  E(RB3LYP) =  -605.224202041     A.U. after   16 cycles
 SCF Done:  E(RB3LYP) =  -605.224633909     A.U. after   14 cycles
 SCF Done:  E(RB3LYP) =  -605.224948201     A.U. after   14 cycles
 SCF Done:  E(RB3LYP) =  -605.225123631     A.U. after   14 cycles
 SCF Done:  E(RB3LYP) =  -605.225230318     A.U. after   12 cycles
 SCF Done:  E(RB3LYP) =  -605.225312941     A.U. after   13 cycles
 SCF Done:  E(RB3LYP) =  -605.225330028     A.U. after   12 cycles
 SCF Done:  E(RB3LYP) =  -605.225335377     A.U. after   11 cycles
 SCF Done:  E(RB3LYP) =  -605.225336703     A.U. after   10 cycles
 SCF Done:  E(RB3LYP) =  -605.225337066     A.U. after   10 cycles
 Optimization completed.
    -- Stationary point found.
 Normal termination of Gaussian 16 at Wed Dec  9 17:10:21 2020.

 --------------------------------------------------------------------
 #N Geom=AllCheck Guess=TCheck SCRF=Check GenChk RB3LYP/6-31G(d) Freq
 --------------------------------------------------------------------

 Structure from the checkpoint file:  "JID_2341.chk"
 -------------------------------
 CID_151669520_JID_2341_neutraal
 -------------------------------
 Charge =  0 Multiplicity = 1

 SCF Done:  E(RB3LYP) =  -605.225337066     A.U. after    1 cycles

  Exact polarizability: 127.303   9.746  87.798  -0.652   1.348  76.865
 Approx polarizability: 191.520  27.945 128.619   9.158   6.358 114.217

                      1                      2                      3
                      A                      A                      A
 Frequencies --     16.9738                69.4191                94.2704
 Red. masses --      8.3829                 1.6455                 2.8594
 Frc consts  --      0.0014                 0.0047                 0.0150
 IR Inten    --      0.1794                 0.8051                 1.2894

                      4                      5                      6
                      A                      A                      A
 Frequencies --    116.7982               190.8836               198.4019
 Red. masses --      3.4569                 1.9175                 3.1958
 Frc consts  --      0.0278                 0.0412                 0.0741
 IR Inten    --      0.4358                 3.2935                 1.8606

                      7                      8                      9
                      A                      A                      A
 Frequencies --    229.9634               255.8563               269.8613
 Red. masses --      1.5669                 2.4195                 3.3725
 Frc consts  --      0.0488                 0.0933                 0.1447
 IR Inten    --      2.1215                 4.4648                 5.2929

                     10                     11                     12
                      A                      A                      A
 Frequencies --    298.7982               344.6471               413.5272
 Red. masses --      2.8271                 3.4852                 2.3684
 Frc consts  --      0.1487                 0.2439                 0.2386
 IR Inten    --      2.5844                 0.3617                 0.2817

                     13                     14                     15
                      A                      A                      A
 Frequencies --    435.2521               446.5490               488.1946
 Red. masses --      2.6530                 3.0186                 3.8416
 Frc consts  --      0.2961                 0.3547                 0.5394
 IR Inten    --      1.4239                 5.0314                 1.0576

                     16                     17                     18
                      A                      A                      A
 Frequencies --    522.8694               555.1367               567.6076
 Red. masses --      3.6162                 3.3757                11.6374
 Frc consts  --      0.5825                 0.6129                 2.2090
 IR Inten    --      3.3332                16.4653                 9.6587

                     19                     20                     21
                      A                      A                      A
 Frequencies --    600.6139               681.1694               756.7193
 Red. masses --      5.5681                 3.0218                 3.6051
 Frc consts  --      1.1834                 0.8261                 1.2163
 IR Inten    --     19.9672                 3.7592                16.5029

                     22                     23                     24
                      A                      A                      A
 Frequencies --    832.9719               881.0575               897.7333
 Red. masses --      8.4629                 2.3276                 2.4211
 Frc consts  --      3.4597                 1.0646                 1.1496
 IR Inten    --      1.9994                 2.2870                 8.6233

                     25                     26                     27
                      A                      A                      A
 Frequencies --    911.6062               946.7277               986.2816
 Red. masses --      2.1832                 2.5616                 2.2652
 Frc consts  --      1.0689                 1.3528                 1.2982
 IR Inten    --     21.2079                 7.4575                21.7180

                     28                     29                     30
                      A                      A                      A
 Frequencies --   1004.2178              1085.7064              1112.4695
 Red. masses --      2.4167                 2.2969                 4.0124
 Frc consts  --      1.4359                 1.5952                 2.9257
 IR Inten    --      5.7401                44.3778                89.1051

                     31                     32                     33
                      A                      A                      A
 Frequencies --   1125.2529              1157.6097              1179.1758
 Red. masses --      4.6643                 2.6153                 2.1482
 Frc consts  --      3.4796                 2.0649                 1.7599
 IR Inten    --     67.6503                17.4564                65.2331

                     34                     35                     36
                      A                      A                      A
 Frequencies --   1186.4975              1217.5544              1220.5725
 Red. masses --      1.4067                 2.1209                 3.0032
 Frc consts  --      1.1667                 1.8524                 2.6361
 IR Inten    --      9.4774                72.8091               196.1820

                     37                     38                     39
                      A                      A                      A
 Frequencies --   1250.3397              1251.8577              1291.2389
 Red. masses --      6.6713                 1.9189                 1.3500
 Frc consts  --      6.1449                 1.7718                 1.3261
 IR Inten    --     23.2984                22.9899                 9.1840

                     40                     41                     42
                      A                      A                      A
 Frequencies --   1315.8422              1354.5471              1382.2279
 Red. masses --      1.2979                 1.2846                 1.3535
 Frc consts  --      1.3240                 1.3887                 1.5236
 IR Inten    --     32.2008                 4.5209                10.8442

                     43                     44                     45
                      A                      A                      A
 Frequencies --   1405.4532              1424.1126              1436.8565
 Red. masses --      1.4129                 1.3271                 1.3187
 Frc consts  --      1.6443                 1.5858                 1.6041
 IR Inten    --      7.7216                 7.1995                24.5559

                     46                     47                     48
                      A                      A                      A
 Frequencies --   1486.4695              1495.0061              1498.2461
 Red. masses --      1.0862                 1.1184                 1.1076
 Frc consts  --      1.4141                 1.4728                 1.4649
 IR Inten    --      3.4665                 3.0861                 3.3621

                     49                     50                     51
                      A                      A                      A
 Frequencies --   1513.9008              1519.5145              1521.3525
 Red. masses --      1.0523                 1.0753                 1.0560
 Frc consts  --      1.4209                 1.4629                 1.4401
 IR Inten    --      7.4633                 0.3874                 4.1513

                     52                     53                     54
                      A                      A                      A
 Frequencies --   1537.0620              1541.5871              2231.6756
 Red. masses --      1.0747                 1.0537                13.9265
 Frc consts  --      1.4960                 1.4753                40.8653
 IR Inten    --      1.2735                 9.8313               559.2245

                     55                     56                     57
                      A                      A                      A
 Frequencies --   3030.6589              3042.4482              3066.1249
 Red. masses --      1.0445                 1.0656                 1.0625
 Frc consts  --      5.6522                 5.8117                 5.8849
 IR Inten    --     44.3990                33.0644                17.3641

                     58                     59                     60
                      A                      A                      A
 Frequencies --   3077.3762              3087.6804              3110.5754
 Red. masses --      1.0365                 1.0605                 1.0989
 Frc consts  --      5.7832                 5.9568                 6.2646
 IR Inten    --     13.2238                23.5620                52.7531

                     61                     62                     63
                      A                      A                      A
 Frequencies --   3111.5589              3127.8103              3141.2123
 Red. masses --      1.0889                 1.1039                 1.1046
 Frc consts  --      6.2116                 6.3627                 6.4220
 IR Inten    --     41.5634                24.4672                12.3677

                     64                     65                     66
                      A                      A                      A
 Frequencies --   3149.5575              3152.1101              3172.9525
 Red. masses --      1.1029                 1.1062                 1.1022
 Frc consts  --      6.4459                 6.4757                 6.5382
 IR Inten    --     16.4123                30.5741                12.3592

 - Thermochemistry -
 -------------------
 Temperature   298.150 Kelvin.  Pressure   1.00000 Atm.
 Atom     1 has atomic number  6 and mass  12.00000

 Molecular mass:   172.09603 amu.
 Principal axes and moments of inertia in atomic units:
                           1         2         3
     Eigenvalues --  1009.697083000.198263261.96234
           X            0.99983  -0.01290  -0.01280
           Y            0.01254   0.99953  -0.02797
           Z            0.01316   0.02780   0.99953
 This molecule is an asymmetric top.
 Rotational symmetry number  1.
 Warning -- assumption of classical behavior for rotation
           may cause significant error
 Rotational temperatures (Kelvin)      0.08578     0.02887     0.02655
 Rotational constants (GHZ):           1.78741     0.60154     0.55327
 Zero-point vibrational energy     520532.9 (Joules/Mol)
                                  124.41035 (Kcal/Mol)
 Warning -- explicit consideration of  19 degrees of freedom as
           vibrations may cause significant error
 Vibrational temperatures:     24.42    99.88   135.63   168.05   274.64
          (Kelvin)            285.46   330.87   368.12   388.27   429.90
                              495.87   594.97   626.23   642.48   702.40
                              752.29   798.72   816.66   864.15   980.05
                             1088.75  1198.46  1267.65  1291.64  1311.60
                             1362.13  1419.04  1444.85  1562.09  1600.60
                             1618.99  1665.54  1696.57  1707.11  1751.79
                             1756.13  1798.96  1801.14  1857.80  1893.20
                             1948.89  1988.72  2022.13  2048.98  2067.32
                             2138.70  2150.98  2155.64  2178.17  2186.24
                             2188.89  2211.49  2218.00  3210.88  4360.44
                             4377.40  4411.47  4427.66  4442.48  4475.42
                             4476.84  4500.22  4519.50  4531.51  4535.18
                             4565.17

 Zero-point correction=                           0.198261 (Hartree/Particle)
 Thermal correction to Energy=                    0.210278
 Thermal correction to Enthalpy=                  0.211222
 Thermal correction to Gibbs Free Energy=         0.159178
 Sum of electronic and zero-point Energies=           -605.027077
 Sum of electronic and thermal Energies=              -605.015059
 Sum of electronic and thermal Enthalpies=            -605.014115
 Sum of electronic and thermal Free Energies=         -605.066159

                     E (Thermal)             CV                S
                      KCal/Mol        Cal/Mol-Kelvin    Cal/Mol-Kelvin
 Total                  131.951             44.506            109.535
 Electronic               0.000              0.000              0.000
 Translational            0.889              2.981             41.336
 Rotational               0.889              2.981             30.670
 Vibrational            130.174             38.544             37.529
 Vibration     1          0.593              1.986              6.960
 Vibration     2          0.598              1.969              4.170
 Vibration     3          0.603              1.953              3.569
 Vibration     4          0.608              1.935              3.153
 Vibration     5          0.634              1.852              2.219
 Vibration     6          0.637              1.842              2.148
 Vibration     7          0.652              1.795              1.879
 Vibration     8          0.666              1.753              1.690
 Vibration     9          0.674              1.729              1.597
 Vibration    10          0.692              1.676              1.424
 Vibration    11          0.723              1.586              1.191
 Vibration    12          0.777              1.441              0.914
 Vibration    13          0.796              1.393              0.842
 Vibration    14          0.806              1.369              0.806
 Vibration    15          0.844              1.276              0.688
 Vibration    16          0.878              1.199              0.603
 Vibration    17          0.911              1.128              0.534
 Vibration    18          0.924              1.101              0.509
 Vibration    19          0.959              1.030              0.449

                           ! Non-Optimized Parameters !
 Normal termination of Gaussian 16 at Wed Dec  9 17:15:46 2020.

 ----------------------------------------------------------------------
 # B3LYP/6-311++G(d,p) empiricaldispersion=gd3bj scf=xqc pop=npa geom=c
 heck
 ----------------------------------------------------------------------

 ---------------------------------------
 CID_151669520_JID_2341_Energie_neutraal
 ---------------------------------------
 Structure from the checkpoint file:  "JID_2341.chk"
 Charge =  0 Multiplicity = 1

 SCF Done:  E(RB3LYP) =  -605.398205873     A.U. after   15 cycles
 Normal termination of Gaussian 16 at Wed Dec  9 17:17:43 2020.

 ----------------------------------------------------------------------
 # B3LYP/6-311++G(d,p) empiricaldispersion=gd3bj scf=xqc pop=npa geom=c
 heck
 ----------------------------------------------------------------------

 -------------------------------------
 CID_151669520_JID_2341_Energie_kation
 -------------------------------------
 Structure from the checkpoint file:  "JID_2341.chk"
 Charge =  1 Multiplicity = 2

 SCF Done:  E(UB3LYP) =  -605.097271203     A.U. after   25 cycles
 Normal termination of Gaussian 16 at Wed Dec  9 17:22:25 2020.
 Gaussian 16:  ES64L-G16RevA.03 25-Dec-2016

 ----------------------------------------------------------------------
 # B3LYP/6-311++G(d,p) empiricaldispersion=gd3bj scf=xqc pop=npa geom=c
 heck
 ----------------------------------------------------------------------

 ------------------------------------
 CID_151669520_JID_2341_Energie_anion
 ------------------------------------
 Structure from the checkpoint file:  "JID_2341.chk"
 Charge = -1 Multiplicity = 2

                         Standard orientation:
 ---------------------------------------------------------------------
 Center     Atomic      Atomic             Coordinates (Angstroms)
 Number     Number       Type             X           Y           Z
 ---------------------------------------------------------------------
      1          6           0        0.734520   -1.131821    1.594958
      2          6           0        1.140629   -0.429034    0.303418
      3          6           0        0.089314   -0.543610   -0.827134
      4          7           0       -1.069312    0.366903   -0.740169
      5          6           0       -0.615008    1.736840   -0.450279
      6          6           0        0.327399    1.796382    0.745493
      7          8           0        1.452385    0.947035    0.541110
      8          7           0       -1.943361   -0.051700    0.364001
      9          7           0       -3.023323   -0.486860   -0.083406
     10          7           0       -4.047302   -0.919977   -0.333974
     11          8           0        2.333971   -1.062800   -0.098512
     12          6           0        3.152106   -0.382807   -1.042383
     13          1           0       -0.214313   -0.752475    1.977748
     14          1           0        1.524145   -0.978986    2.335197
     15          1           0        0.625899   -2.204459    1.409968
     16          1           0        0.571952   -0.300871   -1.778797
     17          1           0       -0.277212   -1.570439   -0.892626
     18          1           0       -1.494329    2.369178   -0.299737
     19          1           0       -0.090191    2.080608   -1.349544
     20          1           0       -0.208408    1.521755    1.664219
     21          1           0        0.733174    2.804266    0.875132
     22          1           0        2.632955   -0.181781   -1.989640
     23          1           0        3.526890    0.562307   -0.640146
     24          1           0        3.987912   -1.057251   -1.242145
 ---------------------------------------------------------------------

 SCF Done:  E(UB3LYP) =  -605.392285157     A.U. after   33 cycles
 SCF Done:  E(UB3LYP) =  -605.392285157     a.u. after    1 cycles

 The electronic state is 2-A.
 Alpha  occ. eigenvalues --  -19.02239 -19.01673 -14.29841 -14.22210 -14.21841
 Alpha  occ. eigenvalues --  -14.21326 -10.16620 -10.10565 -10.10385 -10.08246
 Alpha  occ. eigenvalues --  -10.08116 -10.04544  -0.98129  -0.96532  -0.90414
 Alpha  occ. eigenvalues --   -0.85789  -0.75603  -0.67554  -0.61717  -0.57436
 Alpha  occ. eigenvalues --   -0.56749  -0.52833  -0.46283  -0.41223  -0.40037
 Alpha  occ. eigenvalues --   -0.39124  -0.37189  -0.36638  -0.35872  -0.33996
 Alpha  occ. eigenvalues --   -0.32454  -0.32116  -0.30726  -0.30505  -0.28995
 Alpha  occ. eigenvalues --   -0.27766  -0.26381  -0.26048  -0.25549  -0.23803
 Alpha  occ. eigenvalues --   -0.22111  -0.20018  -0.17291  -0.16446  -0.11376
 Alpha  occ. eigenvalues --   -0.09508   0.05163
 Alpha virt. eigenvalues --    0.06749   0.07836   0.08993   0.09623   0.10331
 Alpha virt. eigenvalues --    0.11251   0.11464   0.12263   0.12515   0.13613
 Alpha virt. eigenvalues --    0.14713   0.15095   0.15639   0.15983   0.16589

  Beta  occ. eigenvalues --  -19.02229 -19.01668 -14.29426 -14.22278 -14.21691
  Beta  occ. eigenvalues --  -14.20750 -10.16620 -10.10545 -10.10363 -10.08238
  Beta  occ. eigenvalues --  -10.08096 -10.04529  -0.97354  -0.96491  -0.90389
  Beta  occ. eigenvalues --   -0.85431  -0.75261  -0.67528  -0.61660  -0.57399
  Beta  occ. eigenvalues --   -0.56591  -0.52676  -0.46121  -0.41143  -0.39871
  Beta  occ. eigenvalues --   -0.39017  -0.37106  -0.36502  -0.34357  -0.33781
  Beta  occ. eigenvalues --   -0.32310  -0.31913  -0.30481  -0.29976  -0.28461
  Beta  occ. eigenvalues --   -0.27671  -0.26284  -0.25969  -0.25481  -0.23323
  Beta  occ. eigenvalues --   -0.22037  -0.19454  -0.17254  -0.16168  -0.11215
  Beta  occ. eigenvalues --   -0.09334
  Beta virt. eigenvalues --    0.07316   0.08580   0.08966   0.09852   0.10731
  Beta virt. eigenvalues --    0.11448   0.11540   0.11773   0.12517   0.12839
  Beta virt. eigenvalues --    0.13820   0.14836   0.15140   0.15854   0.15997

 Mulliken charges and spin densities:
               1          2
     1  C    0.129922  -0.614925
     2  C   -1.275055   0.720948
     3  C    0.312892  -0.551018
     4  N    0.192649  -0.044667
     5  C    0.103491  -0.465178
     6  C    0.301932  -0.486284
     7  O   -0.104916   0.021335
     8  N   -1.220240   1.359664
     9  N    0.727656  -0.541760
    10  N    0.013966  -0.290245
    11  O   -0.120913   0.030435
    12  C    0.627522  -0.749998
    13  H    0.027991   0.157017
    14  H    0.021445   0.144067
    15  H    0.108381   0.055519
    16  H    0.116608   0.041363
    17  H    0.130307   0.061943
    18  H   -0.275299   0.454105
    19  H    0.099026   0.037048
    20  H    0.278045  -0.135841
    21  H   -0.777873   0.966810
    22  H   -0.204075   0.305506
    23  H   -0.116161   0.278444
    24  H   -0.097301   0.245713
 Sum of Mulliken charges =  -1.00000   1.00000

 Dipole moment (field-independent basis, Debye):
    X=              2.4551    Y=             -1.3605    Z=              0.0879  Tot=              2.8082
 Quadrupole moment (field-independent basis, Debye-Ang):
   XX=           -136.1628   YY=           -102.7898   ZZ=            -91.6531
   XY=             -6.6961   XZ=             -0.2823   YZ=             -1.9862

 Summary of Natural Population Analysis:

                                       Natural Population
                Natural  -----------------------------------------------
    Atom  No    Charge         Core      Valence    Rydberg      Total
 -----------------------------------------------------------------------
      C    1   -0.30414      0.99959     2.29818    0.00637     3.30414
      C    2    0.29449      0.99953     1.68551    0.02047     2.70551
      C    3   -0.11118      0.99953     2.09922    0.01244     3.11118
      N    4   -0.17931      0.99973     2.66460    0.01498     3.67931
      C    5   -0.10068      0.99960     2.08857    0.01250     3.10068
      C    6   -0.02193      0.99956     2.00961    0.01276     3.02193
      O    7   -0.31718      0.99987     3.30688    0.01044     4.31718
      N    8   -0.17238      0.99972     2.65704    0.01562     3.67238
      N    9    0.14914      0.99971     2.33575    0.01540     3.35086
      N   10    0.02092      0.99982     2.46525    0.01401     3.47908
      O   11   -0.30900      0.99986     3.29766    0.01149     4.30900
      C   12   -0.10093      0.99958     2.09194    0.00941     3.10093
      H   13    0.11465      0.00000     0.38413    0.00122     0.38535
      H   14    0.10129      0.00000     0.39720    0.00152     0.39871
      H   15    0.10227      0.00000     0.39664    0.00108     0.39773
      H   16    0.09800      0.00000     0.40037    0.00163     0.40200
      H   17    0.10391      0.00000     0.39488    0.00121     0.39609
      H   18    0.10408      0.00000     0.39450    0.00142     0.39592
      H   19    0.09409      0.00000     0.40455    0.00137     0.40591
      H   20    0.08655      0.00000     0.41177    0.00168     0.41345
      H   21    0.09246      0.00000     0.40534    0.00220     0.40754
      H   22    0.07729      0.00000     0.42121    0.00150     0.42271
      H   23    0.09076      0.00000     0.40754    0.00170     0.40924
      H   24    0.08684      0.00000     0.41214    0.00102     0.41316
 =======================================================================
   * Total *   -0.00000     11.99610    33.83046    0.17345    46.00000

 Normal termination of Gaussian 16 at Wed Dec  9 17:28:45 2020.
