 Gaussian 16, Revision A.03,

 -----------------------------------------------------------
 # opt freq B3LYP/6-31G(d) empiricaldispersion=gd3bj scf=xqc
 -----------------------------------------------------------

 -------------------------------
 CID_140017103_JID_9383_neutraal
 -------------------------------
 Symbolic Z-matrix:
 Charge =  0 Multiplicity = 1

 SCF Done:  E(RB3LYP) =  -846.196524484     A.U. after   15 cycles
 SCF Done:  E(RB3LYP) =  -846.203745793     A.U. after   13 cycles
 SCF Done:  E(RB3LYP) =  -846.204195040     A.U. after   13 cycles
 SCF Done:  E(RB3LYP) =  -846.204068027     A.U. after   13 cycles
 SCF Done:  E(RB3LYP) =  -846.203533133     A.U. after   13 cycles
 SCF Done:  E(RB3LYP) =  -846.202708389     A.U. after   12 cycles
 SCF Done:  E(RB3LYP) =  -846.204654891     A.U. after    9 cycles
 SCF Done:  E(RB3LYP) =  -846.205000372     A.U. after   13 cycles
 SCF Done:  E(RB3LYP) =  -846.205356829     A.U. after   12 cycles
 SCF Done:  E(RB3LYP) =  -846.205535841     A.U. after   12 cycles
 SCF Done:  E(RB3LYP) =  -846.209471083     A.U. after    9 cycles
 SCF Done:  E(RB3LYP) =  -846.209471400     A.U. after    8 cycles
 SCF Done:  E(RB3LYP) =  -846.209471492     A.U. after    8 cycles
 SCF Done:  E(RB3LYP) =  -846.209471527     A.U. after    7 cycles
 SCF Done:  E(RB3LYP) =  -846.209471537     A.U. after    6 cycles
 Optimization completed.
    -- Stationary point found.
 Normal termination of Gaussian 16 at Sat Dec 12 10:13:05 2020.

 --------------------------------------------------------------------
 #N Geom=AllCheck Guess=TCheck SCRF=Check GenChk RB3LYP/6-31G(d) Freq
 --------------------------------------------------------------------

 Structure from the checkpoint file:  "JID_9383.chk"
 -------------------------------
 CID_140017103_JID_9383_neutraal
 -------------------------------
 Charge =  0 Multiplicity = 1

 SCF Done:  E(RB3LYP) =  -846.209471537     A.U. after    1 cycles

  Exact polarizability: 218.459  -1.851 133.844  -1.278 -10.945 140.583
 Approx polarizability: 303.850  -5.781 198.667  -8.485 -23.183 237.081

                      1                      2                      3
                      A                      A                      A
 Frequencies --     27.8814                35.5187                40.4076
 Red. masses --      4.2041                 4.4804                 4.0253
 Frc consts  --      0.0019                 0.0033                 0.0039
 IR Inten    --      1.0038                 0.3359                 0.0227

                      4                      5                      6
                      A                      A                      A
 Frequencies --     51.2491                66.4389                89.7233
 Red. masses --      3.5604                 4.3284                 4.0130
 Frc consts  --      0.0055                 0.0113                 0.0190
 IR Inten    --      0.4451                 0.3646                 0.8308

                      7                      8                      9
                      A                      A                      A
 Frequencies --    106.7555               142.7155               147.0641
 Red. masses --      3.8104                 2.8012                 3.8426
 Frc consts  --      0.0256                 0.0336                 0.0490
 IR Inten    --      0.3992                 0.2642                 0.4016

                     10                     11                     12
                      A                      A                      A
 Frequencies --    154.7877               182.6036               213.3964
 Red. masses --      4.2653                 2.6686                 2.6864
 Frc consts  --      0.0602                 0.0524                 0.0721
 IR Inten    --      0.7130                 0.1898                 1.0475

                     13                     14                     15
                      A                      A                      A
 Frequencies --    230.9073               241.7439               259.3488
 Red. masses --      2.9157                 1.7083                 3.4080
 Frc consts  --      0.0916                 0.0588                 0.1351
 IR Inten    --      1.9154                 1.6364                 9.5909

                     16                     17                     18
                      A                      A                      A
 Frequencies --    310.0560               328.2321               337.0969
 Red. masses --      4.4067                 2.4811                 2.6714
 Frc consts  --      0.2496                 0.1575                 0.1789
 IR Inten    --      0.1109                 2.9649                 8.8612

                     19                     20                     21
                      A                      A                      A
 Frequencies --    363.2222               393.7598               434.8225
 Red. masses --      4.5693                 4.4897                 2.9954
 Frc consts  --      0.3552                 0.4101                 0.3337
 IR Inten    --      1.6110                 4.2836                 3.7297

                     22                     23                     24
                      A                      A                      A
 Frequencies --    441.9134               465.7145               542.3401
 Red. masses --      3.4978                 4.8679                 4.3521
 Frc consts  --      0.4025                 0.6221                 0.7542
 IR Inten    --      6.4007                 1.1538                 1.1730

                     25                     26                     27
                      A                      A                      A
 Frequencies --    568.7116               576.3340               583.5146
 Red. masses --      3.2181                 1.5456                 3.5201
 Frc consts  --      0.6132                 0.3025                 0.7062
 IR Inten    --      7.6162                51.1212                 2.8882

                     28                     29                     30
                      A                      A                      A
 Frequencies --    617.1826               636.1760               641.6592
 Red. masses --      3.7451                 1.2351                 2.8561
 Frc consts  --      0.8405                 0.2945                 0.6928
 IR Inten    --      6.3366                34.9016                 7.3025

                     31                     32                     33
                      A                      A                      A
 Frequencies --    706.0460               738.0103               747.8174
 Red. masses --      4.8413                 3.2922                 3.6064
 Frc consts  --      1.4219                 1.0565                 1.1883
 IR Inten    --     11.8441                 3.0875                26.7784

                     34                     35                     36
                      A                      A                      A
 Frequencies --    777.7186               801.5013               834.2834
 Red. masses --      2.7424                 1.5410                 1.9904
 Frc consts  --      0.9773                 0.5833                 0.8162
 IR Inten    --      1.3025                 6.2475                14.5407

                     37                     38                     39
                      A                      A                      A
 Frequencies --    853.6131               865.4664               876.4648
 Red. masses --      2.5069                 2.7411                 2.5071
 Frc consts  --      1.0763                 1.2097                 1.1347
 IR Inten    --      7.8094                15.1112                 1.2872

                     40                     41                     42
                      A                      A                      A
 Frequencies --    886.9882               912.9259               919.5767
 Red. masses --      1.4974                 1.5730                 3.5173
 Frc consts  --      0.6941                 0.7724                 1.7524
 IR Inten    --      1.8129                 2.7276                 2.1027

                     43                     44                     45
                      A                      A                      A
 Frequencies --    925.3043               930.3065               955.6335
 Red. masses --      2.3506                 3.0286                 1.5347
 Frc consts  --      1.1858                 1.5443                 0.8258
 IR Inten    --      6.4706                27.5987                 1.1582

                     46                     47                     48
                      A                      A                      A
 Frequencies --    966.7137               975.3615              1017.9571
 Red. masses --      2.3891                 3.4554                 2.1947
 Frc consts  --      1.3154                 1.9368                 1.3399
 IR Inten    --     10.1998                21.7820                 0.1258

                     49                     50                     51
                      A                      A                      A
 Frequencies --   1046.6282              1062.2154              1073.9463
 Red. masses --      1.9989                 4.2457                 1.7001
 Frc consts  --      1.2901                 2.8224                 1.1553
 IR Inten    --     10.0911                90.0541                 0.8150

                     52                     53                     54
                      A                      A                      A
 Frequencies --   1114.7162              1121.6906              1132.4489
 Red. masses --      6.2089                 3.2321                 2.0104
 Frc consts  --      4.5457                 2.3960                 1.5190
 IR Inten    --    200.4707                19.3408                35.6485

                     55                     56                     57
                      A                      A                      A
 Frequencies --   1159.6641              1177.9370              1205.3061
 Red. masses --      1.2472                 1.4996                 1.2643
 Frc consts  --      0.9882                 1.2260                 1.0821
 IR Inten    --      2.1425                10.4123                 2.3749

                     58                     59                     60
                      A                      A                      A
 Frequencies --   1208.9422              1226.6364              1248.4358
 Red. masses --      1.7302                 1.7342                 1.4881
 Frc consts  --      1.4899                 1.5374                 1.3665
 IR Inten    --      3.2390                 2.9443                 7.0421

                     61                     62                     63
                      A                      A                      A
 Frequencies --   1261.3257              1282.2808              1300.5248
 Red. masses --      2.4416                 3.1515                 1.8322
 Frc consts  --      2.2886                 3.0531                 1.8259
 IR Inten    --     64.3304               189.3076                 4.7264

                     64                     65                     66
                      A                      A                      A
 Frequencies --   1309.4672              1313.6658              1329.2280
 Red. masses --      1.3387                 1.3786                 1.7204
 Frc consts  --      1.3524                 1.4017                 1.7909
 IR Inten    --      2.9640                64.4233                 3.6024

                     67                     68                     69
                      A                      A                      A
 Frequencies --   1342.9062              1349.2756              1359.5110
 Red. masses --      1.1566                 1.3585                 1.3811
 Frc consts  --      1.2290                 1.4571                 1.5040
 IR Inten    --     18.6983                 2.2355                 0.3413

                     70                     71                     72
                      A                      A                      A
 Frequencies --   1374.4755              1389.4768              1404.5982
 Red. masses --      1.2168                 3.1176                 1.2409
 Frc consts  --      1.3544                 3.5463                 1.4424
 IR Inten    --     11.6180                 7.1333                 8.2034

                     73                     74                     75
                      A                      A                      A
 Frequencies --   1419.5153              1443.7842              1482.6501
 Red. masses --      1.2867                 1.3212                 3.2557
 Frc consts  --      1.5276                 1.6227                 4.2167
 IR Inten    --      3.6217                12.4403                 4.5264

                     76                     77                     78
                      A                      A                      A
 Frequencies --   1510.5078              1511.1138              1512.1197
 Red. masses --      1.1463                 1.0951                 1.0808
 Frc consts  --      1.5409                 1.4734                 1.4560
 IR Inten    --      2.7831                 0.9545                10.1397

                     79                     80                     81
                      A                      A                      A
 Frequencies --   1516.1872              1519.5844              1532.6851
 Red. masses --      1.0557                 1.0745                 1.1354
 Frc consts  --      1.4298                 1.4618                 1.5715
 IR Inten    --      8.4564                 4.0423                 1.8947

                     82                     83                     84
                      A                      A                      A
 Frequencies --   1536.3819              1541.5265              1640.7366
 Red. masses --      1.0582                 2.3365                 6.3075
 Frc consts  --      1.4717                 3.2713                10.0043
 IR Inten    --      9.6350                14.9531                 1.3855

                     85                     86                     87
                      A                      A                      A
 Frequencies --   1677.1040              1822.7109              2241.1521
 Red. masses --      6.5676                11.2035                 5.9478
 Frc consts  --     10.8837                21.9300                17.6015
 IR Inten    --      1.6485               202.2015                 1.0419

                     88                     89                     90
                      A                      A                      A
 Frequencies --   3025.8887              3026.9341              3060.5739
 Red. masses --      1.0706                 1.0697                 1.0363
 Frc consts  --      5.7753                 5.7747                 5.7190
 IR Inten    --     31.5400                28.6111                12.4594

                     91                     92                     93
                      A                      A                      A
 Frequencies --   3062.7848              3067.3327              3089.9324
 Red. masses --      1.0664                 1.0583                 1.0932
 Frc consts  --      5.8937                 5.8663                 6.1498
 IR Inten    --     23.3761                24.1925                29.6660

                     94                     95                     96
                      A                      A                      A
 Frequencies --   3093.1163              3098.9670              3106.0079
 Red. masses --      1.0899                 1.0595                 1.0855
 Frc consts  --      6.1436                 5.9951                 6.1701
 IR Inten    --     43.1979                26.9529                10.6174

                     97                     98                     99
                      A                      A                      A
 Frequencies --   3108.1077              3118.2952              3125.3080
 Red. masses --      1.1042                 1.1038                 1.1013
 Frc consts  --      6.2850                 6.3235                 6.3377
 IR Inten    --     10.8250                44.5443                34.8667

                    100                    101                    102
                      A                      A                      A
 Frequencies --   3143.2480              3162.2055              3183.1214
 Red. masses --      1.1032                 1.1085                 1.0904
 Frc consts  --      6.4219                 6.5307                 6.5095
 IR Inten    --      9.7161                23.4926                19.7012

                    103                    104                    105
                      A                      A                      A
 Frequencies --   3184.9818              3210.7314              3498.2558
 Red. masses --      1.0889                 1.0923                 1.1603
 Frc consts  --      6.5078                 6.6346                 8.3662
 IR Inten    --      4.6593                 9.5824                38.0453

 - Thermochemistry -
 -------------------
 Temperature   298.150 Kelvin.  Pressure   1.00000 Atm.
 Atom     1 has atomic number  6 and mass  12.00000

 Molecular mass:   258.12559 amu.
 Principal axes and moments of inertia in atomic units:
                           1         2         3
     Eigenvalues --  2820.365987538.965908544.78933
           X            0.99990  -0.00553   0.01268
           Y            0.00600   0.99927  -0.03775
           Z           -0.01246   0.03783   0.99921
 This molecule is an asymmetric top.
 Rotational symmetry number  1.
 Warning -- assumption of classical behavior for rotation
           may cause significant error
 Rotational temperatures (Kelvin)      0.03071     0.01149     0.01014
 Rotational constants (GHZ):           0.63990     0.23939     0.21121
 Zero-point vibrational energy     807430.4 (Joules/Mol)
                                  192.98050 (Kcal/Mol)
 Warning -- explicit consideration of  28 degrees of freedom as
           vibrations may cause significant error
 Vibrational temperatures:     40.12    51.10    58.14    73.74    95.59
          (Kelvin)            129.09   153.60   205.34   211.59   222.70
                              262.73   307.03   332.22   347.82   373.15
                              446.10   472.25   485.01   522.60   566.53
                              625.61   635.81   670.06   780.31   818.25
                              829.22   839.55   887.99   915.32   923.20
                             1015.84  1061.83  1075.94  1118.96  1153.18
                             1200.35  1228.16  1245.21  1261.04  1276.18
                             1313.50  1323.07  1331.31  1338.50  1374.94
                             1390.89  1403.33  1464.61  1505.86  1528.29
                             1545.17  1603.83  1613.86  1629.34  1668.50
                             1694.79  1734.17  1739.40  1764.86  1796.22
                             1814.77  1844.92  1871.17  1884.03  1890.07
                             1912.46  1932.14  1941.31  1956.03  1977.56
                             1999.15  2020.90  2042.37  2077.28  2133.20
                             2173.28  2174.16  2175.60  2181.46  2186.34
                             2205.19  2210.51  2217.91  2360.65  2412.98
                             2622.47  3224.52  4353.58  4355.08  4403.48
                             4406.66  4413.21  4445.72  4450.30  4458.72
                             4468.85  4471.87  4486.53  4496.62  4522.43
                             4549.71  4579.80  4582.48  4619.53  5033.21

 Zero-point correction=                           0.307534 (Hartree/Particle)
 Thermal correction to Energy=                    0.325979
 Thermal correction to Enthalpy=                  0.326923
 Thermal correction to Gibbs Free Energy=         0.259353
 Sum of electronic and zero-point Energies=           -845.901938
 Sum of electronic and thermal Energies=              -845.883493
 Sum of electronic and thermal Enthalpies=            -845.882549
 Sum of electronic and thermal Free Energies=         -845.950119

                     E (Thermal)             CV                S
                      KCal/Mol        Cal/Mol-Kelvin    Cal/Mol-Kelvin
 Total                  204.555             69.164            142.213
 Electronic               0.000              0.000              0.000
 Translational            0.889              2.981             42.545
 Rotational               0.889              2.981             33.563
 Vibrational            202.777             63.203             66.106
 Vibration     1          0.593              1.984              5.975
 Vibration     2          0.594              1.982              5.495
 Vibration     3          0.594              1.981              5.239
 Vibration     4          0.596              1.977              4.769
 Vibration     5          0.598              1.970              4.256
 Vibration     6          0.602              1.956              3.666
 Vibration     7          0.606              1.944              3.327
 Vibration     8          0.616              1.910              2.767
 Vibration     9          0.617              1.906              2.710
 Vibration    10          0.620              1.897              2.613
 Vibration    11          0.630              1.863              2.302
 Vibration    12          0.644              1.821              2.014
 Vibration    13          0.653              1.794              1.872
 Vibration    14          0.658              1.776              1.790
 Vibration    15          0.668              1.747              1.666
 Vibration    16          0.699              1.655              1.362
 Vibration    17          0.711              1.619              1.269
 Vibration    18          0.718              1.601              1.226
 Vibration    19          0.737              1.548              1.108
 Vibration    20          0.761              1.484              0.986
 Vibration    21          0.795              1.394              0.843
 Vibration    22          0.802              1.379              0.821
 Vibration    23          0.823              1.326              0.750
 Vibration    24          0.897              1.156              0.560
 Vibration    25          0.925              1.099              0.507
 Vibration    26          0.933              1.082              0.492
 Vibration    27          0.940              1.067              0.479
 Vibration    28          0.977              0.996              0.421

 Optimization completed.
    -- Stationary point found.
 Normal termination of Gaussian 16 at Sat Dec 12 10:31:55 2020.

 ----------------------------------------------------------------------
 # B3LYP/6-311++G(d,p) empiricaldispersion=gd3bj scf=xqc pop=npa geom=c
 heck
 ----------------------------------------------------------------------

 ---------------------------------------
 CID_140017103_JID_9383_Energie_neutraal
 ---------------------------------------
 Structure from the checkpoint file:  "JID_9383.chk"
 Charge =  0 Multiplicity = 1

 SCF Done:  E(RB3LYP) =  -846.444008483     A.U. after   16 cycles
 Normal termination of Gaussian 16 at Sat Dec 12 10:40:38 2020.

 ----------------------------------------------------------------------
 # B3LYP/6-311++G(d,p) empiricaldispersion=gd3bj scf=xqc pop=npa geom=c
 heck
 ----------------------------------------------------------------------

 -------------------------------------
 CID_140017103_JID_9383_Energie_kation
 -------------------------------------
 Structure from the checkpoint file:  "JID_9383.chk"
 Charge =  1 Multiplicity = 2

 SCF Done:  E(UB3LYP) =  -846.139022053     A.U. after   29 cycles
 Normal termination of Gaussian 16 at Sat Dec 12 11:03:13 2020.
 Gaussian 16:  ES64L-G16RevA.03 25-Dec-2016

 ----------------------------------------------------------------------
 # B3LYP/6-311++G(d,p) empiricaldispersion=gd3bj scf=xqc pop=npa geom=c
 heck
 ----------------------------------------------------------------------

 ------------------------------------
 CID_140017103_JID_9383_Energie_anion
 ------------------------------------
 Structure from the checkpoint file:  "JID_9383.chk"
 Charge = -1 Multiplicity = 2

                         Standard orientation:
 ---------------------------------------------------------------------
 Center     Atomic      Atomic             Coordinates (Angstroms)
 Number     Number       Type             X           Y           Z
 ---------------------------------------------------------------------
      1          6           0        3.848815   -2.077715    1.153554
      2          6           0        4.249925   -0.809553    0.418262
      3          8           0        3.095522    0.023325    0.146931
      4          6           0        2.380243   -0.291685   -0.953938
      5          8           0        2.647523   -1.205488   -1.702331
      6          6           0        1.164991    0.618700   -1.152488
      7          6           0       -0.090186    0.008964   -0.555728
      8          6           0       -1.316905    0.260227   -1.184122
      9          6           0       -2.491113   -0.209865   -0.613391
     10          6           0       -2.456492   -0.939295    0.584473
     11          6           0       -3.857658   -1.317958    1.011341
     12          6           0       -4.682025   -1.123452   -0.285569
     13          6           0       -3.918525   -0.038890   -1.085361
     14          6           0       -1.242334   -1.204410    1.208429
     15          6           0       -0.061601   -0.729043    0.633635
     16          8           0        1.408928    1.971164   -0.763704
     17          6           0        1.237003    2.309075    0.613355
     18          6           0       -0.143734    2.656056    0.968201
     19          6           0       -1.266467    2.964828    1.285373
     20          1           0        3.332160   -1.838345    2.089040
     21          1           0        4.740692   -2.666528    1.395524
     22          1           0        3.191569   -2.688549    0.529164
     23          1           0        4.901253   -0.177036    1.025216
     24          1           0        4.742682   -1.039442   -0.528841
     25          1           0        1.039572    0.675273   -2.236776
     26          1           0       -1.338496    0.837352   -2.105415
     27          1           0       -4.207204   -0.638218    1.802281
     28          1           0       -3.928720   -2.334488    1.413411
     29          1           0       -4.678815   -2.059224   -0.856430
     30          1           0       -5.725353   -0.857274   -0.092569
     31          1           0       -4.033069   -0.148604   -2.169132
     32          1           0       -4.282088    0.966487   -0.827177
     33          1           0       -1.205390   -1.776823    2.131800
     34          1           0        0.887400   -0.932748    1.119226
     35          1           0        1.606920    1.512066    1.265889
     36          1           0        1.883741    3.179766    0.767638
     37          1           0       -2.266262    3.218424    1.553835
 ---------------------------------------------------------------------

 SCF Done:  E(UB3LYP) =  -846.432529921     A.U. after   33 cycles
 SCF Done:  E(UB3LYP) =  -846.432529921     a.u. after    1 cycles

 The electronic state is 2-A.
 Alpha  occ. eigenvalues --  -19.07314 -19.03746 -19.01267 -10.19898 -10.14606
 Alpha  occ. eigenvalues --  -10.14073 -10.13494 -10.07798 -10.07609 -10.07589
 Alpha  occ. eigenvalues --  -10.07566 -10.07546 -10.07220 -10.07219 -10.07206
 Alpha  occ. eigenvalues --  -10.06901 -10.06898 -10.06707 -10.06410  -1.01278
 Alpha  occ. eigenvalues --   -0.94628  -0.92497  -0.77226  -0.72249  -0.69300
 Alpha  occ. eigenvalues --   -0.67817  -0.66078  -0.64279  -0.61343  -0.59577
 Alpha  occ. eigenvalues --   -0.58273  -0.54973  -0.51195  -0.48469  -0.47740
 Alpha  occ. eigenvalues --   -0.46097  -0.44971  -0.42190  -0.41447  -0.40791
 Alpha  occ. eigenvalues --   -0.39268  -0.38043  -0.37754  -0.36730  -0.36288
 Alpha  occ. eigenvalues --   -0.35265  -0.34319  -0.33462  -0.31605  -0.31469
 Alpha  occ. eigenvalues --   -0.30938  -0.30264  -0.28969  -0.28340  -0.27324
 Alpha  occ. eigenvalues --   -0.26607  -0.25686  -0.25372  -0.24743  -0.23657
 Alpha  occ. eigenvalues --   -0.23362  -0.22591  -0.21360  -0.20960  -0.18915
 Alpha  occ. eigenvalues --   -0.17708  -0.16466  -0.14872  -0.13799   0.04308
 Alpha virt. eigenvalues --    0.05504   0.06620   0.07592   0.07931   0.08141
 Alpha virt. eigenvalues --    0.08329   0.08994   0.09068   0.09637   0.09794
 Alpha virt. eigenvalues --    0.09968   0.10453   0.10807   0.11189   0.11738

  Beta  occ. eigenvalues --  -19.07312 -19.03707 -19.01197 -10.19832 -10.14601
  Beta  occ. eigenvalues --  -10.14075 -10.13476 -10.07789 -10.07595 -10.07559
  Beta  occ. eigenvalues --  -10.07536 -10.07522 -10.07252 -10.07226 -10.07184
  Beta  occ. eigenvalues --  -10.06884 -10.06808 -10.06643 -10.06287  -1.01215
  Beta  occ. eigenvalues --   -0.94540  -0.92407  -0.77105  -0.72148  -0.69243
  Beta  occ. eigenvalues --   -0.67769  -0.65945  -0.64194  -0.61277  -0.59502
  Beta  occ. eigenvalues --   -0.58187  -0.54895  -0.51068  -0.48402  -0.47620
  Beta  occ. eigenvalues --   -0.46046  -0.44921  -0.42134  -0.41381  -0.40708
  Beta  occ. eigenvalues --   -0.39188  -0.37997  -0.37683  -0.36644  -0.36207
  Beta  occ. eigenvalues --   -0.35173  -0.34249  -0.33411  -0.31557  -0.31364
  Beta  occ. eigenvalues --   -0.30877  -0.30202  -0.28830  -0.28256  -0.27136
  Beta  occ. eigenvalues --   -0.26548  -0.25632  -0.25343  -0.24698  -0.23513
  Beta  occ. eigenvalues --   -0.23298  -0.22539  -0.21212  -0.20881  -0.18819
  Beta  occ. eigenvalues --   -0.17673  -0.16403  -0.14359  -0.13439
  Beta virt. eigenvalues --    0.06561   0.06777   0.07409   0.07732   0.08120
  Beta virt. eigenvalues --    0.08392   0.08566   0.09174   0.09338   0.09956
  Beta virt. eigenvalues --    0.10193   0.10342   0.10574   0.10969   0.11197

 Mulliken charges and spin densities:
               1          2
     1  C    0.338812  -0.729296
     2  C    0.300856  -0.455397
     3  O    0.021578   0.019037
     4  C   -0.759647   0.233581
     5  O   -0.227104   0.020865
     6  C    0.010783  -0.408787
     7  C    1.285076   0.036598
     8  C   -0.336746   0.226265
     9  C    0.322173  -0.627222
    10  C    0.678635  -0.234942
    11  C   -0.704201   0.155411
    12  C    0.217025  -0.609188
    13  C   -0.638518   0.207273
    14  C   -0.975696   0.580368
    15  C   -0.172443  -0.225310
    16  O    0.017326   0.004183
    17  C   -0.402760  -0.147274
    18  C    0.482157   0.099051
    19  C   -0.236931  -0.286046
    20  H    0.076163   0.069713
    21  H   -0.765730   0.923885
    22  H    0.044374   0.147717
    23  H   -0.406782   0.573968
    24  H    0.153399   0.000965
    25  H    0.180759   0.024634
    26  H    0.167823  -0.007644
    27  H   -0.110719   0.291447
    28  H    0.139818  -0.009491
    29  H    0.179531  -0.051434
    30  H   -0.394589   0.558992
    31  H    0.115556   0.012676
    32  H   -0.052996   0.236801
    33  H    0.144623   0.007425
    34  H    0.221134  -0.132401
    35  H    0.141256   0.068912
    36  H    0.091549   0.099369
    37  H   -0.145544   0.325294
 Sum of Mulliken charges =  -1.00000   1.00000

 Dipole moment (field-independent basis, Debye):
    X=             -1.7005    Y=              1.0739    Z=             -1.6169  Tot=              2.5805
 Quadrupole moment (field-independent basis, Debye-Ang):
   XX=           -220.2445   YY=           -150.2614   ZZ=           -139.2925
   XY=             21.6244   XZ=             -1.5382   YZ=              0.4946

 Summary of Natural Population Analysis:

                                       Natural Population
                Natural  -----------------------------------------------
    Atom  No    Charge         Core      Valence    Rydberg      Total
 -----------------------------------------------------------------------
      C    1   -0.30057      0.99966     2.29569    0.00522     3.30057
      C    2   -0.01644      0.99957     2.00468    0.01219     3.01644
      O    3   -0.28788      0.99986     3.27866    0.00936     4.28788
      C    4    0.41181      0.99967     1.56142    0.02709     2.58819
      O    5   -0.30170      0.99987     3.29681    0.00502     4.30170
      C    6    0.02232      0.99944     1.96262    0.01562     2.97768
      C    7   -0.02401      0.99945     2.01527    0.00929     3.02401
      C    8   -0.06283      0.99943     2.05413    0.00927     3.06283
      C    9   -0.01898      0.99947     2.00979    0.00973     3.01898
      C   10    0.00320      0.99946     1.98794    0.00940     2.99680
      C   11   -0.19800      0.99961     2.19029    0.00810     3.19800
      C   12   -0.18380      0.99965     2.17624    0.00791     3.18380
      C   13   -0.19621      0.99961     2.18813    0.00847     3.19621
      C   14   -0.08916      0.99951     2.08037    0.00927     3.08916
      C   15   -0.10007      0.99949     2.09220    0.00838     3.10007
      O   16   -0.28865      0.99989     3.28013    0.00863     4.28865
      C   17   -0.05526      0.99949     2.04287    0.01290     3.05526
      C   18   -0.01086      0.99936     2.00464    0.00687     3.01086
      C   19   -0.11593      0.99926     2.11273    0.00394     3.11593
      H   20    0.09882      0.00000     0.39995    0.00122     0.40118
      H   21    0.10581      0.00000     0.39194    0.00226     0.39419
      H   22    0.10659      0.00000     0.39237    0.00104     0.39341
      H   23    0.09128      0.00000     0.40708    0.00164     0.40872
      H   24    0.09459      0.00000     0.40416    0.00124     0.40541
      H   25    0.10585      0.00000     0.39284    0.00131     0.39415
      H   26    0.09616      0.00000     0.40272    0.00111     0.40384
      H   27    0.10457      0.00000     0.39361    0.00182     0.39543
      H   28    0.09887      0.00000     0.40025    0.00088     0.40113
      H   29    0.09179      0.00000     0.40723    0.00098     0.40821
      H   30    0.10005      0.00000     0.39823    0.00173     0.39995
      H   31    0.09871      0.00000     0.40039    0.00090     0.40129
      H   32    0.10270      0.00000     0.39557    0.00173     0.39730
      H   33    0.09653      0.00000     0.40250    0.00097     0.40347
      H   34    0.10087      0.00000     0.39741    0.00172     0.39913
      H   35    0.10617      0.00000     0.39247    0.00137     0.39383
      H   36    0.10272      0.00000     0.39610    0.00119     0.39728
      H   37    0.11096      0.00000     0.38779    0.00126     0.38904
 =======================================================================
   * Total *    0.00001     18.99176    49.79721    0.21103    68.99999

 Normal termination of Gaussian 16 at Sat Dec 12 11:29:45 2020.
