 Gaussian 16, Revision A.03,

 -----------------------------------------------------------
 # opt freq B3LYP/6-31G(d) empiricaldispersion=gd3bj scf=xqc
 -----------------------------------------------------------

 -------------------------------
 CID_104470523_JID_6265_neutraal
 -------------------------------
 Symbolic Z-matrix:
 Charge =  0 Multiplicity = 1

 SCF Done:  E(RB3LYP) =  -786.334178289     A.U. after   15 cycles
 SCF Done:  E(RB3LYP) =  -786.338423425     A.U. after   12 cycles
 SCF Done:  E(RB3LYP) =  -786.338489321     A.U. after   12 cycles
 SCF Done:  E(RB3LYP) =  -786.339099914     A.U. after   12 cycles
 SCF Done:  E(RB3LYP) =  -786.339375386     A.U. after   12 cycles
 SCF Done:  E(RB3LYP) =  -786.339384362     A.U. after   12 cycles
 SCF Done:  E(RB3LYP) =  -786.339561385     A.U. after   11 cycles
 SCF Done:  E(RB3LYP) =  -786.339770269     A.U. after   12 cycles
 SCF Done:  E(RB3LYP) =  -786.340093160     A.U. after   15 cycles
 SCF Done:  E(RB3LYP) =  -786.340270903     A.U. after   10 cycles
 SCF Done:  E(RB3LYP) =  -786.340793390     A.U. after    8 cycles
 SCF Done:  E(RB3LYP) =  -786.340793599     A.U. after    8 cycles
 SCF Done:  E(RB3LYP) =  -786.340793681     A.U. after    7 cycles
 SCF Done:  E(RB3LYP) =  -786.340793746     A.U. after    7 cycles
 SCF Done:  E(RB3LYP) =  -786.340793816     A.U. after    7 cycles
 SCF Done:  E(RB3LYP) =  -786.340793875     A.U. after    7 cycles
 Optimization completed.
    -- Stationary point found.
 Normal termination of Gaussian 16 at Thu Dec 10 22:10:18 2020.

 --------------------------------------------------------------------
 #N Geom=AllCheck Guess=TCheck SCRF=Check GenChk RB3LYP/6-31G(d) Freq
 --------------------------------------------------------------------

 Structure from the checkpoint file:  "JID_6265.chk"
 -------------------------------
 CID_104470523_JID_6265_neutraal
 -------------------------------
 Charge =  0 Multiplicity = 1

 SCF Done:  E(RB3LYP) =  -786.340793875     A.U. after    1 cycles

  Exact polarizability: 148.599  -5.146 118.320  -4.407   2.814 120.683
 Approx polarizability: 189.190 -14.184 172.884  -7.703  14.087 185.589

                      1                      2                      3
                      A                      A                      A
 Frequencies --     17.2392                29.0076                40.1857
 Red. masses --      5.8341                 3.9229                 5.0163
 Frc consts  --      0.0010                 0.0019                 0.0048
 IR Inten    --      0.2605                 0.3459                 1.1664

                      4                      5                      6
                      A                      A                      A
 Frequencies --     49.6999                72.9507                82.1115
 Red. masses --      4.6335                 4.2569                 3.4066
 Frc consts  --      0.0067                 0.0133                 0.0135
 IR Inten    --      0.2805                 0.8672                 3.6620

                      7                      8                      9
                      A                      A                      A
 Frequencies --     94.7679               160.5055               167.5344
 Red. masses --      4.4490                 5.9626                 3.5204
 Frc consts  --      0.0235                 0.0905                 0.0582
 IR Inten    --      0.9312                 0.6837                 0.3372

                     10                     11                     12
                      A                      A                      A
 Frequencies --    195.8474               216.9180               228.3132
 Red. masses --      3.2738                 1.6701                 1.1724
 Frc consts  --      0.0740                 0.0463                 0.0360
 IR Inten    --      0.0967                 1.0135                 0.1970

                     13                     14                     15
                      A                      A                      A
 Frequencies --    266.6490               276.6818               303.0487
 Red. masses --      1.9393                 1.6906                 2.5780
 Frc consts  --      0.0812                 0.0763                 0.1395
 IR Inten    --      1.9102                 0.9880                 1.5107

                     16                     17                     18
                      A                      A                      A
 Frequencies --    331.3538               359.9211               389.1188
 Red. masses --      4.3181                 3.1379                 3.6165
 Frc consts  --      0.2793                 0.2395                 0.3226
 IR Inten    --      5.6341                 6.6752                 2.3316

                     19                     20                     21
                      A                      A                      A
 Frequencies --    454.7059               461.9886               494.3216
 Red. masses --      3.3772                 3.6856                 2.5525
 Frc consts  --      0.4114                 0.4635                 0.3675
 IR Inten    --      8.1038                 6.7821                 3.1823

                     22                     23                     24
                      A                      A                      A
 Frequencies --    541.1885               576.7162               594.6057
 Red. masses --      3.7807                 2.5900                 2.5387
 Frc consts  --      0.6524                 0.5075                 0.5288
 IR Inten    --     12.1245                21.2809                33.7541

                     25                     26                     27
                      A                      A                      A
 Frequencies --    600.1827               672.0457               675.1554
 Red. masses --      2.3334                 2.2622                 2.0563
 Frc consts  --      0.4952                 0.6020                 0.5523
 IR Inten    --     18.1424                27.6865                43.1599

                     28                     29                     30
                      A                      A                      A
 Frequencies --    724.5916               747.9727               752.9247
 Red. masses --      1.4945                 3.5889                 2.1330
 Frc consts  --      0.4623                 1.1830                 0.7124
 IR Inten    --     40.0397                17.0964                88.9748

                     31                     32                     33
                      A                      A                      A
 Frequencies --    798.4185               806.2767               862.1355
 Red. masses --      3.0426                 3.2619                 2.2320
 Frc consts  --      1.1428                 1.2494                 0.9775
 IR Inten    --     11.4678                14.3312                 6.9732

                     34                     35                     36
                      A                      A                      A
 Frequencies --    880.7916               895.9398               898.9911
 Red. masses --      2.2094                 2.0882                 2.0824
 Frc consts  --      1.0099                 0.9876                 0.9916
 IR Inten    --      3.0685                14.3820                 5.8825

                     37                     38                     39
                      A                      A                      A
 Frequencies --    926.9210               945.9259               964.1127
 Red. masses --      2.0025                 2.0142                 1.7648
 Frc consts  --      1.0137                 1.0619                 0.9665
 IR Inten    --      4.0142                 0.6700                 6.8953

                     40                     41                     42
                      A                      A                      A
 Frequencies --    995.6757              1012.2308              1023.6921
 Red. masses --      1.9223                 1.5596                 2.2190
 Frc consts  --      1.1228                 0.9415                 1.3701
 IR Inten    --      9.1199                 6.7543                 4.4473

                     43                     44                     45
                      A                      A                      A
 Frequencies --   1065.1543              1072.1314              1089.0245
 Red. masses --      1.6814                 1.9365                 2.1681
 Frc consts  --      1.1240                 1.3115                 1.5149
 IR Inten    --     43.9081                30.5140                32.7763

                     46                     47                     48
                      A                      A                      A
 Frequencies --   1110.5146              1133.0778              1139.1817
 Red. masses --      3.5876                 2.0839                 2.2003
 Frc consts  --      2.6068                 1.5763                 1.6823
 IR Inten    --     77.2526                 0.5181                26.6908

                     49                     50                     51
                      A                      A                      A
 Frequencies --   1171.4694              1205.4948              1206.2871
 Red. masses --      2.6222                 1.3955                 2.8868
 Frc consts  --      2.1202                 1.1949                 2.4750
 IR Inten    --    160.8681                50.6326                18.3002

                     52                     53                     54
                      A                      A                      A
 Frequencies --   1214.9980              1226.1966              1238.5673
 Red. masses --      1.7739                 1.4698                 1.3162
 Frc consts  --      1.5429                 1.3021                 1.1896
 IR Inten    --    111.2463                 8.0790                32.9721

                     55                     56                     57
                      A                      A                      A
 Frequencies --   1270.0070              1311.2835              1314.5173
 Red. masses --      1.2789                 1.4243                 1.3006
 Frc consts  --      1.2153                 1.4430                 1.3242
 IR Inten    --      2.6321                 7.0629                 9.4982

                     58                     59                     60
                      A                      A                      A
 Frequencies --   1325.3931              1330.4693              1353.4237
 Red. masses --      1.5762                 1.3777                 1.2810
 Frc consts  --      1.6314                 1.4369                 1.3826
 IR Inten    --      4.1271                 2.3884                20.8540

                     61                     62                     63
                      A                      A                      A
 Frequencies --   1360.6502              1369.3900              1371.6329
 Red. masses --      1.5906                 1.3619                 1.3525
 Frc consts  --      1.7350                 1.5047                 1.4992
 IR Inten    --     15.9361                23.8808                25.4555

                     64                     65                     66
                      A                      A                      A
 Frequencies --   1380.6674              1406.7043              1411.2557
 Red. masses --      1.6485                 1.4475                 1.6800
 Frc consts  --      1.8514                 1.6876                 1.9713
 IR Inten    --     59.2524                14.4085                56.5510

                     67                     68                     69
                      A                      A                      A
 Frequencies --   1434.0063              1438.4989              1446.7125
 Red. masses --      1.5697                 1.3022                 1.2682
 Frc consts  --      1.9018                 1.5876                 1.5639
 IR Inten    --     25.9473                19.8404                14.8009

                     70                     71                     72
                      A                      A                      A
 Frequencies --   1495.8859              1515.7640              1517.1085
 Red. masses --      1.3770                 1.1212                 1.1219
 Frc consts  --      1.8154                 1.5177                 1.5214
 IR Inten    --     62.7809                19.1117                24.4204

                     73                     74                     75
                      A                      A                      A
 Frequencies --   1525.5512              1527.3754              1534.3628
 Red. masses --      1.0592                 1.0816                 1.0937
 Frc consts  --      1.4524                 1.4867                 1.5170
 IR Inten    --      2.8966                13.7637                 3.8572

                     76                     77                     78
                      A                      A                      A
 Frequencies --   1536.9255              1541.4073              1558.2638
 Red. masses --      1.1080                 1.0624                 1.1008
 Frc consts  --      1.5421                 1.4872                 1.5748
 IR Inten    --     16.9111                 3.5357                 1.6928

                     79                     80                     81
                      A                      A                      A
 Frequencies --   1773.5427              1822.4701              3029.3847
 Red. masses --      8.5619                 9.1093                 1.0859
 Frc consts  --     15.8673                17.8260                 5.8714
 IR Inten    --    439.3386               171.7218                55.1313

                     82                     83                     84
                      A                      A                      A
 Frequencies --   3031.4122              3047.9106              3062.5196
 Red. masses --      1.0819                 1.0659                 1.0362
 Frc consts  --      5.8576                 5.8343                 5.7260
 IR Inten    --      7.3911                31.9714                 9.3831

                     85                     86                     87
                      A                      A                      A
 Frequencies --   3066.5840              3067.8968              3076.0154
 Red. masses --      1.0615                 1.0376                 1.0617
 Frc consts  --      5.8816                 5.7541                 5.9186
 IR Inten    --     25.9880                26.1713                12.3233

                     88                     89                     90
                      A                      A                      A
 Frequencies --   3078.4142              3104.0004              3110.7417
 Red. masses --      1.0661                 1.0804                 1.0992
 Frc consts  --      5.9525                 6.1331                 6.2667
 IR Inten    --     34.2379                14.2058                19.6241

                     91                     92                     93
                      A                      A                      A
 Frequencies --   3115.3947              3127.6659              3128.5590
 Red. masses --      1.1044                 1.1071                 1.1024
 Frc consts  --      6.3155                 6.3809                 6.3575
 IR Inten    --     31.7443                55.0255                20.9513

                     94                     95                     96
                      A                      A                      A
 Frequencies --   3132.2508              3134.7419              3150.2585
 Red. masses --      1.1010                 1.1016                 1.1020
 Frc consts  --      6.3642                 6.3776                 6.4432
 IR Inten    --     22.0869                28.9496                15.0022

                     97                     98                     99
                      A                      A                      A
 Frequencies --   3159.4057              3568.9415              3678.1689
 Red. masses --      1.1013                 1.0753                 1.0640
 Frc consts  --      6.4770                 8.0696                 8.4811
 IR Inten    --     13.8237                77.1289                60.1663

 - Thermochemistry -
 -------------------
 Temperature   298.150 Kelvin.  Pressure   1.00000 Atm.
 Atom     1 has atomic number  6 and mass  12.00000

 Molecular mass:   229.13141 amu.
 Principal axes and moments of inertia in atomic units:
                           1         2         3
     Eigenvalues --  2003.409986493.747046814.99453
           X            0.99984   0.01083  -0.01427
           Y           -0.01188   0.99702  -0.07619
           Z            0.01340   0.07634   0.99699
 This molecule is an asymmetric top.
 Rotational symmetry number  1.
 Warning -- assumption of classical behavior for rotation
           may cause significant error
 Rotational temperatures (Kelvin)      0.04323     0.01334     0.01271
 Rotational constants (GHZ):           0.90083     0.27792     0.26482
 Zero-point vibrational energy     796742.8 (Joules/Mol)
                                  190.42610 (Kcal/Mol)
 Warning -- explicit consideration of  25 degrees of freedom as
           vibrations may cause significant error
 Vibrational temperatures:     24.80    41.74    57.82    71.51   104.96
          (Kelvin)            118.14   136.35   230.93   241.04   281.78
                              312.10   328.49   383.65   398.08   436.02
                              476.74   517.85   559.86   654.22   664.70
                              711.22   778.65   829.77   855.51   863.53
                              966.92   971.40  1042.53  1076.17  1083.29
                             1148.75  1160.05  1240.42  1267.26  1289.06
                             1293.45  1333.63  1360.98  1387.14  1432.56
                             1456.37  1472.86  1532.52  1542.56  1566.86
                             1597.78  1630.25  1639.03  1685.48  1734.44
                             1735.58  1748.11  1764.22  1782.02  1827.26
                             1886.64  1891.30  1906.95  1914.25  1947.27
                             1957.67  1970.25  1973.47  1986.47  2023.93
                             2030.48  2063.22  2069.68  2081.50  2152.25
                             2180.85  2182.78  2194.93  2197.55  2207.61
                             2211.29  2217.74  2241.99  2551.73  2622.13
                             4358.61  4361.53  4385.26  4406.28  4412.13
                             4414.02  4425.70  4429.15  4465.96  4475.66
                             4482.36  4500.01  4501.30  4506.61  4510.19
                             4532.52  4545.68  5134.91  5292.06

 Zero-point correction=                           0.303463 (Hartree/Particle)
 Thermal correction to Energy=                    0.320333
 Thermal correction to Enthalpy=                  0.321277
 Thermal correction to Gibbs Free Energy=         0.256321
 Sum of electronic and zero-point Energies=           -786.037331
 Sum of electronic and thermal Energies=              -786.020461
 Sum of electronic and thermal Enthalpies=            -786.019517
 Sum of electronic and thermal Free Energies=         -786.084473

                     E (Thermal)             CV                S
                      KCal/Mol        Cal/Mol-Kelvin    Cal/Mol-Kelvin
 Total                  201.012             62.189            136.711
 Electronic               0.000              0.000              0.000
 Translational            0.889              2.981             42.189
 Rotational               0.889              2.981             32.850
 Vibrational            199.234             56.227             61.672
 Vibration     1          0.593              1.986              6.929
 Vibration     2          0.593              1.984              5.896
 Vibration     3          0.594              1.981              5.250
 Vibration     4          0.595              1.978              4.829
 Vibration     5          0.599              1.967              4.072
 Vibration     6          0.600              1.961              3.840
 Vibration     7          0.603              1.953              3.559
 Vibration     8          0.622              1.891              2.544
 Vibration     9          0.624              1.882              2.463
 Vibration    10          0.636              1.846              2.172
 Vibration    11          0.646              1.815              1.985
 Vibration    12          0.651              1.798              1.892
 Vibration    13          0.672              1.734              1.618
 Vibration    14          0.678              1.717              1.554
 Vibration    15          0.694              1.668              1.400
 Vibration    16          0.714              1.613              1.253
 Vibration    17          0.734              1.555              1.122
 Vibration    18          0.757              1.493              1.004
 Vibration    19          0.813              1.350              0.782
 Vibration    20          0.820              1.334              0.760
 Vibration    21          0.850              1.263              0.672
 Vibration    22          0.896              1.159              0.563
 Vibration    23          0.933              1.082              0.491
 Vibration    24          0.952              1.043              0.459
 Vibration    25          0.958              1.031              0.449

 Optimization completed.
    -- Stationary point found.
 Normal termination of Gaussian 16 at Thu Dec 10 22:22:46 2020.

 ----------------------------------------------------------------------
 # B3LYP/6-311++G(d,p) empiricaldispersion=gd3bj scf=xqc pop=npa geom=c
 heck
 ----------------------------------------------------------------------

 ---------------------------------------
 CID_104470523_JID_6265_Energie_neutraal
 ---------------------------------------
 Structure from the checkpoint file:  "JID_6265.chk"
 Charge =  0 Multiplicity = 1

 SCF Done:  E(RB3LYP) =  -786.580442084     A.U. after   15 cycles
 Normal termination of Gaussian 16 at Thu Dec 10 22:28:36 2020.

 ----------------------------------------------------------------------
 # B3LYP/6-311++G(d,p) empiricaldispersion=gd3bj scf=xqc pop=npa geom=c
 heck
 ----------------------------------------------------------------------

 -------------------------------------
 CID_104470523_JID_6265_Energie_kation
 -------------------------------------
 Structure from the checkpoint file:  "JID_6265.chk"
 Charge =  1 Multiplicity = 2

 SCF Done:  E(UB3LYP) =  -786.270284780     A.U. after   29 cycles
 Normal termination of Gaussian 16 at Thu Dec 10 22:43:54 2020.
 Gaussian 16:  ES64L-G16RevA.03 25-Dec-2016

 ----------------------------------------------------------------------
 # B3LYP/6-311++G(d,p) empiricaldispersion=gd3bj scf=xqc pop=npa geom=c
 heck
 ----------------------------------------------------------------------

 ------------------------------------
 CID_104470523_JID_6265_Energie_anion
 ------------------------------------
 Structure from the checkpoint file:  "JID_6265.chk"
 Charge = -1 Multiplicity = 2

                         Standard orientation:
 ---------------------------------------------------------------------
 Center     Atomic      Atomic             Coordinates (Angstroms)
 Number     Number       Type             X           Y           Z
 ---------------------------------------------------------------------
      1          6           0       -2.885152    1.246264    1.573790
      2          6           0       -2.121128    0.679233    0.366411
      3          6           0       -1.235323   -0.534374    0.739346
      4          6           0       -2.024418   -1.744466    1.257895
      5          7           0       -0.380343   -0.891591   -0.386577
      6          6           0        0.925260   -1.319482   -0.386563
      7          8           0        1.443858   -1.716750   -1.424012
      8          6           0        1.722224   -1.227208    0.908605
      9          6           0        2.670775   -0.009009    0.963303
     10          6           0        2.016514    1.352256    0.609179
     11          6           0        3.034870    1.998569   -0.345183
     12          6           0        3.656663    0.763842   -0.999511
     13          8           0        3.766606   -0.182442    0.063453
     14          6           0       -3.040694    0.386383   -0.808980
     15          8           0       -2.952031   -0.557083   -1.570072
     16          8           0       -3.990648    1.335384   -0.965189
     17          1           0       -3.661393    0.557724    1.920479
     18          1           0       -3.366371    2.192645    1.319736
     19          1           0       -2.191280    1.421931    2.402615
     20          1           0       -1.439715    1.461245    0.000420
     21          1           0       -0.586700   -0.172238    1.540658
     22          1           0       -2.684593   -2.135019    0.478712
     23          1           0       -1.329036   -2.539591    1.544076
     24          1           0       -2.627200   -1.488382    2.135601
     25          1           0       -0.871689   -1.083022   -1.254071
     26          1           0        1.082116   -1.218498    1.796542
     27          1           0        2.342876   -2.125660    0.956890
     28          1           0        3.098211    0.019563    1.974349
     29          1           0        1.066169    1.199907    0.088162
     30          1           0        1.817599    1.955467    1.500111
     31          1           0        2.573932    2.684000   -1.063273
     32          1           0        3.797813    2.548372    0.217110
     33          1           0        3.018074    0.365305   -1.798859
     34          1           0        4.661844    0.931709   -1.396913
     35          1           0       -4.498076    1.080746   -1.759491
 ---------------------------------------------------------------------

 SCF Done:  E(UB3LYP) =  -786.576465863     A.U. after   29 cycles

 The electronic state is 2-A.
 Alpha  occ. eigenvalues --  -19.07544 -19.02424 -19.02166 -18.98527 -14.23167
 Alpha  occ. eigenvalues --  -10.21019 -10.17389 -10.13348 -10.12713 -10.11840
 Alpha  occ. eigenvalues --  -10.10198 -10.08227 -10.08026 -10.07631 -10.07137
 Alpha  occ. eigenvalues --  -10.06884  -1.01829  -0.94614  -0.93575  -0.92787
 Alpha  occ. eigenvalues --   -0.82751  -0.71727  -0.69591  -0.68223  -0.64428
 Alpha  occ. eigenvalues --   -0.60647  -0.57649  -0.55391  -0.51153  -0.50275
 Alpha  occ. eigenvalues --   -0.48632  -0.46449  -0.42306  -0.40995  -0.40485
 Alpha  occ. eigenvalues --   -0.39710  -0.39281  -0.37899  -0.36229  -0.35852
 Alpha  occ. eigenvalues --   -0.33611  -0.33398  -0.32533  -0.32429  -0.31758
 Alpha  occ. eigenvalues --   -0.31020  -0.29888  -0.29786  -0.28547  -0.28343
 Alpha  occ. eigenvalues --   -0.27253  -0.26426  -0.26162  -0.25306  -0.24624
 Alpha  occ. eigenvalues --   -0.24202  -0.23422  -0.22511  -0.18974  -0.16788
 Alpha  occ. eigenvalues --   -0.15741  -0.14889   0.03774
 Alpha virt. eigenvalues --    0.05928   0.06865   0.07358   0.08101   0.08441
 Alpha virt. eigenvalues --    0.09004   0.09583   0.10075   0.10450   0.10877
 Alpha virt. eigenvalues --    0.11050   0.11719   0.12256   0.12556   0.12919

  Beta  occ. eigenvalues --  -19.07491 -19.02423 -19.02099 -18.98519 -14.23164
  Beta  occ. eigenvalues --  -10.20941 -10.17384 -10.13339 -10.12702 -10.11838
  Beta  occ. eigenvalues --  -10.10190 -10.08217 -10.08017 -10.07603 -10.07117
  Beta  occ. eigenvalues --  -10.06825  -1.01708  -0.94606  -0.93560  -0.92672
  Beta  occ. eigenvalues --   -0.82736  -0.71667  -0.69561  -0.68204  -0.64373
  Beta  occ. eigenvalues --   -0.60621  -0.57519  -0.55293  -0.51112  -0.50255
  Beta  occ. eigenvalues --   -0.48536  -0.46420  -0.42271  -0.40905  -0.40415
  Beta  occ. eigenvalues --   -0.39614  -0.39239  -0.37869  -0.36200  -0.35676
  Beta  occ. eigenvalues --   -0.33563  -0.33320  -0.32512  -0.32398  -0.31719
  Beta  occ. eigenvalues --   -0.30993  -0.29845  -0.29751  -0.28469  -0.28309
  Beta  occ. eigenvalues --   -0.27221  -0.26380  -0.26120  -0.25265  -0.24588
  Beta  occ. eigenvalues --   -0.24180  -0.23171  -0.22494  -0.18883  -0.16780
  Beta  occ. eigenvalues --   -0.15720  -0.14878
  Beta virt. eigenvalues --    0.06233   0.06950   0.07224   0.08077   0.08445
  Beta virt. eigenvalues --    0.08935   0.09319   0.09859   0.10487   0.10627
  Beta virt. eigenvalues --    0.10997   0.11303   0.11982   0.12442   0.12632

 Mulliken charges and spin densities:
               1          2
     1  C    1.457097  -2.102896
     2  C   -0.312175   0.660702
     3  C   -0.192478  -0.399291
     4  C    0.052964  -0.590217
     5  N   -0.064526   0.104945
     6  C   -0.084096  -0.110110
     7  O   -0.309128   0.002968
     8  C    0.339262  -0.060789
     9  C   -0.128429  -0.435794
    10  C   -0.298619   0.164160
    11  C    0.069522  -0.432633
    12  C   -0.323550   0.064522
    13  O   -0.076842   0.005738
    14  C   -0.398527   0.274351
    15  O   -0.275814   0.003191
    16  O   -0.177406   0.056281
    17  H   -0.025403   0.191007
    18  H   -0.119831   0.308409
    19  H   -0.696951   0.842195
    20  H   -0.637345   0.921552
    21  H    0.870576  -0.720653
    22  H    0.155813   0.043296
    23  H    0.133395   0.001459
    24  H   -0.297972   0.436230
    25  H    0.364061  -0.042715
    26  H   -0.327445   0.489472
    27  H    0.191689   0.049393
    28  H   -0.005669   0.218743
    29  H    0.698328  -0.596885
    30  H   -0.545937   0.721763
    31  H   -0.064166   0.201022
    32  H    0.087335   0.060939
    33  H    0.140415   0.027116
    34  H    0.140358   0.011328
    35  H   -0.338508   0.631198
 Sum of Mulliken charges =  -1.00000   1.00000

 Dipole moment (field-independent basis, Debye):
    X=              3.2676    Y=             -2.2101    Z=             -0.8683  Tot=              4.0393
 Quadrupole moment (field-independent basis, Debye-Ang):
   XX=           -166.9883   YY=           -138.0524   ZZ=           -141.6228
   XY=             13.9353   XZ=             -2.4881   YZ=            -11.1561

 Summary of Natural Population Analysis:

                                       Natural Population
                Natural  -----------------------------------------------
    Atom  No    Charge         Core      Valence    Rydberg      Total
 -----------------------------------------------------------------------
      C    1   -0.28336      0.99965     2.27755    0.00616     3.28336
      C    2   -0.15883      0.99953     2.14726    0.01204     3.15883
      C    3   -0.01097      0.99958     1.99782    0.01358     3.01097
      C    4   -0.29309      0.99963     2.28773    0.00572     3.29309
      N    5   -0.32649      0.99965     2.81713    0.00970     3.82649
      C    6    0.34443      0.99967     1.63269    0.02321     2.65557
      O    7   -0.32526      0.99988     3.31977    0.00561     4.32526
      C    8   -0.24329      0.99956     2.23477    0.00896     3.24329
      C    9    0.07043      0.99957     1.91368    0.01633     2.92957
      C   10   -0.20909      0.99962     2.20047    0.00901     3.20909
      C   11   -0.20274      0.99964     2.19555    0.00754     3.20274
      C   12   -0.01249      0.99960     2.00220    0.01069     3.01249
      O   13   -0.30342      0.99989     3.29518    0.00836     4.30342
      C   14    0.42455      0.99968     1.55019    0.02558     2.57545
      O   15   -0.31690      0.99987     3.31118    0.00585     4.31690
      O   16   -0.34101      0.99988     3.33449    0.00665     4.34101
      H   17    0.09975      0.00000     0.39884    0.00141     0.40025
      H   18    0.11140      0.00000     0.38709    0.00151     0.38860
      H   19    0.10434      0.00000     0.39311    0.00256     0.39566
      H   20    0.12130      0.00000     0.37614    0.00257     0.37870
      H   21    0.10197      0.00000     0.39514    0.00289     0.39803
      H   22    0.10675      0.00000     0.39229    0.00095     0.39325
      H   23    0.10055      0.00000     0.39869    0.00077     0.39945
      H   24    0.10241      0.00000     0.39676    0.00083     0.39759
      H   25    0.20731      0.00000     0.29022    0.00246     0.29269
      H   26    0.10376      0.00000     0.39481    0.00143     0.39624
      H   27    0.11586      0.00000     0.38304    0.00110     0.38414
      H   28    0.08814      0.00000     0.41046    0.00141     0.41186
      H   29    0.10132      0.00000     0.39627    0.00240     0.39868
      H   30    0.10860      0.00000     0.38955    0.00185     0.39140
      H   31    0.10228      0.00000     0.39690    0.00082     0.39772
      H   32    0.09535      0.00000     0.40360    0.00105     0.40465
      H   33    0.08878      0.00000     0.40973    0.00149     0.41122
      H   34    0.08546      0.00000     0.41341    0.00113     0.41454
      H   35    0.24220      0.00000     0.24934    0.00846     0.25780
 =======================================================================
   * Total *   -0.00000     15.99488    45.79303    0.21209    62.00000

 Normal termination of Gaussian 16 at Thu Dec 10 22:58:46 2020.
