 Gaussian 16, Revision A.03,

 -----------------------------------------------------------
 # opt freq B3LYP/6-31G(d) empiricaldispersion=gd3bj scf=xqc
 -----------------------------------------------------------

 ------------------------------
 CID_89317434_JID_5697_neutraal
 ------------------------------
 Symbolic Z-matrix:
 Charge =  0 Multiplicity = 1

 SCF Done:  E(RB3LYP) =  -727.104406811     A.U. after   15 cycles
 SCF Done:  E(RB3LYP) =  -727.112088663     A.U. after   13 cycles
 SCF Done:  E(RB3LYP) =  -727.114310089     A.U. after   14 cycles
 SCF Done:  E(RB3LYP) =  -727.115521902     A.U. after   13 cycles
 SCF Done:  E(RB3LYP) =  -727.119759488     A.U. after   13 cycles
 SCF Done:  E(RB3LYP) =  -727.124020280     A.U. after   13 cycles
 SCF Done:  E(RB3LYP) =  -727.126795416     A.U. after   12 cycles
 SCF Done:  E(RB3LYP) =  -727.126459794     A.U. after   12 cycles
 SCF Done:  E(RB3LYP) =  -727.129520626     A.U. after   12 cycles
 SCF Done:  E(RB3LYP) =  -727.130103649     A.U. after   12 cycles
 SCF Done:  E(RB3LYP) =  -727.130592500     A.U. after   10 cycles
 SCF Done:  E(RB3LYP) =  -727.130596831     A.U. after    9 cycles
 SCF Done:  E(RB3LYP) =  -727.130598083     A.U. after    8 cycles
 SCF Done:  E(RB3LYP) =  -727.130598364     A.U. after    8 cycles
 SCF Done:  E(RB3LYP) =  -727.130598449     A.U. after    7 cycles
 Optimization completed.
    -- Stationary point found.
 Normal termination of Gaussian 16 at Thu Dec 10 16:40:57 2020.

 --------------------------------------------------------------------
 #N Geom=AllCheck Guess=TCheck SCRF=Check GenChk RB3LYP/6-31G(d) Freq
 --------------------------------------------------------------------

 Structure from the checkpoint file:  "JID_5697.chk"
 ------------------------------
 CID_89317434_JID_5697_neutraal
 ------------------------------
 Charge =  0 Multiplicity = 1

 SCF Done:  E(RB3LYP) =  -727.130598449     A.U. after    1 cycles

  Exact polarizability: 158.894   6.170 128.222   1.599  -2.971  98.531
 Approx polarizability: 204.169  -0.052 169.042   5.203 -13.258 163.616

                      1                      2                      3
                      A                      A                      A
 Frequencies --     36.9769                55.3623                56.8800
 Red. masses --      4.1183                 3.0090                 3.2398
 Frc consts  --      0.0033                 0.0054                 0.0062
 IR Inten    --      0.8562                 0.7741                 0.5776

                      4                      5                      6
                      A                      A                      A
 Frequencies --     73.2371                98.6822               104.1855
 Red. masses --      3.6481                 3.1949                 3.8375
 Frc consts  --      0.0115                 0.0183                 0.0245
 IR Inten    --      0.1332                 2.3446                 3.1339

                      7                      8                      9
                      A                      A                      A
 Frequencies --    121.8976               155.0232               201.4197
 Red. masses --      3.5594                 6.5254                 1.3816
 Frc consts  --      0.0312                 0.0924                 0.0330
 IR Inten    --      0.2323                 2.5733                 3.5286

                     10                     11                     12
                      A                      A                      A
 Frequencies --    222.1906               228.9735               251.0388
 Red. masses --      1.7856                 1.6245                 1.7871
 Frc consts  --      0.0519                 0.0502                 0.0664
 IR Inten    --      8.3408                 0.7448                 2.2562

                     13                     14                     15
                      A                      A                      A
 Frequencies --    285.7704               326.3428               338.0073
 Red. masses --      2.9870                 2.8574                 2.9563
 Frc consts  --      0.1437                 0.1793                 0.1990
 IR Inten    --     14.5952                 3.3897                 2.9376

                     16                     17                     18
                      A                      A                      A
 Frequencies --    349.4885               381.7643               422.1343
 Red. masses --      2.7223                 4.4077                 1.8560
 Frc consts  --      0.1959                 0.3785                 0.1949
 IR Inten    --      8.4016                 2.3061                 0.9294

                     19                     20                     21
                      A                      A                      A
 Frequencies --    449.7585               489.9771               516.4423
 Red. masses --      3.1310                 2.6543                 5.2614
 Frc consts  --      0.3732                 0.3754                 0.8268
 IR Inten    --      2.4389                 0.7537                17.9128

                     22                     23                     24
                      A                      A                      A
 Frequencies --    552.1357               607.8237               673.8628
 Red. masses --      3.7567                 2.3517                 3.6057
 Frc consts  --      0.6748                 0.5119                 0.9647
 IR Inten    --      7.7962                22.6342                 2.5605

                     25                     26                     27
                      A                      A                      A
 Frequencies --    720.8218               749.4422               787.0917
 Red. masses --      3.2800                 3.4504                 2.5558
 Frc consts  --      1.0041                 1.1418                 0.9329
 IR Inten    --      4.2038                 3.2316                18.9864

                     28                     29                     30
                      A                      A                      A
 Frequencies --    818.2327               823.3655               867.7157
 Red. masses --      1.7170                 1.3502                 1.7339
 Frc consts  --      0.6773                 0.5393                 0.7692
 IR Inten    --      4.6921                 8.2139                 2.3095

                     31                     32                     33
                      A                      A                      A
 Frequencies --    882.7084               897.2410               934.4437
 Red. masses --      2.9007                 3.1289                 2.3839
 Frc consts  --      1.3316                 1.4841                 1.2265
 IR Inten    --      5.9861                23.8515                 1.6125

                     34                     35                     36
                      A                      A                      A
 Frequencies --    957.6570               968.4141              1015.4134
 Red. masses --      3.3395                 2.4691                 2.7084
 Frc consts  --      1.8045                 1.3643                 1.6453
 IR Inten    --      5.2110                33.9928                57.0581

                     37                     38                     39
                      A                      A                      A
 Frequencies --   1037.6773              1064.1277              1086.1150
 Red. masses --      2.2497                 2.5434                 2.4625
 Frc consts  --      1.4273                 1.6969                 1.7115
 IR Inten    --      4.5547                25.3276                63.6405

                     40                     41                     42
                      A                      A                      A
 Frequencies --   1102.3747              1108.9601              1124.8554
 Red. masses --      1.7584                 2.2940                 1.7844
 Frc consts  --      1.2590                 1.6621                 1.3302
 IR Inten    --      5.5475                43.7368                30.4138

                     43                     44                     45
                      A                      A                      A
 Frequencies --   1138.6176              1156.8831              1162.0117
 Red. masses --      2.2157                 2.0481                 5.9231
 Frc consts  --      1.6924                 1.6150                 4.7122
 IR Inten    --     81.6661                 5.3591               109.6324

                     46                     47                     48
                      A                      A                      A
 Frequencies --   1209.8476              1220.6321              1254.6149
 Red. masses --      1.8152                 4.3766                 1.0995
 Frc consts  --      1.5655                 3.8420                 1.0197
 IR Inten    --      8.5655               208.0139                13.9104

                     49                     50                     51
                      A                      A                      A
 Frequencies --   1270.2839              1290.3301              1314.9673
 Red. masses --      1.4436                 1.8955                 1.3353
 Frc consts  --      1.3724                 1.8594                 1.3604
 IR Inten    --     89.4260               404.7463                28.0949

                     52                     53                     54
                      A                      A                      A
 Frequencies --   1324.1666              1345.0984              1346.6538
 Red. masses --      1.7621                 1.1223                 1.2286
 Frc consts  --      1.8204                 1.1964                 1.3128
 IR Inten    --    177.5039                27.4238                15.8483

                     55                     56                     57
                      A                      A                      A
 Frequencies --   1365.2452              1384.2142              1411.1701
 Red. masses --      1.4763                 1.2490                 1.2888
 Frc consts  --      1.6212                 1.4100                 1.5122
 IR Inten    --     14.3927                 2.7021                18.6634

                     58                     59                     60
                      A                      A                      A
 Frequencies --   1416.8360              1421.7742              1435.7194
 Red. masses --      1.2945                 1.4517                 1.2500
 Frc consts  --      1.5310                 1.7290                 1.5182
 IR Inten    --     44.5254                 2.8571                10.1780

                     61                     62                     63
                      A                      A                      A
 Frequencies --   1441.8033              1446.6810              1471.0851
 Red. masses --      1.3483                 1.3631                 2.7213
 Frc consts  --      1.6514                 1.6808                 3.4698
 IR Inten    --     14.8770                 5.3085               123.3392

                     64                     65                     66
                      A                      A                      A
 Frequencies --   1502.0393              1513.1428              1513.8163
 Red. masses --      1.1070                 1.0845                 1.1131
 Frc consts  --      1.4715                 1.4629                 1.5029
 IR Inten    --     10.4235                 0.9833                12.2619

                     67                     68                     69
                      A                      A                      A
 Frequencies --   1514.7752              1519.2010              1526.8909
 Red. masses --      1.0699                 1.0802                 1.0837
 Frc consts  --      1.4464                 1.4688                 1.4886
 IR Inten    --     16.2666                13.6829                 5.1106

                     70                     71                     72
                      A                      A                      A
 Frequencies --   1528.1885              1531.0942              1539.8394
 Red. masses --      1.0799                 1.0519                 1.0572
 Frc consts  --      1.4859                 1.4529                 1.4770
 IR Inten    --      5.3928                 0.2623                 7.1879

                     73                     74                     75
                      A                      A                      A
 Frequencies --   1543.5519              1694.4485              1753.7697
 Red. masses --      1.0983                 8.9654                10.9253
 Frc consts  --      1.5418                15.1662                19.7984
 IR Inten    --     17.1527               584.9152               244.8687

                     76                     77                     78
                      A                      A                      A
 Frequencies --   2991.0258              2998.6889              3028.1586
 Red. masses --      1.0712                 1.0714                 1.0728
 Frc consts  --      5.6462                 5.6764                 5.7962
 IR Inten    --     28.0122                71.4457                34.0917

                     79                     80                     81
                      A                      A                      A
 Frequencies --   3056.9751              3057.9578              3065.6870
 Red. masses --      1.0361                 1.0357                 1.0659
 Frc consts  --      5.7048                 5.7063                 5.9022
 IR Inten    --     19.1117                23.8175                12.2916

                     82                     83                     84
                      A                      A                      A
 Frequencies --   3078.0239              3089.2286              3117.4167
 Red. masses --      1.0646                 1.0590                 1.1012
 Frc consts  --      5.9429                 5.9548                 6.3056
 IR Inten    --     22.3019                35.6135                14.8231

                     85                     86                     87
                      A                      A                      A
 Frequencies --   3118.2700              3120.7964              3123.0360
 Red. masses --      1.0941                 1.1020                 1.0943
 Frc consts  --      6.2683                 6.3237                 6.2884
 IR Inten    --     41.1347                29.5846                28.4636

                     88                     89                     90
                      A                      A                      A
 Frequencies --   3133.6999              3135.5554              3144.0552
 Red. masses --      1.1001                 1.1035                 1.1034
 Frc consts  --      6.3649                 6.3923                 6.4265
 IR Inten    --     22.6110                11.9128                23.8459

                     91                     92                     93
                      A                      A                      A
 Frequencies --   3145.0174              3154.0794              3171.4937
 Red. masses --      1.0990                 1.1068                 1.0897
 Frc consts  --      6.4045                 6.4871                 6.4575
 IR Inten    --     10.9630                34.1796                15.8481

 - Thermochemistry -
 -------------------
 Temperature   298.150 Kelvin.  Pressure   1.00000 Atm.
 Atom     1 has atomic number  6 and mass  12.00000

 Molecular mass:   214.13174 amu.
 Principal axes and moments of inertia in atomic units:
                           1         2         3
     Eigenvalues --  2360.508574158.982625976.99382
           X            0.99793   0.06430  -0.00061
           Y           -0.06429   0.99789   0.00905
           Z            0.00119  -0.00899   0.99996
 This molecule is an asymmetric top.
 Rotational symmetry number  1.
 Warning -- assumption of classical behavior for rotation
           may cause significant error
 Rotational temperatures (Kelvin)      0.03669     0.02083     0.01449
 Rotational constants (GHZ):           0.76456     0.43394     0.30195
 Zero-point vibrational energy     754751.5 (Joules/Mol)
                                  180.38993 (Kcal/Mol)
 Warning -- explicit consideration of  23 degrees of freedom as
           vibrations may cause significant error
 Vibrational temperatures:     53.20    79.65    81.84   105.37   141.98
          (Kelvin)            149.90   175.38   223.04   289.80   319.68
                              329.44   361.19   411.16   469.53   486.32
                              502.84   549.27   607.36   647.10   704.97
                              743.05   794.40   874.52   969.54  1037.10
                             1078.28  1132.45  1177.25  1184.64  1248.45
                             1270.02  1290.93  1344.46  1377.85  1393.33
                             1460.95  1492.99  1531.04  1562.68  1586.07
                             1595.55  1618.42  1638.22  1664.50  1671.88
                             1740.70  1756.22  1805.11  1827.66  1856.50
                             1891.94  1905.18  1935.30  1937.53  1964.28
                             1991.58  2030.36  2038.51  2045.62  2065.68
                             2074.43  2081.45  2116.56  2161.10  2177.07
                             2178.04  2179.42  2185.79  2196.86  2198.72
                             2202.90  2215.49  2220.83  2437.93  2523.28
                             4303.42  4314.44  4356.84  4398.31  4399.72
                             4410.84  4428.59  4444.71  4485.27  4486.49
                             4490.13  4493.35  4508.70  4511.36  4523.59
                             4524.98  4538.02  4563.07

 Zero-point correction=                           0.287470 (Hartree/Particle)
 Thermal correction to Energy=                    0.303034
 Thermal correction to Enthalpy=                  0.303978
 Thermal correction to Gibbs Free Energy=         0.243695
 Sum of electronic and zero-point Energies=           -726.843129
 Sum of electronic and thermal Energies=              -726.827565
 Sum of electronic and thermal Enthalpies=            -726.826620
 Sum of electronic and thermal Free Energies=         -726.886904

                     E (Thermal)             CV                S
                      KCal/Mol        Cal/Mol-Kelvin    Cal/Mol-Kelvin
 Total                  190.157             57.283            126.877
 Electronic               0.000              0.000              0.000
 Translational            0.889              2.981             41.988
 Rotational               0.889              2.981             32.440
 Vibrational            188.379             51.321             52.450
 Vibration     1          0.594              1.982              5.415
 Vibration     2          0.596              1.975              4.616
 Vibration     3          0.596              1.975              4.563
 Vibration     4          0.599              1.967              4.064
 Vibration     5          0.604              1.950              3.480
 Vibration     6          0.605              1.946              3.374
 Vibration     7          0.609              1.931              3.070
 Vibration     8          0.620              1.897              2.610
 Vibration     9          0.638              1.838              2.120
 Vibration    10          0.648              1.807              1.941
 Vibration    11          0.652              1.797              1.887
 Vibration    12          0.663              1.761              1.723
 Vibration    13          0.684              1.700              1.499
 Vibration    14          0.710              1.623              1.278
 Vibration    15          0.718              1.600              1.222
 Vibration    16          0.727              1.576              1.168
 Vibration    17          0.751              1.509              1.032
 Vibration    18          0.784              1.422              0.885
 Vibration    19          0.809              1.361              0.797
 Vibration    20          0.846              1.272              0.684
 Vibration    21          0.871              1.214              0.618
 Vibration    22          0.907              1.135              0.540
 Vibration    23          0.967              1.015              0.436

 Optimization completed.
    -- Stationary point found.
 Normal termination of Gaussian 16 at Thu Dec 10 16:52:42 2020.

 ----------------------------------------------------------------------
 # B3LYP/6-311++G(d,p) empiricaldispersion=gd3bj scf=xqc pop=npa geom=c
 heck
 ----------------------------------------------------------------------

 --------------------------------------
 CID_89317434_JID_5697_Energie_neutraal
 --------------------------------------
 Structure from the checkpoint file:  "JID_5697.chk"
 Charge =  0 Multiplicity = 1

 SCF Done:  E(RB3LYP) =  -727.340044380     A.U. after   14 cycles
 Normal termination of Gaussian 16 at Thu Dec 10 16:57:43 2020.

 ----------------------------------------------------------------------
 # B3LYP/6-311++G(d,p) empiricaldispersion=gd3bj scf=xqc pop=npa geom=c
 heck
 ----------------------------------------------------------------------

 ------------------------------------
 CID_89317434_JID_5697_Energie_kation
 ------------------------------------
 Structure from the checkpoint file:  "JID_5697.chk"
 Charge =  1 Multiplicity = 2

 SCF Done:  E(UB3LYP) =  -727.034898694     A.U. after   23 cycles
 Normal termination of Gaussian 16 at Thu Dec 10 17:11:01 2020.
 Gaussian 16:  ES64L-G16RevA.03 25-Dec-2016

 ----------------------------------------------------------------------
 # B3LYP/6-311++G(d,p) empiricaldispersion=gd3bj scf=xqc pop=npa geom=c
 heck
 ----------------------------------------------------------------------

 -----------------------------------
 CID_89317434_JID_5697_Energie_anion
 -----------------------------------
 Structure from the checkpoint file:  "JID_5697.chk"
 Charge = -1 Multiplicity = 2

                         Standard orientation:
 ---------------------------------------------------------------------
 Center     Atomic      Atomic             Coordinates (Angstroms)
 Number     Number       Type             X           Y           Z
 ---------------------------------------------------------------------
      1          6           0        1.721434    3.239666    0.481866
      2          6           0        1.493517    2.339669   -0.743438
      3          6           0        0.568311    1.180598   -0.421468
      4          7           0       -0.697607    1.421239   -0.541687
      5          6           0       -1.681622    0.749718    0.144210
      6          8           0       -1.678532    0.481816    1.337853
      7          8           0       -2.740892    0.502910   -0.670895
      8          6           0       -3.885567   -0.103213   -0.039963
      9          6           0       -3.718063   -1.609647    0.091665
     10          7           0        1.131807   -0.026493   -0.098451
     11          6           0        2.457447   -0.145074    0.516178
     12          6           0        3.179568   -1.383471   -0.006469
     13          8           0        2.403813   -2.551032    0.199953
     14          6           0        1.162894   -2.441666   -0.480949
     15          6           0        0.338491   -1.252626    0.009243
     16          1           0        0.759451    3.579981    0.876042
     17          1           0        2.315266    4.117711    0.207982
     18          1           0        2.246202    2.713818    1.287184
     19          1           0        0.982632    2.917049   -1.517644
     20          1           0        2.443838    1.996719   -1.164944
     21          1           0       -4.041521    0.359168    0.937800
     22          1           0       -4.721633    0.147749   -0.697787
     23          1           0       -2.892473   -1.839526    0.770601
     24          1           0       -4.632357   -2.057992    0.497051
     25          1           0       -3.517035   -2.062948   -0.885104
     26          1           0        2.337668   -0.230618    1.606180
     27          1           0        3.051059    0.744714    0.311912
     28          1           0        3.400972   -1.256671   -1.079489
     29          1           0        4.119653   -1.528849    0.533190
     30          1           0        0.619862   -3.372099   -0.294419
     31          1           0        1.337725   -2.345441   -1.565264
     32          1           0        0.002190   -1.402658    1.042196
     33          1           0       -0.544472   -1.156603   -0.625052
 ---------------------------------------------------------------------

 SCF Done:  E(UB3LYP) =  -727.330230282     A.U. after   33 cycles
 SCF Done:  E(UB3LYP) =  -727.330230282     a.u. after    1 cycles

 The electronic state is 2-A.
 Alpha  occ. eigenvalues --  -19.05439 -19.03318 -18.98579 -14.24453 -14.17680
 Alpha  occ. eigenvalues --  -10.20000 -10.14229 -10.13575 -10.12585 -10.11842
 Alpha  occ. eigenvalues --  -10.10700 -10.10447 -10.08232 -10.06597 -10.05474
 Alpha  occ. eigenvalues --   -0.99708  -0.95199  -0.90464  -0.86773  -0.78683
 Alpha  occ. eigenvalues --   -0.69007  -0.68334  -0.66406  -0.62277  -0.57521
 Alpha  occ. eigenvalues --   -0.56891  -0.54129  -0.49964  -0.48617  -0.45352
 Alpha  occ. eigenvalues --   -0.43805  -0.39438  -0.38661  -0.38148  -0.37963
 Alpha  occ. eigenvalues --   -0.36540  -0.36424  -0.35672  -0.34703  -0.33506
 Alpha  occ. eigenvalues --   -0.33099  -0.31917  -0.30479  -0.29303  -0.28862
 Alpha  occ. eigenvalues --   -0.28052  -0.27717  -0.26938  -0.25270  -0.24595
 Alpha  occ. eigenvalues --   -0.24225  -0.22742  -0.22455  -0.19933  -0.18824
 Alpha  occ. eigenvalues --   -0.17045  -0.14733  -0.12759   0.04517
 Alpha virt. eigenvalues --    0.06164   0.07383   0.07959   0.08259   0.08803
 Alpha virt. eigenvalues --    0.09362   0.09636   0.10534   0.10663   0.10924
 Alpha virt. eigenvalues --    0.11695   0.11971   0.12434   0.13275   0.14220

  Beta  occ. eigenvalues --  -19.05417 -19.03311 -18.98542 -14.24461 -14.17636
  Beta  occ. eigenvalues --  -10.19957 -10.14051 -10.13573 -10.12565 -10.11803
  Beta  occ. eigenvalues --  -10.10695 -10.10403 -10.08229 -10.06588 -10.05420
  Beta  occ. eigenvalues --   -0.99649  -0.95183  -0.90397  -0.86660  -0.78561
  Beta  occ. eigenvalues --   -0.68935  -0.68293  -0.66328  -0.62194  -0.57459
  Beta  occ. eigenvalues --   -0.56827  -0.54015  -0.49874  -0.48534  -0.45283
  Beta  occ. eigenvalues --   -0.43758  -0.39349  -0.38605  -0.38098  -0.37909
  Beta  occ. eigenvalues --   -0.36481  -0.36347  -0.35566  -0.34614  -0.33447
  Beta  occ. eigenvalues --   -0.33051  -0.31876  -0.30427  -0.29216  -0.28728
  Beta  occ. eigenvalues --   -0.27980  -0.27642  -0.26877  -0.25237  -0.24519
  Beta  occ. eigenvalues --   -0.24172  -0.22501  -0.22404  -0.19814  -0.18713
  Beta  occ. eigenvalues --   -0.16920  -0.14664  -0.12579
  Beta virt. eigenvalues --    0.06129   0.07272   0.07773   0.08577   0.08985
  Beta virt. eigenvalues --    0.09456   0.09677   0.09990   0.10797   0.10900
  Beta virt. eigenvalues --    0.11568   0.11949   0.12216   0.12778   0.13408

 Mulliken charges and spin densities:
               1          2
     1  C    0.827652  -1.290424
     2  C   -0.532711   0.276748
     3  C   -0.168807   0.082216
     4  N   -0.082438   0.048989
     5  C   -0.152551  -0.119394
     6  O   -0.274993   0.019093
     7  O    0.047908  -0.004082
     8  C   -0.056452  -0.001580
     9  C   -0.362716  -0.093196
    10  N    0.052443   0.131929
    11  C    0.354479  -0.330484
    12  C    0.862518  -1.403844
    13  O   -0.175598   0.084961
    14  C    0.315811  -0.813169
    15  C   -0.604689   0.305638
    16  H    0.122955   0.038510
    17  H   -0.526686   0.690317
    18  H   -0.252469   0.386581
    19  H   -0.081835   0.280117
    20  H   -0.284784   0.436994
    21  H    0.168102   0.000273
    22  H    0.138410   0.008789
    23  H    0.170785  -0.007646
    24  H    0.099684   0.020445
    25  H    0.072750   0.071851
    26  H    0.082308   0.109315
    27  H   -0.417629   0.600300
    28  H   -0.088680   0.231110
    29  H   -0.568528   0.769105
    30  H    0.013824   0.170789
    31  H   -0.108247   0.249993
    32  H    0.154928   0.081847
    33  H    0.255259  -0.032091
 Sum of Mulliken charges =  -1.00000   1.00000

 Dipole moment (field-independent basis, Debye):
    X=             -9.0310    Y=             -4.2198    Z=             -0.6218  Tot=              9.9876
 Quadrupole moment (field-independent basis, Debye-Ang):
   XX=           -154.3370   YY=           -143.7705   ZZ=           -121.5550
   XY=             -3.5610   XZ=             -2.2624   YZ=              3.2000

 Summary of Natural Population Analysis:

                                       Natural Population
                Natural  -----------------------------------------------
    Atom  No    Charge         Core      Valence    Rydberg      Total
 -----------------------------------------------------------------------
      C    1   -0.28045      0.99965     2.27551    0.00529     3.28045
      C    2   -0.21715      0.99960     2.20795    0.00960     3.21715
      C    3    0.29956      0.99955     1.68395    0.01695     2.70044
      N    4   -0.30614      0.99956     2.79640    0.01018     3.80614
      C    5    0.45275      0.99968     1.52014    0.02743     2.54725
      O    6   -0.33646      0.99987     3.33146    0.00513     4.33646
      O    7   -0.28340      0.99986     3.27504    0.00851     4.28340
      C    8   -0.01684      0.99959     2.00593    0.01132     3.01684
      C    9   -0.30082      0.99966     2.29663    0.00453     3.30082
      N   10   -0.24883      0.99963     2.73780    0.01141     3.74883
      C   11   -0.09762      0.99960     2.08625    0.01177     3.09762
      C   12   -0.01443      0.99958     2.00084    0.01401     3.01443
      O   13   -0.29675      0.99989     3.28727    0.00958     4.29675
      C   14   -0.01050      0.99958     1.99986    0.01106     3.01050
      C   15   -0.10199      0.99960     2.09295    0.00943     3.10199
      H   16    0.10086      0.00000     0.39809    0.00105     0.39914
      H   17    0.10181      0.00000     0.39630    0.00189     0.39819
      H   18    0.09703      0.00000     0.40174    0.00123     0.40297
      H   19    0.11314      0.00000     0.38539    0.00147     0.38686
      H   20    0.10253      0.00000     0.39519    0.00228     0.39747
      H   21    0.09349      0.00000     0.40508    0.00143     0.40651
      H   22    0.08453      0.00000     0.41427    0.00121     0.41547
      H   23    0.10781      0.00000     0.39075    0.00144     0.39219
      H   24    0.09615      0.00000     0.40289    0.00096     0.40385
      H   25    0.09769      0.00000     0.40093    0.00138     0.40231
      H   26    0.09539      0.00000     0.40298    0.00163     0.40461
      H   27    0.11190      0.00000     0.38552    0.00257     0.38810
      H   28    0.08005      0.00000     0.41792    0.00203     0.41995
      H   29    0.09703      0.00000     0.40075    0.00222     0.40297
      H   30    0.09200      0.00000     0.40661    0.00139     0.40800
      H   31    0.07912      0.00000     0.41914    0.00174     0.42088
      H   32    0.10263      0.00000     0.39585    0.00152     0.39737
      H   33    0.10590      0.00000     0.39239    0.00171     0.39410
 =======================================================================
   * Total *    0.00000     14.99490    42.80975    0.19535    58.00000

 Normal termination of Gaussian 16 at Thu Dec 10 17:31:09 2020.
