 Gaussian 16, Revision A.03,

 -----------------------------------------------------------
 # opt freq B3LYP/6-31G(d) empiricaldispersion=gd3bj scf=xqc
 -----------------------------------------------------------

 ------------------------------
 CID_80633062_JID_7082_neutraal
 ------------------------------
 Symbolic Z-matrix:
 Charge =  0 Multiplicity = 1

 SCF Done:  E(RB3LYP) =  -712.876807185     A.U. after   14 cycles
 SCF Done:  E(RB3LYP) =  -712.883462427     A.U. after   12 cycles
 SCF Done:  E(RB3LYP) =  -712.884255450     A.U. after   11 cycles
 SCF Done:  E(RB3LYP) =  -712.884468046     A.U. after   12 cycles
 SCF Done:  E(RB3LYP) =  -712.884666479     A.U. after   11 cycles
 SCF Done:  E(RB3LYP) =  -712.884739394     A.U. after   11 cycles
 SCF Done:  E(RB3LYP) =  -712.884762588     A.U. after   10 cycles
 SCF Done:  E(RB3LYP) =  -712.884769237     A.U. after    9 cycles
 SCF Done:  E(RB3LYP) =  -712.884770777     A.U. after    8 cycles
 SCF Done:  E(RB3LYP) =  -712.884771225     A.U. after    8 cycles
 SCF Done:  E(RB3LYP) =  -712.884771343     A.U. after    7 cycles
 SCF Done:  E(RB3LYP) =  -712.884771367     A.U. after    6 cycles
 Optimization completed.
    -- Stationary point found.
 Normal termination of Gaussian 16 at Fri Dec 11 11:48:27 2020.

 --------------------------------------------------------------------
 #N Geom=AllCheck Guess=TCheck SCRF=Check GenChk RB3LYP/6-31G(d) Freq
 --------------------------------------------------------------------

 Structure from the checkpoint file:  "JID_7082.chk"
 ------------------------------
 CID_80633062_JID_7082_neutraal
 ------------------------------
 Charge =  0 Multiplicity = 1

 SCF Done:  E(RB3LYP) =  -712.884771367     A.U. after    1 cycles

  Exact polarizability: 235.261  -7.510 155.104  -7.580 -12.865 128.268
 Approx polarizability: 306.592 -16.878 226.268 -16.272 -38.546 204.435

                      1                      2                      3
                      A                      A                      A
 Frequencies --     27.7999                34.5127                49.7264
 Red. masses --      3.0436                 3.9021                 3.0133
 Frc consts  --      0.0014                 0.0027                 0.0044
 IR Inten    --      0.6520                 0.1790                 0.0886

                      4                      5                      6
                      A                      A                      A
 Frequencies --     52.7103                58.3665                71.7208
 Red. masses --      3.2638                 2.9067                 3.2802
 Frc consts  --      0.0053                 0.0058                 0.0099
 IR Inten    --      0.7013                 0.4332                 1.0700

                      7                      8                      9
                      A                      A                      A
 Frequencies --     86.6881               118.0308               132.7733
 Red. masses --      3.7509                 2.4845                 2.6232
 Frc consts  --      0.0166                 0.0204                 0.0272
 IR Inten    --      0.1007                 0.0601                 2.0724

                     10                     11                     12
                      A                      A                      A
 Frequencies --    176.1049               212.0737               226.1935
 Red. masses --      2.7988                 1.8922                 1.9742
 Frc consts  --      0.0511                 0.0501                 0.0595
 IR Inten    --      0.2407                 0.0486                 0.3558

                     13                     14                     15
                      A                      A                      A
 Frequencies --    249.2716               257.0513               264.4022
 Red. masses --      1.3896                 1.1897                 1.4659
 Frc consts  --      0.0509                 0.0463                 0.0604
 IR Inten    --      8.3623                21.1534                 2.1379

                     16                     17                     18
                      A                      A                      A
 Frequencies --    270.2764               304.3006               322.3151
 Red. masses --      1.2586                 2.4626                 3.0695
 Frc consts  --      0.0542                 0.1344                 0.1879
 IR Inten    --      0.9708                16.6977                 2.5472

                     19                     20                     21
                      A                      A                      A
 Frequencies --    334.9902               372.2681               399.1731
 Red. masses --      2.2236                 2.2328                 2.8770
 Frc consts  --      0.1470                 0.1823                 0.2701
 IR Inten    --      2.8470                 2.4766                13.7492

                     22                     23                     24
                      A                      A                      A
 Frequencies --    419.1319               442.1355               449.0898
 Red. masses --      3.1011                 3.1758                 2.0323
 Frc consts  --      0.3210                 0.3658                 0.2415
 IR Inten    --      2.8657                 3.6297                 0.6766

                     25                     26                     27
                      A                      A                      A
 Frequencies --    452.4226               464.2767               530.4120
 Red. masses --      2.1123                 2.6638                 2.5505
 Frc consts  --      0.2547                 0.3383                 0.4228
 IR Inten    --      6.8595                 4.5398                 5.0361

                     28                     29                     30
                      A                      A                      A
 Frequencies --    557.9088               587.1668               661.3599
 Red. masses --      2.2527                 3.2031                 6.8792
 Frc consts  --      0.4131                 0.6506                 1.7728
 IR Inten    --      1.3275                 2.1253                 0.8237

                     31                     32                     33
                      A                      A                      A
 Frequencies --    712.5862               763.1197               791.9334
 Red. masses --      2.6079                 3.4519                 1.8901
 Frc consts  --      0.7802                 1.1844                 0.6984
 IR Inten    --      2.9474                 2.4187                 3.6270

                     34                     35                     36
                      A                      A                      A
 Frequencies --    801.3781               815.7578               839.4983
 Red. masses --      1.2811                 1.8933                 2.2245
 Frc consts  --      0.4847                 0.7423                 0.9237
 IR Inten    --      9.6857                21.4168                 5.0965

                     37                     38                     39
                      A                      A                      A
 Frequencies --    850.0377               857.7597               879.5381
 Red. masses --      3.7207                 2.5488                 2.9813
 Frc consts  --      1.5840                 1.1049                 1.3588
 IR Inten    --      3.5631                 1.4093                 1.1355

                     40                     41                     42
                      A                      A                      A
 Frequencies --    903.2955               905.1921               914.7834
 Red. masses --      1.4582                 1.4176                 1.3512
 Frc consts  --      0.7010                 0.6843                 0.6662
 IR Inten    --     16.2428                20.2589                12.7891

                     43                     44                     45
                      A                      A                      A
 Frequencies --    921.8174               951.7243               968.6064
 Red. masses --      1.4381                 1.4240                 1.5813
 Frc consts  --      0.7200                 0.7599                 0.8741
 IR Inten    --    155.9637                 2.3704                 0.5277

                     46                     47                     48
                      A                      A                      A
 Frequencies --    975.6728              1003.8183              1033.0363
 Red. masses --      1.3794                 1.8146                 2.1400
 Frc consts  --      0.7737                 1.0773                 1.3455
 IR Inten    --      0.1877                21.7351                 6.4854

                     49                     50                     51
                      A                      A                      A
 Frequencies --   1035.8134              1047.8592              1071.9536
 Red. masses --      1.9302                 1.7856                 2.3406
 Frc consts  --      1.2201                 1.1552                 1.5846
 IR Inten    --      0.7157                 4.2829                16.4635

                     52                     53                     54
                      A                      A                      A
 Frequencies --   1097.5636              1118.5112              1122.2467
 Red. masses --      2.0136                 2.0506                 1.8410
 Frc consts  --      1.4292                 1.5115                 1.3661
 IR Inten    --     22.7226                11.0479                 0.4772

                     55                     56                     57
                      A                      A                      A
 Frequencies --   1132.6109              1171.9633              1188.2551
 Red. masses --      1.7935                 1.5283                 1.5634
 Frc consts  --      1.3555                 1.2368                 1.3006
 IR Inten    --      8.3521                 6.6798                28.9013

                     58                     59                     60
                      A                      A                      A
 Frequencies --   1192.3580              1197.8449              1227.5076
 Red. masses --      2.0449                 1.6878                 2.1800
 Frc consts  --      1.7129                 1.4268                 1.9353
 IR Inten    --     48.4888                 7.9857                24.2816

                     61                     62                     63
                      A                      A                      A
 Frequencies --   1260.7708              1280.3689              1291.8074
 Red. masses --      2.1574                 1.5785                 1.4180
 Frc consts  --      2.0205                 1.5246                 1.3941
 IR Inten    --      1.7072                 2.8883                86.2578

                     64                     65                     66
                      A                      A                      A
 Frequencies --   1303.7845              1316.7267              1321.3655
 Red. masses --      1.4835                 1.2388                 1.2196
 Frc consts  --      1.4857                 1.2655                 1.2546
 IR Inten    --     11.9037                 5.4220                 8.2932

                     67                     68                     69
                      A                      A                      A
 Frequencies --   1341.5244              1360.2909              1368.0342
 Red. masses --      2.8362                 1.4425                 1.5710
 Frc consts  --      3.0074                 1.5726                 1.7323
 IR Inten    --      2.0182                11.1288                20.7760

                     70                     71                     72
                      A                      A                      A
 Frequencies --   1385.4105              1397.5695              1399.5003
 Red. masses --      1.3504                 1.4444                 1.3763
 Frc consts  --      1.5271                 1.6622                 1.5882
 IR Inten    --     20.9678                24.4327                11.9595

                     73                     74                     75
                      A                      A                      A
 Frequencies --   1408.5544              1421.6267              1422.6750
 Red. masses --      1.3123                 1.3586                 1.3445
 Frc consts  --      1.5340                 1.6178                 1.6033
 IR Inten    --     21.9587                 3.0660                39.6364

                     76                     77                     78
                      A                      A                      A
 Frequencies --   1434.2666              1444.0760              1446.5269
 Red. masses --      1.2668                 1.3395                 1.6064
 Frc consts  --      1.5354                 1.6458                 1.9805
 IR Inten    --      8.0057                10.4758                26.3459

                     79                     80                     81
                      A                      A                      A
 Frequencies --   1449.8606              1473.4387              1502.9833
 Red. masses --      1.6730                 2.0572                 1.1509
 Frc consts  --      2.0721                 2.6315                 1.5318
 IR Inten    --      2.7266                83.9254                12.7163

                     82                     83                     84
                      A                      A                      A
 Frequencies --   1513.1714              1513.6619              1514.4445
 Red. masses --      1.0854                 1.0802                 1.0735
 Frc consts  --      1.4643                 1.4581                 1.4506
 IR Inten    --      0.2212                 0.5222                 3.9776

                     85                     86                     87
                      A                      A                      A
 Frequencies --   1524.8747              1525.4373              1529.5055
 Red. masses --      1.0686                 1.0757                 1.0650
 Frc consts  --      1.4639                 1.4748                 1.4680
 IR Inten    --      2.2325                13.3219                10.5986

                     88                     89                     90
                      A                      A                      A
 Frequencies --   1530.6360              1535.7095              1536.7601
 Red. masses --      1.0528                 1.0758                 1.0653
 Frc consts  --      1.4533                 1.4948                 1.4823
 IR Inten    --      7.4414                 5.9926                12.2731

                     91                     92                     93
                      A                      A                      A
 Frequencies --   1538.5902              1559.4860              1607.7119
 Red. masses --      1.1399                 2.3733                 5.3769
 Frc consts  --      1.5899                 3.4006                 8.1884
 IR Inten    --     26.2988               302.1711                62.5273

                     94                     95                     96
                      A                      A                      A
 Frequencies --   1675.4757              1695.9226              3022.8035
 Red. masses --      5.8862                 1.0906                 1.0706
 Frc consts  --      9.7356                 1.8481                 5.7637
 IR Inten    --    236.5729                23.9386                12.9105

                     97                     98                     99
                      A                      A                      A
 Frequencies --   3026.2761              3032.4289              3035.1332
 Red. masses --      1.0618                 1.0530                 1.0612
 Frc consts  --      5.7293                 5.7052                 5.7600
 IR Inten    --     27.3497                16.6578                12.5231

                    100                    101                    102
                      A                      A                      A
 Frequencies --   3038.1000              3043.4344              3051.1747
 Red. masses --      1.0616                 1.0716                 1.0380
 Frc consts  --      5.7734                 5.8478                 5.6934
 IR Inten    --     51.1984                54.9177                22.0042

                    103                    104                    105
                      A                      A                      A
 Frequencies --   3056.1677              3058.6813              3059.4129
 Red. masses --      1.0377                 1.0832                 1.0832
 Frc consts  --      5.7105                 5.9705                 5.9737
 IR Inten    --     23.8529                71.7596                49.4616

                    106                    107                    108
                      A                      A                      A
 Frequencies --   3068.3625              3082.1351              3099.0478
 Red. masses --      1.0999                 1.0983                 1.1009
 Frc consts  --      6.1015                 6.1469                 6.2297
 IR Inten    --     36.8993                20.5277                40.7215

                    109                    110                    111
                      A                      A                      A
 Frequencies --   3110.2246              3114.9435              3119.8099
 Red. masses --      1.0989                 1.1004                 1.1012
 Frc consts  --      6.2630                 6.2905                 6.3148
 IR Inten    --      8.3379                62.1245                64.1206

                    112                    113                    114
                      A                      A                      A
 Frequencies --   3120.6431              3131.0010              3136.2512
 Red. masses --      1.1005                 1.1017                 1.1023
 Frc consts  --      6.3141                 6.3631                 6.3879
 IR Inten    --     34.4704                38.3545                25.0599

                    115                    116                    117
                      A                      A                      A
 Frequencies --   3143.8950              3158.7951              3175.8464
 Red. masses --      1.0898                 1.0924                 1.0899
 Frc consts  --      6.3464                 6.4223                 6.4765
 IR Inten    --     44.1876                 7.0656                16.7565

                    118                    119                    120
                      A                      A                      A
 Frequencies --   3242.9007              3439.0684              3524.3818
 Red. masses --      1.0906                 1.0499                 1.0910
 Frc consts  --      6.7573                 7.3159                 7.9846
 IR Inten    --     16.3929                 5.3354                 1.9721

 - Thermochemistry -
 -------------------
 Temperature   298.150 Kelvin.  Pressure   1.00000 Atm.
 Atom     1 has atomic number  6 and mass  12.00000

 Molecular mass:   235.20485 amu.
 Principal axes and moments of inertia in atomic units:
                           1         2         3
     Eigenvalues --  2339.061737988.263269342.85183
           X            0.99999   0.00036   0.00546
           Y           -0.00039   0.99999   0.00431
           Z           -0.00546  -0.00431   0.99998
 This molecule is an asymmetric top.
 Rotational symmetry number  1.
 Warning -- assumption of classical behavior for rotation
           may cause significant error
 Rotational temperatures (Kelvin)      0.03703     0.01084     0.00927
 Rotational constants (GHZ):           0.77157     0.22592     0.19317
 Zero-point vibrational energy     998894.8 (Joules/Mol)
                                  238.74158 (Kcal/Mol)
 Warning -- explicit consideration of  29 degrees of freedom as
           vibrations may cause significant error
 Vibrational temperatures:     40.00    49.66    71.55    75.84    83.98
          (Kelvin)            103.19   124.72   169.82   191.03   253.38
                              305.13   325.44   358.65   369.84   380.42
                              388.87   437.82   463.74   481.98   535.61
                              574.32   603.04   636.13   646.14   650.94
                              667.99   763.14   802.71   844.80   951.55
                             1025.25  1097.96  1139.42  1153.00  1173.69
                             1207.85  1223.01  1234.12  1265.46  1299.64
                             1302.37  1316.17  1326.29  1369.32  1393.61
                             1403.78  1444.27  1486.31  1490.30  1507.64
                             1542.30  1579.15  1609.29  1614.66  1629.57
                             1686.19  1709.63  1715.54  1723.43  1766.11
                             1813.97  1842.17  1858.62  1875.86  1894.48
                             1901.15  1930.15  1957.16  1968.30  1993.30
                             2010.79  2013.57  2026.60  2045.40  2046.91
                             2063.59  2077.70  2081.23  2086.03  2119.95
                             2162.46  2177.12  2177.82  2178.95  2193.95
                             2194.76  2200.62  2202.24  2209.54  2211.05
                             2213.69  2243.75  2313.14  2410.64  2440.05
                             4349.14  4354.14  4362.99  4366.88  4371.15
                             4378.82  4389.96  4397.14  4400.76  4401.81
                             4414.69  4434.50  4458.84  4474.92  4481.71
                             4488.71  4489.91  4504.81  4512.37  4523.36
                             4544.80  4569.33  4665.81  4948.05  5070.80

 Zero-point correction=                           0.380459 (Hartree/Particle)
 Thermal correction to Energy=                    0.399443
 Thermal correction to Enthalpy=                  0.400387
 Thermal correction to Gibbs Free Energy=         0.331859
 Sum of electronic and zero-point Energies=           -712.504312
 Sum of electronic and thermal Energies=              -712.485329
 Sum of electronic and thermal Enthalpies=            -712.484384
 Sum of electronic and thermal Free Energies=         -712.552912

                     E (Thermal)             CV                S
                      KCal/Mol        Cal/Mol-Kelvin    Cal/Mol-Kelvin
 Total                  250.654             71.115            144.229
 Electronic               0.000              0.000              0.000
 Translational            0.889              2.981             42.267
 Rotational               0.889              2.981             33.523
 Vibrational            248.877             65.154             68.439
 Vibration     1          0.593              1.984              5.981
 Vibration     2          0.594              1.983              5.552
 Vibration     3          0.595              1.978              4.828
 Vibration     4          0.596              1.977              4.713
 Vibration     5          0.596              1.974              4.512
 Vibration     6          0.598              1.967              4.106
 Vibration     7          0.601              1.958              3.733
 Vibration     8          0.608              1.934              3.132
 Vibration     9          0.613              1.921              2.905
 Vibration    10          0.628              1.872              2.369
 Vibration    11          0.643              1.822              2.026
 Vibration    12          0.650              1.801              1.909
 Vibration    13          0.662              1.764              1.736
 Vibration    14          0.667              1.751              1.682
 Vibration    15          0.671              1.738              1.633
 Vibration    16          0.674              1.728              1.594
 Vibration    17          0.695              1.666              1.393
 Vibration    18          0.707              1.631              1.298
 Vibration    19          0.716              1.606              1.236
 Vibration    20          0.744              1.529              1.070
 Vibration    21          0.765              1.472              0.966
 Vibration    22          0.782              1.429              0.895
 Vibration    23          0.802              1.378              0.820
 Vibration    24          0.808              1.363              0.799
 Vibration    25          0.811              1.356              0.788
 Vibration    26          0.822              1.329              0.754
 Vibration    27          0.885              1.183              0.586
 Vibration    28          0.913              1.122              0.528
 Vibration    29          0.944              1.059              0.472

 Optimization completed.
    -- Stationary point found.
 Normal termination of Gaussian 16 at Fri Dec 11 12:05:19 2020.

 ----------------------------------------------------------------------
 # B3LYP/6-311++G(d,p) empiricaldispersion=gd3bj scf=xqc pop=npa geom=c
 heck
 ----------------------------------------------------------------------

 --------------------------------------
 CID_80633062_JID_7082_Energie_neutraal
 --------------------------------------
 Structure from the checkpoint file:  "JID_7082.chk"
 Charge =  0 Multiplicity = 1

 SCF Done:  E(RB3LYP) =  -713.083412711     A.U. after   15 cycles
 Normal termination of Gaussian 16 at Fri Dec 11 12:13:02 2020.

 ----------------------------------------------------------------------
 # B3LYP/6-311++G(d,p) empiricaldispersion=gd3bj scf=xqc pop=npa geom=c
 heck
 ----------------------------------------------------------------------

 ------------------------------------
 CID_80633062_JID_7082_Energie_kation
 ------------------------------------
 Structure from the checkpoint file:  "JID_7082.chk"
 Charge =  1 Multiplicity = 2

 SCF Done:  E(UB3LYP) =  -712.829029973     A.U. after   23 cycles
 Normal termination of Gaussian 16 at Fri Dec 11 12:28:42 2020.
 Gaussian 16:  ES64L-G16RevA.03 25-Dec-2016

 ----------------------------------------------------------------------
 # B3LYP/6-311++G(d,p) empiricaldispersion=gd3bj scf=xqc pop=npa geom=c
 heck
 ----------------------------------------------------------------------

 -----------------------------------
 CID_80633062_JID_7082_Energie_anion
 -----------------------------------
 Structure from the checkpoint file:  "JID_7082.chk"
 Charge = -1 Multiplicity = 2

                         Standard orientation:
 ---------------------------------------------------------------------
 Center     Atomic      Atomic             Coordinates (Angstroms)
 Number     Number       Type             X           Y           Z
 ---------------------------------------------------------------------
      1          6           0       -2.782534   -2.897748   -0.471346
      2          6           0       -3.676318   -1.950644    0.331037
      3          6           0       -2.915837   -0.792018    0.994283
      4          7           0       -2.217863    0.077365    0.047722
      5          6           0       -3.039857    1.049779   -0.658036
      6          6           0       -3.314756    2.337955    0.135500
      7          6           0       -2.067068    3.164402    0.451004
      8          6           0       -0.860188   -0.060466   -0.165049
      9          7           0       -0.238065   -1.044045    0.511826
     10          6           0        1.073222   -1.221410    0.335961
     11          6           0        1.879654   -0.467302   -0.514140
     12          6           0        1.223534    0.556622   -1.213518
     13          6           0       -0.132605    0.777068   -1.048442
     14          6           0        3.360800   -0.705925   -0.645259
     15          6           0        4.228515    0.347394    0.071981
     16          6           0        3.976919    0.363352    1.585198
     17          7           0        5.632343    0.114657   -0.302160
     18          1           0       -1.994977   -3.323834    0.157296
     19          1           0       -2.290014   -2.367507   -1.292912
     20          1           0       -3.368773   -3.717719   -0.901545
     21          1           0       -4.466579   -1.550395   -0.319544
     22          1           0       -4.193159   -2.504002    1.127186
     23          1           0       -3.620395   -0.174043    1.565602
     24          1           0       -2.174324   -1.184459    1.689815
     25          1           0       -2.583127    1.286443   -1.622945
     26          1           0       -3.997286    0.568767   -0.891972
     27          1           0       -4.030639    2.941749   -0.438915
     28          1           0       -3.822021    2.071585    1.071987
     29          1           0       -1.583113    3.524723   -0.464320
     30          1           0       -2.322078    4.039949    1.058077
     31          1           0       -1.332169    2.572116    1.005188
     32          1           0        1.514660   -2.033425    0.915154
     33          1           0        1.786622    1.192364   -1.893765
     34          1           0       -0.609205    1.587922   -1.582292
     35          1           0        3.609238   -1.697487   -0.239677
     36          1           0        3.660944   -0.713992   -1.699685
     37          1           0        3.958342    1.332175   -0.334165
     38          1           0        4.230533   -0.610262    2.026010
     39          1           0        4.595107    1.125754    2.074297
     40          1           0        2.927989    0.574194    1.819072
     41          1           0        6.222429    0.805664    0.161399
     42          1           0        5.926207   -0.788472    0.073898
 ---------------------------------------------------------------------

 SCF Done:  E(UB3LYP) =  -713.070553984     A.U. after   33 cycles
 SCF Done:  E(UB3LYP) =  -713.070553984     a.u. after    1 cycles

 The electronic state is 2-A.
 Alpha  occ. eigenvalues --  -14.23807 -14.20312 -14.20206 -10.15081 -10.11144
 Alpha  occ. eigenvalues --  -10.10984 -10.10800 -10.10306 -10.09153 -10.08066
 Alpha  occ. eigenvalues --  -10.08049 -10.08000 -10.07770 -10.07663 -10.06631
 Alpha  occ. eigenvalues --  -10.06612 -10.06575  -0.88029  -0.82106  -0.79969
 Alpha  occ. eigenvalues --   -0.72048  -0.69879  -0.68968  -0.67086  -0.64176
 Alpha  occ. eigenvalues --   -0.60908  -0.60395  -0.57219  -0.54108  -0.52274
 Alpha  occ. eigenvalues --   -0.50558  -0.48936  -0.47182  -0.43998  -0.41478
 Alpha  occ. eigenvalues --   -0.40652  -0.38664  -0.37281  -0.36609  -0.35762
 Alpha  occ. eigenvalues --   -0.35204  -0.34646  -0.34520  -0.33674  -0.33195
 Alpha  occ. eigenvalues --   -0.31932  -0.31243  -0.30710  -0.30162  -0.29207
 Alpha  occ. eigenvalues --   -0.28488  -0.27573  -0.27050  -0.25980  -0.25926
 Alpha  occ. eigenvalues --   -0.25673  -0.25575  -0.24868  -0.24500  -0.24288
 Alpha  occ. eigenvalues --   -0.19704  -0.18861  -0.16379  -0.15636  -0.10639
 Alpha  occ. eigenvalues --    0.03972
 Alpha virt. eigenvalues --    0.05143   0.06233   0.06399   0.07116   0.07445
 Alpha virt. eigenvalues --    0.07505   0.08130   0.08470   0.09086   0.09424
 Alpha virt. eigenvalues --    0.09617   0.09849   0.10498   0.10651   0.11125

  Beta  occ. eigenvalues --  -14.23807 -14.20301 -14.20170 -10.15083 -10.11127
  Beta  occ. eigenvalues --  -10.10979 -10.10790 -10.10296 -10.09135 -10.08050
  Beta  occ. eigenvalues --  -10.08042 -10.08002 -10.07752 -10.07635 -10.06607
  Beta  occ. eigenvalues --  -10.06604 -10.06548  -0.88017  -0.82090  -0.79915
  Beta  occ. eigenvalues --   -0.72021  -0.69851  -0.68935  -0.67052  -0.64136
  Beta  occ. eigenvalues --   -0.60870  -0.60367  -0.57183  -0.54066  -0.52234
  Beta  occ. eigenvalues --   -0.50501  -0.48885  -0.47146  -0.43972  -0.41453
  Beta  occ. eigenvalues --   -0.40618  -0.38632  -0.37243  -0.36578  -0.35731
  Beta  occ. eigenvalues --   -0.35170  -0.34615  -0.34484  -0.33649  -0.33173
  Beta  occ. eigenvalues --   -0.31900  -0.31218  -0.30677  -0.30141  -0.29182
  Beta  occ. eigenvalues --   -0.28458  -0.27547  -0.27024  -0.25946  -0.25884
  Beta  occ. eigenvalues --   -0.25646  -0.25539  -0.24839  -0.24473  -0.24255
  Beta  occ. eigenvalues --   -0.19669  -0.18789  -0.16362  -0.15598  -0.10609
  Beta virt. eigenvalues --    0.05899   0.06191   0.06401   0.06796   0.07469
  Beta virt. eigenvalues --    0.07822   0.07953   0.08308   0.08757   0.09361
  Beta virt. eigenvalues --    0.09681   0.09790   0.10030   0.10719   0.10768

 Mulliken charges and spin densities:
               1          2
     1  C   -0.452939  -0.016120
     2  C    0.305587  -0.591398
     3  C   -0.057754  -0.142094
     4  N    0.426161  -0.071655
     5  C   -0.522669   0.443261
     6  C    1.185853  -1.500805
     7  C   -0.204330  -0.329208
     8  C   -1.117952   0.205978
     9  N   -0.027258   0.042243
    10  C   -0.678475   0.139774
    11  C    1.032307  -0.178526
    12  C    0.266071  -0.392663
    13  C   -0.142514   0.115454
    14  C    0.150290  -0.683885
    15  C    0.013170  -0.330453
    16  C    0.119593  -0.706370
    17  N   -0.314838   0.051909
    18  H    0.169185  -0.021916
    19  H    0.142497   0.009948
    20  H   -0.017973   0.152848
    21  H    0.027087   0.093199
    22  H   -0.084418   0.223146
    23  H   -0.200916   0.341372
    24  H    0.164285   0.038077
    25  H   -0.217786   0.378563
    26  H   -0.377036   0.550154
    27  H   -0.392698   0.546333
    28  H    0.023695   0.099607
    29  H   -0.058079   0.198875
    30  H   -0.232240   0.380311
    31  H    0.150077   0.026703
    32  H    0.038630   0.144992
    33  H   -0.163383   0.351404
    34  H    0.150740  -0.043975
    35  H   -0.003872   0.153127
    36  H    0.153398   0.038007
    37  H    0.073348   0.087082
    38  H   -0.020643   0.157245
    39  H   -0.316963   0.452737
    40  H    0.091191   0.072927
    41  H   -0.082413   0.307052
    42  H    0.003982   0.206741
 Sum of Mulliken charges =  -1.00000   1.00000

 Dipole moment (field-independent basis, Debye):
    X=             -0.8338    Y=             -3.2430    Z=             -0.4927  Tot=              3.3845
 Quadrupole moment (field-independent basis, Debye-Ang):
   XX=           -231.8449   YY=           -155.7360   ZZ=           -140.9846
   XY=              5.1268   XZ=             -4.2842   YZ=             -0.7497

 Summary of Natural Population Analysis:

                                       Natural Population
                Natural  -----------------------------------------------
    Atom  No    Charge         Core      Valence    Rydberg      Total
 -----------------------------------------------------------------------
      C    1   -0.28731      0.99966     2.28296    0.00469     3.28731
      C    2   -0.19406      0.99963     2.18711    0.00731     3.19406
      C    3   -0.08493      0.99959     2.07409    0.01125     3.08493
      N    4   -0.25421      0.99964     2.74178    0.01278     3.75421
      C    5   -0.08095      0.99960     2.06990    0.01145     3.08095
      C    6   -0.19381      0.99963     2.18652    0.00766     3.19381
      C    7   -0.28790      0.99966     2.28236    0.00588     3.28790
      C    8    0.21085      0.99951     1.77546    0.01418     2.78915
      N    9   -0.26629      0.99967     2.75603    0.01058     3.76629
      C   10    0.04169      0.99952     1.94613    0.01266     2.95831
      C   11   -0.06319      0.99949     2.05453    0.00917     3.06319
      C   12   -0.07160      0.99952     2.06275    0.00933     3.07160
      C   13   -0.14109      0.99953     2.13386    0.00770     3.14109
      C   14   -0.19723      0.99958     2.18813    0.00952     3.19723
      C   15   -0.01208      0.99961     2.00094    0.01153     3.01208
      C   16   -0.29588      0.99965     2.28998    0.00625     3.29588
      N   17   -0.42111      0.99977     2.91066    0.01068     3.92111
      H   18    0.10148      0.00000     0.39749    0.00104     0.39852
      H   19    0.09956      0.00000     0.39946    0.00098     0.40044
      H   20    0.09424      0.00000     0.40495    0.00082     0.40576
      H   21    0.09303      0.00000     0.40561    0.00136     0.40697
      H   22    0.09442      0.00000     0.40450    0.00108     0.40558
      H   23    0.09417      0.00000     0.40454    0.00129     0.40583
      H   24    0.11239      0.00000     0.38591    0.00170     0.38761
      H   25    0.09624      0.00000     0.40206    0.00171     0.40376
      H   26    0.09893      0.00000     0.39947    0.00160     0.40107
      H   27    0.09782      0.00000     0.40021    0.00197     0.40218
      H   28    0.09449      0.00000     0.40417    0.00134     0.40551
      H   29    0.09524      0.00000     0.40365    0.00111     0.40476
      H   30    0.09987      0.00000     0.39927    0.00086     0.40013
      H   31    0.10047      0.00000     0.39823    0.00130     0.39953
      H   32    0.08719      0.00000     0.41155    0.00126     0.41281
      H   33    0.10003      0.00000     0.39896    0.00101     0.39997
      H   34    0.10441      0.00000     0.39381    0.00178     0.39559
      H   35    0.09705      0.00000     0.40177    0.00118     0.40295
      H   36    0.10739      0.00000     0.39134    0.00127     0.39261
      H   37    0.08695      0.00000     0.41095    0.00210     0.41305
      H   38    0.09449      0.00000     0.40419    0.00132     0.40551
      H   39    0.09938      0.00000     0.39925    0.00137     0.40062
      H   40    0.10461      0.00000     0.39429    0.00110     0.39539
      H   41    0.17552      0.00000     0.32236    0.00212     0.32448
      H   42    0.16973      0.00000     0.32829    0.00197     0.33027
 =======================================================================
   * Total *   -0.00000     16.99329    47.80944    0.19727    65.00000

 Normal termination of Gaussian 16 at Fri Dec 11 12:55:55 2020.
