 Gaussian 16, Revision A.03,

 -----------------------------------------------------------
 # opt freq B3LYP/6-31G(d) empiricaldispersion=gd3bj scf=xqc
 -----------------------------------------------------------

 ------------------------------
 CID_143442766_JID_973_neutraal
 ------------------------------
 Symbolic Z-matrix:
 Charge =  0 Multiplicity = 1

 SCF Done:  E(RB3LYP) =  -801.437732622     A.U. after   17 cycles
 SCF Done:  E(RB3LYP) =  -801.445553240     A.U. after   13 cycles
 SCF Done:  E(RB3LYP) =  -801.449573071     A.U. after   13 cycles
 SCF Done:  E(RB3LYP) =  -801.452820646     A.U. after   14 cycles
 SCF Done:  E(RB3LYP) =  -801.452299063     A.U. after   14 cycles
 SCF Done:  E(RB3LYP) =  -801.455825397     A.U. after   13 cycles
 SCF Done:  E(RB3LYP) =  -801.456940332     A.U. after   13 cycles
 SCF Done:  E(RB3LYP) =  -801.457364322     A.U. after   12 cycles
 SCF Done:  E(RB3LYP) =  -801.457497405     A.U. after   12 cycles
 SCF Done:  E(RB3LYP) =  -801.457562551     A.U. after   12 cycles
 SCF Done:  E(RB3LYP) =  -801.459153510     A.U. after   11 cycles
 SCF Done:  E(RB3LYP) =  -801.459202360     A.U. after   11 cycles
 SCF Done:  E(RB3LYP) =  -801.459225967     A.U. after   12 cycles
 SCF Done:  E(RB3LYP) =  -801.459227309     A.U. after    9 cycles
 SCF Done:  E(RB3LYP) =  -801.459227378     A.U. after    8 cycles
 SCF Done:  E(RB3LYP) =  -801.459227391     A.U. after    7 cycles
 Optimization completed.
    -- Stationary point found.
 Normal termination of Gaussian 16 at Tue Dec  8 13:43:01 2020.

 --------------------------------------------------------------------
 #N Geom=AllCheck Guess=TCheck SCRF=Check GenChk RB3LYP/6-31G(d) Freq
 --------------------------------------------------------------------

 Structure from the checkpoint file:  "JID_973.chk"
 ------------------------------
 CID_143442766_JID_973_neutraal
 ------------------------------
 Charge =  0 Multiplicity = 1

 SCF Done:  E(RB3LYP) =  -801.459227391     A.U. after    1 cycles

  Exact polarizability: 186.239 -12.045 103.219  -0.627   4.382  58.902
 Approx polarizability: 302.217 -39.326 158.661  -4.875  13.489  90.804

                      1                      2                      3
                      A                      A                      A
 Frequencies --     45.8243                77.1661               114.0244
 Red. masses --      2.9453                 4.8366                 2.3486
 Frc consts  --      0.0036                 0.0170                 0.0180
 IR Inten    --      0.3534                 1.7182                 0.6225

                      4                      5                      6
                      A                      A                      A
 Frequencies --    126.9520               145.8833               169.8896
 Red. masses --      1.5408                 3.2532                 2.5186
 Frc consts  --      0.0146                 0.0408                 0.0428
 IR Inten    --      0.1403                 0.0046                 1.7591

                      7                      8                      9
                      A                      A                      A
 Frequencies --    192.8814               255.2953               275.2619
 Red. masses --      2.5411                 2.5544                 2.2998
 Frc consts  --      0.0557                 0.0981                 0.1027
 IR Inten    --      0.4523                 1.6293                 2.2528

                     10                     11                     12
                      A                      A                      A
 Frequencies --    323.9467               335.2792               356.0163
 Red. masses --      5.3133                 3.0297                 1.4894
 Frc consts  --      0.3285                 0.2007                 0.1112
 IR Inten    --     13.6440                 9.1438                20.7909

                     13                     14                     15
                      A                      A                      A
 Frequencies --    383.6231               422.5896               464.2327
 Red. masses --      4.4367                 2.8519                 5.0148
 Frc consts  --      0.3847                 0.3001                 0.6368
 IR Inten    --     18.6963                25.7770                15.3198

                     16                     17                     18
                      A                      A                      A
 Frequencies --    561.0957               632.4295               650.3046
 Red. masses --      2.6199                 3.2573                 5.3336
 Frc consts  --      0.4860                 0.7676                 1.3289
 IR Inten    --     15.9129                51.1752               113.5852

                     19                     20                     21
                      A                      A                      A
 Frequencies --    677.7755               732.7402               772.5695
 Red. masses --      1.4109                 3.0455                 1.8271
 Frc consts  --      0.3819                 0.9634                 0.6425
 IR Inten    --     12.8497                 0.4861                 7.1514

                     22                     23                     24
                      A                      A                      A
 Frequencies --    894.9138               939.1956               939.5562
 Red. masses --      1.5406                 1.3130                 3.2167
 Frc consts  --      0.7269                 0.6824                 1.6730
 IR Inten    --     38.4560                24.5777                10.5975

                     25                     26                     27
                      A                      A                      A
 Frequencies --    962.5698               971.3512               988.2481
 Red. masses --      1.4714                 1.7491                 1.2160
 Frc consts  --      0.8032                 0.9723                 0.6997
 IR Inten    --     11.7763                 6.0286                 0.5739

                     28                     29                     30
                      A                      A                      A
 Frequencies --   1036.0118              1046.8468              1068.7186
 Red. masses --      1.0957                 1.6748                 1.5078
 Frc consts  --      0.6929                 1.0814                 1.0146
 IR Inten    --     19.7954                 5.1106                 8.0538

                     31                     32                     33
                      A                      A                      A
 Frequencies --   1096.6645              1124.6035              1140.5132
 Red. masses --      2.6001                 1.7650                 2.1366
 Frc consts  --      1.8424                 1.3152                 1.6375
 IR Inten    --    112.1602                28.6749                 4.4541

                     34                     35                     36
                      A                      A                      A
 Frequencies --   1234.4301              1317.3954              1345.9300
 Red. masses --      2.2435                 1.1513                 1.2835
 Frc consts  --      2.0143                 1.1772                 1.3700
 IR Inten    --      1.5889                 1.9031                 5.6756

                     37                     38                     39
                      A                      A                      A
 Frequencies --   1373.5824              1429.2646              1454.8543
 Red. masses --      1.4062                 1.2284                 1.3546
 Frc consts  --      1.5632                 1.4785                 1.6893
 IR Inten    --      3.1420                 2.5862                 2.6019

                     40                     41                     42
                      A                      A                      A
 Frequencies --   1480.5872              1510.2352              1523.3032
 Red. masses --      1.4093                 1.0648                 1.0627
 Frc consts  --      1.8202                 1.4309                 1.4529
 IR Inten    --      1.1780                16.0339                 9.1339

                     43                     44                     45
                      A                      A                      A
 Frequencies --   1636.1704              1642.6910              1699.5583
 Red. masses --      3.1685                 1.2519                 4.1062
 Frc consts  --      4.9975                 1.9904                 6.9881
 IR Inten    --     12.6903                34.8987                 0.4121

                     46                     47                     48
                      A                      A                      A
 Frequencies --   1717.5340              3044.6730              3099.3612
 Red. masses --      6.6391                 1.0412                 1.0976
 Frc consts  --     11.5391                 5.6869                 6.2121
 IR Inten    --     11.2790                23.3971                23.4087

                     49                     50                     51
                      A                      A                      A
 Frequencies --   3139.5570              3150.8153              3160.4661
 Red. masses --      1.0927                 1.0882                 1.0846
 Frc consts  --      6.3461                 6.3649                 6.3827
 IR Inten    --      1.9965                 7.6869                 5.3009

                     52                     53                     54
                      A                      A                      A
 Frequencies --   3167.3816              3170.5980              3184.5026
 Red. masses --      1.0633                 1.0906                 1.0898
 Frc consts  --      6.2851                 6.4592                 6.5118
 IR Inten    --      4.6582                32.4759                16.9595

                     55                     56                     57
                      A                      A                      A
 Frequencies --   3252.9119              3443.0165              3554.8398
 Red. masses --      1.1164                 1.0480                 1.0953
 Frc consts  --      6.9601                 7.3193                 8.1550
 IR Inten    --     13.0356                 4.7666                 9.9280

 - Thermochemistry -
 -------------------
 Temperature   298.150 Kelvin.  Pressure   1.00000 Atm.
 Atom     1 has atomic number  6 and mass  12.00000

 Molecular mass:   157.05614 amu.
 Principal axes and moments of inertia in atomic units:
                           1         2         3
     Eigenvalues --  1242.491092183.440433120.82822
           X            0.99977  -0.02145   0.00217
           Y            0.02148   0.99965  -0.01515
           Z           -0.00184   0.01520   0.99988
 This molecule is an asymmetric top.
 Rotational symmetry number  1.
 Warning -- assumption of classical behavior for rotation
           may cause significant error
 Rotational temperatures (Kelvin)      0.06971     0.03967     0.02775
 Rotational constants (GHZ):           1.45252     0.82656     0.57829
 Zero-point vibrational energy     446557.8 (Joules/Mol)
                                  106.72987 (Kcal/Mol)
 Warning -- explicit consideration of  16 degrees of freedom as
           vibrations may cause significant error
 Vibrational temperatures:     65.93   111.02   164.06   182.66   209.89
          (Kelvin)            244.43   277.51   367.31   396.04   466.09
                              482.39   512.23   551.95   608.01   667.93
                              807.29   909.92   935.64   975.17  1054.25
                             1111.56  1287.58  1351.29  1351.81  1384.92
                             1397.56  1421.87  1490.59  1506.18  1537.65
                             1577.86  1618.05  1640.94  1776.07  1895.44
                             1936.49  1976.28  2056.39  2093.21  2130.23
                             2172.89  2191.69  2354.08  2363.47  2445.29
                             2471.15  4380.61  4459.29  4517.12  4533.32
                             4547.21  4557.16  4561.78  4581.79  4680.21
                             4953.73  5114.62

 Zero-point correction=                           0.170085 (Hartree/Particle)
 Thermal correction to Energy=                    0.181963
 Thermal correction to Enthalpy=                  0.182908
 Thermal correction to Gibbs Free Energy=         0.132032
 Sum of electronic and zero-point Energies=           -801.289143
 Sum of electronic and thermal Energies=              -801.277264
 Sum of electronic and thermal Enthalpies=            -801.276320
 Sum of electronic and thermal Free Energies=         -801.327195

                     E (Thermal)             CV                S
                      KCal/Mol        Cal/Mol-Kelvin    Cal/Mol-Kelvin
 Total                  114.184             42.797            107.076
 Electronic               0.000              0.000              0.000
 Translational            0.889              2.981             41.064
 Rotational               0.889              2.981             30.516
 Vibrational            112.406             36.835             35.496
 Vibration     1          0.595              1.979              4.990
 Vibration     2          0.599              1.964              3.962
 Vibration     3          0.607              1.938              3.199
 Vibration     4          0.611              1.926              2.992
 Vibration     5          0.617              1.907              2.725
 Vibration     6          0.625              1.880              2.437
 Vibration     7          0.635              1.850              2.200
 Vibration     8          0.666              1.754              1.694
 Vibration     9          0.677              1.719              1.563
 Vibration    10          0.708              1.628              1.290
 Vibration    11          0.716              1.605              1.235
 Vibration    12          0.732              1.563              1.139
 Vibration    13          0.753              1.505              1.025
 Vibration    14          0.785              1.421              0.883
 Vibration    15          0.822              1.329              0.754
 Vibration    16          0.917              1.115              0.522

 Optimization completed.
    -- Stationary point found.
 Normal termination of Gaussian 16 at Tue Dec  8 13:46:56 2020.

 ----------------------------------------------------------------------
 # B3LYP/6-311++G(d,p) empiricaldispersion=gd3bj scf=xqc pop=npa geom=c
 heck
 ----------------------------------------------------------------------

 --------------------------------------
 CID_143442766_JID_973_Energie_neutraal
 --------------------------------------
 Structure from the checkpoint file:  "JID_973.chk"
 Charge =  0 Multiplicity = 1

 SCF Done:  E(RB3LYP) =  -801.612284446     A.U. after   17 cycles
 Normal termination of Gaussian 16 at Tue Dec  8 13:50:01 2020.

 ----------------------------------------------------------------------
 # B3LYP/6-311++G(d,p) empiricaldispersion=gd3bj scf=xqc pop=npa geom=c
 heck
 ----------------------------------------------------------------------

 ------------------------------------
 CID_143442766_JID_973_Energie_kation
 ------------------------------------
 Structure from the checkpoint file:  "JID_973.chk"
 Charge =  1 Multiplicity = 2

 SCF Done:  E(UB3LYP) =  -801.317565191     A.U. after   26 cycles
 Normal termination of Gaussian 16 at Tue Dec  8 13:54:30 2020.
 Gaussian 16:  ES64L-G16RevA.03 25-Dec-2016

 ----------------------------------------------------------------------
 # B3LYP/6-311++G(d,p) empiricaldispersion=gd3bj scf=xqc pop=npa geom=c
 heck
 ----------------------------------------------------------------------

 -----------------------------------
 CID_143442766_JID_973_Energie_anion
 -----------------------------------
 Structure from the checkpoint file:  "JID_973.chk"
 Charge = -1 Multiplicity = 2

                         Standard orientation:
 ---------------------------------------------------------------------
 Center     Atomic      Atomic             Coordinates (Angstroms)
 Number     Number       Type             X           Y           Z
 ---------------------------------------------------------------------
      1          6           0       -2.707687    1.450688   -0.572088
      2          6           0       -1.498934    2.075611    0.058116
      3          6           0       -0.276140    1.554409    0.266060
      4          6           0        0.263814    0.232377   -0.026901
      5          6           0        1.578479   -0.082311   -0.097708
      6          6           0        2.694444    0.829709    0.054578
      7          6           0        3.973499    0.423373    0.006536
      8         16           0       -0.844537   -1.204228   -0.326642
      9          8           0        0.054352   -2.403433   -0.463923
     10          7           0       -1.574354   -1.108736    1.239741
     11          1           0       -3.348781    0.995130    0.194248
     12          1           0       -2.453511    0.667121   -1.289440
     13          1           0       -3.302154    2.210462   -1.091603
     14          1           0       -1.638358    3.099249    0.403146
     15          1           0        0.448172    2.215362    0.738594
     16          1           0        1.819968   -1.126812   -0.291760
     17          1           0        2.481433    1.885601    0.205373
     18          1           0        4.798792    1.119163    0.121645
     19          1           0        4.229595   -0.621424   -0.151843
     20          1           0       -2.238665   -1.878805    1.322894
     21          1           0       -0.863092   -1.211927    1.966658
 ---------------------------------------------------------------------

 SCF Done:  E(UB3LYP) =  -801.626183436     A.U. after   25 cycles

 The electronic state is 2-A.
 Alpha  occ. eigenvalues --  -88.82068 -18.94899 -14.19333 -10.03622 -10.03020
 Alpha  occ. eigenvalues --  -10.02897 -10.02107 -10.01878 -10.00381 -10.00324
 Alpha  occ. eigenvalues --   -7.89464  -5.85853  -5.85577  -5.85022  -0.88794
 Alpha  occ. eigenvalues --   -0.75896  -0.67504  -0.64036  -0.60160  -0.55145
 Alpha  occ. eigenvalues --   -0.52543  -0.44789  -0.42638  -0.38426  -0.35795
 Alpha  occ. eigenvalues --   -0.34679  -0.32769  -0.30898  -0.30010  -0.28533
 Alpha  occ. eigenvalues --   -0.26911  -0.24958  -0.24478  -0.23809  -0.21416
 Alpha  occ. eigenvalues --   -0.19426  -0.18815  -0.17821  -0.14446  -0.13371
 Alpha  occ. eigenvalues --   -0.10281  -0.07588   0.04238
 Alpha virt. eigenvalues --    0.08488   0.09457   0.09969   0.10914   0.12325
 Alpha virt. eigenvalues --    0.12605   0.13058   0.13151   0.14212   0.14558
 Alpha virt. eigenvalues --    0.15210   0.15785   0.16306   0.17528   0.18286

  Beta  occ. eigenvalues --  -88.82058 -18.94875 -14.19231 -10.03642 -10.02932
  Beta  occ. eigenvalues --  -10.02845 -10.01908 -10.01849 -10.00006  -9.99883
  Beta  occ. eigenvalues --   -7.89454  -5.85839  -5.85553  -5.85021  -0.88715
  Beta  occ. eigenvalues --   -0.75708  -0.67042  -0.63533  -0.59720  -0.55057
  Beta  occ. eigenvalues --   -0.52057  -0.44087  -0.42236  -0.38232  -0.35535
  Beta  occ. eigenvalues --   -0.34522  -0.32618  -0.30709  -0.29790  -0.28299
  Beta  occ. eigenvalues --   -0.26755  -0.24787  -0.24246  -0.23674  -0.21189
  Beta  occ. eigenvalues --   -0.19029  -0.18053  -0.17307  -0.13767  -0.12554
  Beta  occ. eigenvalues --   -0.10083  -0.05577
  Beta virt. eigenvalues --    0.08379   0.09204   0.09930   0.10723   0.10874
  Beta virt. eigenvalues --    0.12302   0.12523   0.13047   0.13211   0.14508
  Beta virt. eigenvalues --    0.15088   0.15266   0.15899   0.16515   0.17594

 Mulliken charges and spin densities:
               1          2
     1  C   -0.797488   0.002027
     2  C   -0.149301   0.140527
     3  C   -0.769532   0.040029
     4  C    0.492750   0.272910
     5  C    0.024753   0.214575
     6  C    0.050873  -0.099373
     7  C   -0.654625   0.425830
     8  S    0.313473  -0.152578
     9  O   -0.424155   0.009663
    10  N   -0.343856  -0.065686
    11  H    0.101153   0.038122
    12  H    0.126000  -0.003382
    13  H    0.106352   0.005829
    14  H    0.119354  -0.011534
    15  H    0.090016   0.001951
    16  H    0.222299  -0.012033
    17  H    0.068427   0.002496
    18  H    0.095711  -0.021266
    19  H    0.071605  -0.021082
    20  H    0.047936   0.187860
    21  H    0.208255   0.045114
 Sum of Mulliken charges =  -1.00000   1.00000

 Dipole moment (field-independent basis, Debye):
    X=             -3.4055    Y=              1.3710    Z=              0.8310  Tot=              3.7640
 Quadrupole moment (field-independent basis, Debye-Ang):
   XX=           -103.6500   YY=            -90.0047   ZZ=            -79.1351
   XY=              0.9059   XZ=              1.8800   YZ=             -2.0798

 Summary of Natural Population Analysis:

                                       Natural Population
                Natural  -----------------------------------------------
    Atom  No    Charge         Core      Valence    Rydberg      Total
 -----------------------------------------------------------------------
      C    1   -0.31045      0.99965     2.30552    0.00527     3.31045
      C    2   -0.04675      0.99957     2.03783    0.00936     3.04675
      C    3   -0.12616      0.99949     2.11627    0.01040     3.12616
      C    4   -0.11460      0.99935     2.09918    0.01606     3.11460
      C    5   -0.02593      0.99946     2.01581    0.01067     3.02593
      C    6   -0.12875      0.99956     2.11984    0.00935     3.12875
      C    7   -0.09025      0.99960     2.08250    0.00815     3.09025
      S    8    0.65249      4.99941     2.28104    0.06706     7.34751
      O    9   -0.48539      0.99993     3.47990    0.00556     4.48539
      N   10   -0.49894      0.99980     2.98757    0.01157     3.99894
      H   11    0.10505      0.00000     0.39317    0.00178     0.39495
      H   12    0.10174      0.00000     0.39580    0.00246     0.39826
      H   13    0.09158      0.00000     0.40750    0.00092     0.40842
      H   14    0.07817      0.00000     0.42020    0.00163     0.42183
      H   15    0.09554      0.00000     0.40299    0.00147     0.40446
      H   16    0.10513      0.00000     0.39309    0.00178     0.39487
      H   17    0.08461      0.00000     0.41373    0.00166     0.41539
      H   18    0.07676      0.00000     0.42219    0.00105     0.42324
      H   19    0.07902      0.00000     0.41985    0.00112     0.42098
      H   20    0.17600      0.00000     0.31989    0.00411     0.32400
      H   21    0.18111      0.00000     0.31660    0.00229     0.31889
 =======================================================================
   * Total *   -0.00000     13.99582    27.83046    0.17372    42.00000

 Normal termination of Gaussian 16 at Tue Dec  8 13:59:20 2020.
