 Gaussian 16, Revision A.03,

 -----------------------------------------------------------
 # opt freq B3LYP/6-31G(d) empiricaldispersion=gd3bj scf=xqc
 -----------------------------------------------------------

 -------------------------------
 CID_102775811_JID_8246_neutraal
 -------------------------------
 Symbolic Z-matrix:
 Charge =  0 Multiplicity = 1

 SCF Done:  E(RB3LYP) =  -857.522068877     A.U. after   15 cycles
 SCF Done:  E(RB3LYP) =  -857.527608136     A.U. after   13 cycles
 SCF Done:  E(RB3LYP) =  -857.528064810     A.U. after   14 cycles
 SCF Done:  E(RB3LYP) =  -857.529041005     A.U. after   13 cycles
 SCF Done:  E(RB3LYP) =  -857.530021281     A.U. after   12 cycles
 SCF Done:  E(RB3LYP) =  -857.530784496     A.U. after   12 cycles
 SCF Done:  E(RB3LYP) =  -857.530644799     A.U. after   13 cycles
 SCF Done:  E(RB3LYP) =  -857.531916133     A.U. after   12 cycles
 SCF Done:  E(RB3LYP) =  -857.532248172     A.U. after   11 cycles
 SCF Done:  E(RB3LYP) =  -857.532399022     A.U. after   12 cycles
 SCF Done:  E(RB3LYP) =  -857.532931172     A.U. after    7 cycles
 SCF Done:  E(RB3LYP) =  -857.532931414     A.U. after    7 cycles
 SCF Done:  E(RB3LYP) =  -857.532931543     A.U. after    7 cycles
 SCF Done:  E(RB3LYP) =  -857.532931595     A.U. after    7 cycles
 Optimization completed.
    -- Stationary point found.
 Normal termination of Gaussian 16 at Fri Dec 11 19:56:13 2020.

 --------------------------------------------------------------------
 #N Geom=AllCheck Guess=TCheck SCRF=Check GenChk RB3LYP/6-31G(d) Freq
 --------------------------------------------------------------------

 Structure from the checkpoint file:  "JID_8246.chk"
 -------------------------------
 CID_102775811_JID_8246_neutraal
 -------------------------------
 Charge =  0 Multiplicity = 1

 SCF Done:  E(RB3LYP) =  -857.532931595     A.U. after    1 cycles

  Exact polarizability: 160.271   7.243 145.726 -11.773  10.221 125.746
 Approx polarizability: 214.363  16.720 246.732 -22.679  18.011 191.430

                      1                      2                      3
                      A                      A                      A
 Frequencies --     28.5197                48.6382                66.4484
 Red. masses --      5.2996                 4.5823                 4.1520
 Frc consts  --      0.0025                 0.0064                 0.0108
 IR Inten    --      1.0534                 0.0330                 1.0258

                      4                      5                      6
                      A                      A                      A
 Frequencies --     82.3228                96.6668               114.7443
 Red. masses --      5.3025                 7.0389                 2.3840
 Frc consts  --      0.0212                 0.0388                 0.0185
 IR Inten    --      0.6030                 3.1659                 0.2467

                      7                      8                      9
                      A                      A                      A
 Frequencies --    124.3633               149.9194               171.3751
 Red. masses --      1.4719                 2.3041                 2.7045
 Frc consts  --      0.0134                 0.0305                 0.0468
 IR Inten    --      0.0755                 1.5365                 1.0398

                     10                     11                     12
                      A                      A                      A
 Frequencies --    178.5894               194.0986               197.2011
 Red. masses --      2.7766                 3.4547                 1.2969
 Frc consts  --      0.0522                 0.0767                 0.0297
 IR Inten    --      1.0405                 1.1563                 0.7963

                     13                     14                     15
                      A                      A                      A
 Frequencies --    235.8381               246.2959               259.2420
 Red. masses --      2.6037                 2.8774                 1.2279
 Frc consts  --      0.0853                 0.1028                 0.0486
 IR Inten    --      1.4048                 3.1359                 1.7397

                     16                     17                     18
                      A                      A                      A
 Frequencies --    311.5674               330.3170               333.0022
 Red. masses --      4.7385                 3.8143                 3.6617
 Frc consts  --      0.2710                 0.2452                 0.2392
 IR Inten    --      8.2037                 0.2420                 0.0962

                     19                     20                     21
                      A                      A                      A
 Frequencies --    352.8449               396.9274               436.4827
 Red. masses --      4.0318                 5.2284                 2.9137
 Frc consts  --      0.2957                 0.4853                 0.3271
 IR Inten    --      2.9733                 1.1291                 2.9622

                     22                     23                     24
                      A                      A                      A
 Frequencies --    453.5785               471.1495               474.4083
 Red. masses --      5.1574                 3.5761                 1.4593
 Frc consts  --      0.6252                 0.4677                 0.1935
 IR Inten    --      4.7376                 7.1474                53.1333

                     25                     26                     27
                      A                      A                      A
 Frequencies --    545.2727               584.4942               607.5949
 Red. masses --      3.7753                 2.0672                 3.6502
 Frc consts  --      0.6614                 0.4161                 0.7939
 IR Inten    --      9.9815                34.0590                 2.7743

                     28                     29                     30
                      A                      A                      A
 Frequencies --    614.3614               655.2389               666.7408
 Red. masses --      2.8558                 2.0515                 2.9565
 Frc consts  --      0.6351                 0.5189                 0.7743
 IR Inten    --     20.2109                65.7203                34.6148

                     31                     32                     33
                      A                      A                      A
 Frequencies --    695.7732               742.2862               762.4862
 Red. masses --      5.9325                 3.7646                 6.0545
 Frc consts  --      1.6921                 1.2221                 2.0739
 IR Inten    --      1.0481                63.7206                 1.1482

                     34                     35                     36
                      A                      A                      A
 Frequencies --    804.4172               815.9212               838.9052
 Red. masses --      5.4735                 2.4838                 5.6700
 Frc consts  --      2.0868                 0.9742                 2.3510
 IR Inten    --      8.8972                 3.5705                20.6621

                     37                     38                     39
                      A                      A                      A
 Frequencies --    879.9075               908.6952               942.9811
 Red. masses --      2.7232                 2.6468                 3.0616
 Frc consts  --      1.2423                 1.2877                 1.6040
 IR Inten    --      8.2871                 3.5849                14.7498

                     40                     41                     42
                      A                      A                      A
 Frequencies --    966.1882               987.5892              1005.7236
 Red. masses --      1.9404                 1.3052                 1.5566
 Frc consts  --      1.0672                 0.7500                 0.9277
 IR Inten    --      2.7085                 0.4622                 4.5642

                     43                     44                     45
                      A                      A                      A
 Frequencies --   1023.3420              1030.4161              1070.8553
 Red. masses --      1.9248                 1.7295                 2.4313
 Frc consts  --      1.1876                 1.0819                 1.6427
 IR Inten    --      2.2970                 7.8587                 4.5444

                     46                     47                     48
                      A                      A                      A
 Frequencies --   1075.8091              1082.9833              1099.8639
 Red. masses --      1.8570                 1.4982                 2.1496
 Frc consts  --      1.2663                 1.0353                 1.5321
 IR Inten    --      2.3579                 1.8465                 8.8545

                     49                     50                     51
                      A                      A                      A
 Frequencies --   1139.8503              1159.3607              1173.6305
 Red. masses --      2.1077                 2.1759                 3.4844
 Frc consts  --      1.6134                 1.7232                 2.8278
 IR Inten    --     37.8671                63.9725                15.2722

                     52                     53                     54
                      A                      A                      A
 Frequencies --   1189.8330              1212.8012              1215.9400
 Red. masses --      2.3088                 1.8325                 2.5575
 Frc consts  --      1.9258                 1.5881                 2.2279
 IR Inten    --     79.0229                21.9273                21.6591

                     55                     56                     57
                      A                      A                      A
 Frequencies --   1229.8471              1274.6166              1314.5203
 Red. masses --      2.7047                 1.7559                 1.6029
 Frc consts  --      2.4103                 1.6807                 1.6319
 IR Inten    --     25.6514                20.1848                12.3881

                     58                     59                     60
                      A                      A                      A
 Frequencies --   1322.5840              1327.0472              1344.3734
 Red. masses --      1.7156                 1.4521                 1.3321
 Frc consts  --      1.7681                 1.5066                 1.4184
 IR Inten    --      8.3429                 5.5856                 3.1206

                     61                     62                     63
                      A                      A                      A
 Frequencies --   1374.4741              1383.8843              1393.6332
 Red. masses --      1.4269                 1.6127                 1.9441
 Frc consts  --      1.5882                 1.8197                 2.2247
 IR Inten    --     28.1595                56.6904                86.2400

                     64                     65                     66
                      A                      A                      A
 Frequencies --   1395.7855              1412.7243              1424.2971
 Red. masses --      2.1688                 2.0243                 1.8069
 Frc consts  --      2.4895                 2.3804                 2.1597
 IR Inten    --     41.8307                44.2007                30.0843

                     67                     68                     69
                      A                      A                      A
 Frequencies --   1440.9717              1447.5163              1451.6151
 Red. masses --      1.3315                 1.2747                 1.8776
 Frc consts  --      1.6290                 1.5736                 2.3310
 IR Inten    --      2.2511                 8.2330                 5.1123

                     70                     71                     72
                      A                      A                      A
 Frequencies --   1498.5286              1505.6193              1513.1180
 Red. masses --      1.6846                 1.0488                 1.9926
 Frc consts  --      2.2288                 1.4008                 2.6879
 IR Inten    --    125.7504                 5.4476                38.6153

                     73                     74                     75
                      A                      A                      A
 Frequencies --   1520.1092              1522.0883              1525.2021
 Red. masses --      1.0616                 1.0866                 1.0554
 Frc consts  --      1.4453                 1.4832                 1.4465
 IR Inten    --     20.0779                 0.7170                 6.6818

                     76                     77                     78
                      A                      A                      A
 Frequencies --   1534.7367              1537.4160              1544.0748
 Red. masses --      1.0608                 1.6388                 2.0029
 Frc consts  --      1.4721                 2.2822                 2.8135
 IR Inten    --      6.0409                40.7248                 1.4829

                     79                     80                     81
                      A                      A                      A
 Frequencies --   1553.1405              1627.9162              1742.5284
 Red. masses --      1.1043                 4.8305                12.1400
 Frc consts  --      1.5694                 7.5424                21.7184
 IR Inten    --      4.0448                37.6471               282.0327

                     82                     83                     84
                      A                      A                      A
 Frequencies --   1843.8196              3037.5652              3044.4356
 Red. masses --      9.6987                 1.0841                 1.0411
 Frc consts  --     19.4267                 5.8935                 5.6854
 IR Inten    --    201.5543                10.8256                19.2135

                     85                     86                     87
                      A                      A                      A
 Frequencies --   3044.9974              3055.9591              3059.1473
 Red. masses --      1.0726                 1.0356                 1.0392
 Frc consts  --      5.8594                 5.6982                 5.7301
 IR Inten    --     53.2602                17.0470                17.9827

                     88                     89                     90
                      A                      A                      A
 Frequencies --   3074.3780              3098.5374              3120.1981
 Red. masses --      1.0604                 1.0998                 1.0958
 Frc consts  --      5.9050                 6.2212                 6.2857
 IR Inten    --     25.3394                18.7913                12.9286

                     91                     92                     93
                      A                      A                      A
 Frequencies --   3120.5618              3125.3633              3129.9135
 Red. masses --      1.1039                 1.1023                 1.1027
 Frc consts  --      6.3337                 6.3439                 6.3645
 IR Inten    --      5.6468                54.4016                13.2283

                     94                     95                     96
                      A                      A                      A
 Frequencies --   3137.1599              3146.5862              3148.7486
 Red. masses --      1.0861                 1.0985                 1.0938
 Frc consts  --      6.2979                 6.4081                 6.3897
 IR Inten    --     19.8354                 5.7443                 6.7196

                     97                     98                     99
                      A                      A                      A
 Frequencies --   3154.6715              3661.4200              3685.2997
 Red. masses --      1.1040                 1.0811                 1.0641
 Frc consts  --      6.4732                 8.5394                 8.5150
 IR Inten    --     10.8803                72.3609                56.0518

 - Thermochemistry -
 -------------------
 Temperature   298.150 Kelvin.  Pressure   1.00000 Atm.
 Atom     1 has atomic number  6 and mass  12.00000

 Molecular mass:   251.12699 amu.
 Principal axes and moments of inertia in atomic units:
                           1         2         3
     Eigenvalues --  2674.287315069.893865568.09648
           X            0.99998  -0.00502  -0.00472
           Y            0.00558   0.99187   0.12716
           Z            0.00404  -0.12718   0.99187
 This molecule is an asymmetric top.
 Rotational symmetry number  1.
 Warning -- assumption of classical behavior for rotation
           may cause significant error
 Rotational temperatures (Kelvin)      0.03239     0.01708     0.01556
 Rotational constants (GHZ):           0.67485     0.35597     0.32412
 Zero-point vibrational energy     766237.7 (Joules/Mol)
                                  183.13520 (Kcal/Mol)
 Warning -- explicit consideration of  28 degrees of freedom as
           vibrations may cause significant error
 Vibrational temperatures:     41.03    69.98    95.60   118.44   139.08
          (Kelvin)            165.09   178.93   215.70   246.57   256.95
                              279.26   283.73   339.32   354.36   372.99
                              448.28   475.25   479.12   507.67   571.09
                              628.00   652.60   677.88   682.57   784.53
                              840.96   874.19   883.93   942.74   959.29
                             1001.06  1067.98  1097.05  1157.38  1173.93
                             1207.00  1265.99  1307.41  1356.74  1390.13
                             1420.92  1447.01  1472.36  1482.54  1540.72
                             1547.85  1558.17  1582.46  1639.99  1668.06
                             1688.59  1711.90  1744.95  1749.47  1769.48
                             1833.89  1891.30  1902.90  1909.32  1934.25
                             1977.56  1991.10  2005.13  2008.22  2032.60
                             2049.25  2073.24  2082.65  2088.55  2156.05
                             2166.25  2177.04  2187.10  2189.95  2194.43
                             2208.14  2212.00  2221.58  2234.62  2342.21
                             2507.11  2652.85  4370.38  4380.26  4381.07
                             4396.84  4401.43  4423.34  4458.10  4489.27
                             4489.79  4496.70  4503.25  4513.67  4527.24
                             4530.35  4538.87  5267.97  5302.32

 Zero-point correction=                           0.291845 (Hartree/Particle)
 Thermal correction to Energy=                    0.309606
 Thermal correction to Enthalpy=                  0.310550
 Thermal correction to Gibbs Free Energy=         0.246061
 Sum of electronic and zero-point Energies=           -857.241087
 Sum of electronic and thermal Energies=              -857.223325
 Sum of electronic and thermal Enthalpies=            -857.222381
 Sum of electronic and thermal Free Energies=         -857.286871

                     E (Thermal)             CV                S
                      KCal/Mol        Cal/Mol-Kelvin    Cal/Mol-Kelvin
 Total                  194.281             66.219            135.730
 Electronic               0.000              0.000              0.000
 Translational            0.889              2.981             42.463
 Rotational               0.889              2.981             32.690
 Vibrational            192.503             60.257             60.577
 Vibration     1          0.593              1.984              5.930
 Vibration     2          0.595              1.978              4.872
 Vibration     3          0.598              1.970              4.256
 Vibration     4          0.600              1.961              3.835
 Vibration     5          0.603              1.952              3.520
 Vibration     6          0.608              1.937              3.187
 Vibration     7          0.610              1.929              3.031
 Vibration     8          0.618              1.903              2.673
 Vibration     9          0.626              1.878              2.420
 Vibration    10          0.629              1.869              2.343
 Vibration    11          0.635              1.848              2.188
 Vibration    12          0.637              1.844              2.159
 Vibration    13          0.655              1.786              1.834
 Vibration    14          0.661              1.769              1.757
 Vibration    15          0.668              1.747              1.667
 Vibration    16          0.700              1.652              1.354
 Vibration    17          0.713              1.615              1.259
 Vibration    18          0.715              1.610              1.245
 Vibration    19          0.729              1.569              1.153
 Vibration    20          0.763              1.477              0.974
 Vibration    21          0.797              1.391              0.838
 Vibration    22          0.812              1.353              0.785
 Vibration    23          0.828              1.314              0.734
 Vibration    24          0.831              1.307              0.725
 Vibration    25          0.900              1.150              0.554
 Vibration    26          0.941              1.065              0.477
 Vibration    27          0.966              1.016              0.437
 Vibration    28          0.974              1.001              0.426

 Optimization completed.
    -- Stationary point found.
 Normal termination of Gaussian 16 at Fri Dec 11 20:14:33 2020.

 ----------------------------------------------------------------------
 # B3LYP/6-311++G(d,p) empiricaldispersion=gd3bj scf=xqc pop=npa geom=c
 heck
 ----------------------------------------------------------------------

 ---------------------------------------
 CID_102775811_JID_8246_Energie_neutraal
 ---------------------------------------
 Structure from the checkpoint file:  "JID_8246.chk"
 Charge =  0 Multiplicity = 1

 SCF Done:  E(RB3LYP) =  -857.780736972     A.U. after   17 cycles
 Normal termination of Gaussian 16 at Fri Dec 11 20:22:52 2020.

 ----------------------------------------------------------------------
 # B3LYP/6-311++G(d,p) empiricaldispersion=gd3bj scf=xqc pop=npa geom=c
 heck
 ----------------------------------------------------------------------

 -------------------------------------
 CID_102775811_JID_8246_Energie_kation
 -------------------------------------
 Structure from the checkpoint file:  "JID_8246.chk"
 Charge =  1 Multiplicity = 2

 SCF Done:  E(UB3LYP) =  -857.469647905     A.U. after   33 cycles
 SCF Done:  E(UB3LYP) =  -857.469726250     a.u. after    6 cycles
 Normal termination of Gaussian 16 at Fri Dec 11 22:31:54 2020.
 Gaussian 16:  ES64L-G16RevA.03 25-Dec-2016

 ----------------------------------------------------------------------
 # B3LYP/6-311++G(d,p) empiricaldispersion=gd3bj scf=xqc pop=npa geom=c
 heck
 ----------------------------------------------------------------------

 ------------------------------------
 CID_102775811_JID_8246_Energie_anion
 ------------------------------------
 Structure from the checkpoint file:  "JID_8246.chk"
 Charge = -1 Multiplicity = 2

                         Standard orientation:
 ---------------------------------------------------------------------
 Center     Atomic      Atomic             Coordinates (Angstroms)
 Number     Number       Type             X           Y           Z
 ---------------------------------------------------------------------
      1          6           0       -3.574700    1.399690   -0.527731
      2          6           0       -2.849690    0.415814    0.385999
      3          6           0       -3.105998   -1.068290    0.089156
      4          6           0       -1.982393   -1.780153    0.842260
      5          7           0       -0.863784   -0.822507    0.786045
      6          6           0       -1.294125    0.511581    0.365745
      7          6           0       -0.767009    0.947636   -0.995279
      8          8           0       -0.472743    2.090093   -1.264450
      9          8           0       -0.732823   -0.058367   -1.902594
     10          6           0        0.420632   -1.308082    0.656080
     11          8           0        0.654262   -2.513220    0.712473
     12          6           0        1.497327   -0.322068    0.398346
     13          6           0        1.836347    0.846629    1.070724
     14          7           0        2.932442    1.321930    0.426417
     15          7           0        3.333313    0.552601   -0.618802
     16          6           0        2.473676   -0.460653   -0.634988
     17          6           0        2.570128   -1.553295   -1.649745
     18          6           0        1.258274    1.522801    2.270615
     19          1           0       -3.281525    2.433930   -0.320715
     20          1           0       -4.657440    1.315830   -0.387699
     21          1           0       -3.357070    1.193940   -1.581547
     22          1           0       -3.146658    0.613337    1.424670
     23          1           0       -4.101800   -1.390726    0.407706
     24          1           0       -3.012715   -1.251765   -0.986931
     25          1           0       -1.665447   -2.722579    0.393794
     26          1           0       -2.255607   -1.978385    1.886767
     27          1           0       -0.969491    1.290043    1.056370
     28          1           0       -0.387626    0.334976   -2.726265
     29          1           0        3.456581    2.155904    0.644493
     30          1           0        2.683659   -2.524014   -1.158436
     31          1           0        1.654940   -1.607920   -2.250981
     32          1           0        3.421396   -1.374208   -2.311123
     33          1           0        0.543117    0.861929    2.766070
     34          1           0        2.038150    1.776650    2.997848
     35          1           0        0.739361    2.451178    1.999838
 ---------------------------------------------------------------------

 SCF Done:  E(UB3LYP) =  -857.774207374     A.U. after   33 cycles
 SCF Done:  E(UB3LYP) =  -857.774207374     a.u. after    1 cycles

 The electronic state is 2-A.
 Alpha  occ. eigenvalues --  -19.08684 -19.02616 -18.99153 -14.28765 -14.24752
 Alpha  occ. eigenvalues --  -14.23468 -10.21452 -10.17968 -10.13133 -10.12872
 Alpha  occ. eigenvalues --  -10.10684 -10.10602 -10.09616 -10.08455 -10.07952
 Alpha  occ. eigenvalues --  -10.07714 -10.07473 -10.07283  -1.02536  -0.95279
 Alpha  occ. eigenvalues --   -0.94242  -0.93474  -0.85410  -0.74489  -0.72414
 Alpha  occ. eigenvalues --   -0.70753  -0.67010  -0.62979  -0.62186  -0.61567
 Alpha  occ. eigenvalues --   -0.56165  -0.55376  -0.51342  -0.48462  -0.47559
 Alpha  occ. eigenvalues --   -0.46720  -0.43169  -0.41824  -0.40384  -0.39895
 Alpha  occ. eigenvalues --   -0.37951  -0.36925  -0.36039  -0.35055  -0.34341
 Alpha  occ. eigenvalues --   -0.33988  -0.33266  -0.32491  -0.32036  -0.31825
 Alpha  occ. eigenvalues --   -0.31073  -0.30376  -0.30033  -0.29996  -0.29407
 Alpha  occ. eigenvalues --   -0.27888  -0.26827  -0.26080  -0.25050  -0.23915
 Alpha  occ. eigenvalues --   -0.23863  -0.20271  -0.20062  -0.17293  -0.15668
 Alpha  occ. eigenvalues --   -0.15279  -0.14861   0.03854
 Alpha virt. eigenvalues --    0.05876   0.06359   0.07437   0.07833   0.08088
 Alpha virt. eigenvalues --    0.08448   0.09019   0.09423   0.09827   0.10522
 Alpha virt. eigenvalues --    0.10717   0.11206   0.11600   0.12192   0.12685

  Beta  occ. eigenvalues --  -19.08656 -19.02582 -18.99148 -14.28737 -14.24750
  Beta  occ. eigenvalues --  -14.23465 -10.21401 -10.17963 -10.13127 -10.12862
  Beta  occ. eigenvalues --  -10.10682 -10.10589 -10.09584 -10.08396 -10.07935
  Beta  occ. eigenvalues --  -10.07714 -10.07469 -10.07258  -1.02468  -0.95258
  Beta  occ. eigenvalues --   -0.94229  -0.93415  -0.85387  -0.74458  -0.72379
  Beta  occ. eigenvalues --   -0.70718  -0.66960  -0.62936  -0.62144  -0.61509
  Beta  occ. eigenvalues --   -0.56120  -0.55291  -0.51305  -0.48391  -0.47514
  Beta  occ. eigenvalues --   -0.46683  -0.43121  -0.41754  -0.40340  -0.39845
  Beta  occ. eigenvalues --   -0.37853  -0.36886  -0.35999  -0.35011  -0.34279
  Beta  occ. eigenvalues --   -0.33930  -0.33231  -0.32461  -0.31985  -0.31780
  Beta  occ. eigenvalues --   -0.31039  -0.30339  -0.30006  -0.29963  -0.29382
  Beta  occ. eigenvalues --   -0.27862  -0.26793  -0.26028  -0.24997  -0.23807
  Beta  occ. eigenvalues --   -0.23781  -0.20259  -0.20024  -0.17284  -0.15645
  Beta  occ. eigenvalues --   -0.15248  -0.14839
  Beta virt. eigenvalues --    0.06120   0.06813   0.07208   0.07834   0.08224
  Beta virt. eigenvalues --    0.08605   0.08869   0.09105   0.09896   0.10130
  Beta virt. eigenvalues --    0.10729   0.10843   0.11526   0.11733   0.12573

 Mulliken charges and spin densities:
               1          2
     1  C    0.370360  -1.058888
     2  C   -0.734608   0.938306
     3  C   -0.216020  -0.416644
     4  C    0.265399  -0.349305
     5  N    0.012042   0.191624
     6  C    1.304793  -1.055542
     7  C   -0.530532  -0.141281
     8  O   -0.204571   0.053022
     9  O   -0.127478   0.050597
    10  C   -0.486969   0.143634
    11  O   -0.312777   0.002455
    12  C    1.457928  -0.555329
    13  C   -0.951118   0.788028
    14  N   -0.011784  -0.129352
    15  N   -0.254971   0.212066
    16  C   -0.264205  -0.217104
    17  C   -0.325764  -0.268154
    18  C    0.802918  -1.405684
    19  H    0.010054   0.143545
    20  H   -0.360387   0.532957
    21  H    0.064470   0.085982
    22  H   -0.842917   1.077819
    23  H   -0.200254   0.384136
    24  H    0.122646   0.041640
    25  H    0.192100  -0.007164
    26  H   -0.087594   0.269307
    27  H    0.915292  -0.612746
    28  H    0.205135   0.086663
    29  H   -0.043349   0.380478
    30  H    0.172299   0.021149
    31  H    0.124019   0.006044
    32  H    0.127075   0.013734
    33  H   -0.205625   0.403749
    34  H   -0.717857   0.915493
    35  H   -0.267749   0.474764
 Sum of Mulliken charges =  -1.00000   1.00000

 Dipole moment (field-independent basis, Debye):
    X=              0.8581    Y=             -2.9431    Z=             -6.2000  Tot=              6.9165
 Quadrupole moment (field-independent basis, Debye-Ang):
   XX=           -179.6901   YY=           -153.6511   ZZ=           -146.4734
   XY=             -0.6778   XZ=              5.6832   YZ=             -2.9828

 Summary of Natural Population Analysis:

                                       Natural Population
                Natural  -----------------------------------------------
    Atom  No    Charge         Core      Valence    Rydberg      Total
 -----------------------------------------------------------------------
      C    1   -0.28754      0.99964     2.28120    0.00670     3.28754
      C    2   -0.10502      0.99959     2.09301    0.01242     3.10502
      C    3   -0.19436      0.99961     2.18627    0.00849     3.19436
      C    4   -0.08163      0.99962     2.07165    0.01036     3.08163
      N    5   -0.25369      0.99965     2.74318    0.01087     3.75369
      C    6   -0.04962      0.99950     2.03523    0.01489     3.04962
      C    7    0.41142      0.99967     1.56208    0.02682     2.58858
      O    8   -0.29969      0.99987     3.29361    0.00621     4.29969
      O    9   -0.34675      0.99987     3.34055    0.00633     4.34675
      C   10    0.34730      0.99958     1.63022    0.02290     2.65270
      O   11   -0.31969      0.99988     3.31530    0.00452     4.31969
      C   12   -0.12752      0.99936     2.11707    0.01110     3.12752
      C   13    0.10522      0.99951     1.88296    0.01231     2.89478
      N   14   -0.16769      0.99964     2.65557    0.01248     3.66769
      N   15   -0.16228      0.99970     2.65025    0.01234     3.66228
      C   16    0.09375      0.99956     1.89141    0.01528     2.90625
      C   17   -0.30065      0.99963     2.29648    0.00453     3.30065
      C   18   -0.30796      0.99963     2.30216    0.00618     3.30796
      H   19    0.10696      0.00000     0.39214    0.00091     0.39304
      H   20    0.10486      0.00000     0.39412    0.00102     0.39514
      H   21    0.09669      0.00000     0.40230    0.00102     0.40331
      H   22    0.10717      0.00000     0.38783    0.00500     0.39283
      H   23    0.10617      0.00000     0.39277    0.00106     0.39383
      H   24    0.09909      0.00000     0.39943    0.00148     0.40091
      H   25    0.10966      0.00000     0.38933    0.00101     0.39034
      H   26    0.09604      0.00000     0.40274    0.00123     0.40396
      H   27    0.11647      0.00000     0.38076    0.00276     0.38353
      H   28    0.23974      0.00000     0.25699    0.00327     0.26026
      H   29    0.20026      0.00000     0.29655    0.00319     0.29974
      H   30    0.11335      0.00000     0.38569    0.00095     0.38665
      H   31    0.10465      0.00000     0.39429    0.00106     0.39535
      H   32    0.10442      0.00000     0.39464    0.00094     0.39558
      H   33    0.11431      0.00000     0.38411    0.00158     0.38569
      H   34    0.11342      0.00000     0.38400    0.00258     0.38658
      H   35    0.11318      0.00000     0.38541    0.00141     0.38682
 =======================================================================
   * Total *   -0.00000     17.99351    48.77130    0.23519    67.00000

 Normal termination of Gaussian 16 at Fri Dec 11 22:54:48 2020.
