 Gaussian 16, Revision A.03,

 -----------------------------------------------------------
 # opt freq B3LYP/6-31G(d) empiricaldispersion=gd3bj scf=xqc
 -----------------------------------------------------------

 ----------------------------
 CID_340479_JID_9312_neutraal
 ----------------------------
 Symbolic Z-matrix:
 Charge =  0 Multiplicity = 1

 SCF Done:  E(RB3LYP) =  -990.915146312     A.U. after   15 cycles
 SCF Done:  E(RB3LYP) =  -990.924756140     A.U. after   13 cycles
 SCF Done:  E(RB3LYP) =  -990.923840546     A.U. after   14 cycles
 SCF Done:  E(RB3LYP) =  -990.926229275     A.U. after   13 cycles
 SCF Done:  E(RB3LYP) =  -990.927063300     A.U. after   13 cycles
 SCF Done:  E(RB3LYP) =  -990.927551659     A.U. after   13 cycles
 SCF Done:  E(RB3LYP) =  -990.928258837     A.U. after   13 cycles
 SCF Done:  E(RB3LYP) =  -990.928807867     A.U. after   13 cycles
 SCF Done:  E(RB3LYP) =  -990.929022243     A.U. after   13 cycles
 SCF Done:  E(RB3LYP) =  -990.929561885     A.U. after   12 cycles
 SCF Done:  E(RB3LYP) =  -990.929959076     A.U. after   10 cycles
 SCF Done:  E(RB3LYP) =  -990.929963111     A.U. after   10 cycles
 SCF Done:  E(RB3LYP) =  -990.929964193     A.U. after    8 cycles
 SCF Done:  E(RB3LYP) =  -990.929964438     A.U. after    8 cycles
 SCF Done:  E(RB3LYP) =  -990.929964640     A.U. after    8 cycles
 Optimization completed.
    -- Stationary point found.
 Normal termination of Gaussian 16 at Sat Dec 12 09:38:31 2020.

 --------------------------------------------------------------------
 #N Geom=AllCheck Guess=TCheck SCRF=Check GenChk RB3LYP/6-31G(d) Freq
 --------------------------------------------------------------------

 Structure from the checkpoint file:  "JID_9312.chk"
 ----------------------------
 CID_340479_JID_9312_neutraal
 ----------------------------
 Charge =  0 Multiplicity = 1

 SCF Done:  E(RB3LYP) =  -990.929964640     A.U. after    1 cycles

  Exact polarizability: 157.546   3.863 133.383  -4.135   2.073 137.208
 Approx polarizability: 210.752   0.908 179.552 -21.900  -3.675 213.750

                      1                      2                      3
                      A                      A                      A
 Frequencies --     19.0239                39.2402                43.9121
 Red. masses --      3.6849                 4.5225                 3.7993
 Frc consts  --      0.0008                 0.0041                 0.0043
 IR Inten    --      0.2464                 1.2898                 1.3847

                      4                      5                      6
                      A                      A                      A
 Frequencies --     48.5593                50.1051                67.7315
 Red. masses --      2.5536                 3.5269                 4.7913
 Frc consts  --      0.0035                 0.0052                 0.0130
 IR Inten    --      1.1330                 0.8449                 3.9217

                      7                      8                      9
                      A                      A                      A
 Frequencies --     70.9829                87.5919                98.6152
 Red. masses --      3.0239                 7.7916                 5.8217
 Frc consts  --      0.0090                 0.0352                 0.0334
 IR Inten    --      1.3901                 0.1406                 1.5715

                     10                     11                     12
                      A                      A                      A
 Frequencies --    111.5025               118.5028               126.5624
 Red. masses --      2.1205                 2.2722                 2.8460
 Frc consts  --      0.0155                 0.0188                 0.0269
 IR Inten    --      0.5292                 2.2390                 0.4118

                     13                     14                     15
                      A                      A                      A
 Frequencies --    139.0096               144.3642               160.1323
 Red. masses --      2.3860                 1.3447                 3.4413
 Frc consts  --      0.0272                 0.0165                 0.0520
 IR Inten    --      1.2536                 1.6652                 0.7728

                     16                     17                     18
                      A                      A                      A
 Frequencies --    205.7021               224.5404               247.7002
 Red. masses --      2.8272                 1.4812                 4.3435
 Frc consts  --      0.0705                 0.0440                 0.1570
 IR Inten    --      8.8728                 1.5000                 1.3888

                     19                     20                     21
                      A                      A                      A
 Frequencies --    269.9721               279.0962               311.1587
 Red. masses --      1.2384                 2.4891                 3.1559
 Frc consts  --      0.0532                 0.1142                 0.1800
 IR Inten    --      0.7388                 0.7984                 1.9080

                     22                     23                     24
                      A                      A                      A
 Frequencies --    330.1569               361.0612               381.8533
 Red. masses --      3.1564                 5.3193                 3.9717
 Frc consts  --      0.2027                 0.4086                 0.3412
 IR Inten    --      3.6323                10.6021                11.2003

                     25                     26                     27
                      A                      A                      A
 Frequencies --    388.7497               396.2551               450.9518
 Red. masses --      4.0127                 5.2465                 4.7699
 Frc consts  --      0.3573                 0.4854                 0.5715
 IR Inten    --     11.4266                 7.8117                11.3313

                     28                     29                     30
                      A                      A                      A
 Frequencies --    466.0983               483.2763               506.9823
 Red. masses --      5.0836                 3.7710                 2.7495
 Frc consts  --      0.6507                 0.5189                 0.4164
 IR Inten    --      2.8414                 3.6947                 3.6967

                     31                     32                     33
                      A                      A                      A
 Frequencies --    582.3292               590.8350               622.1065
 Red. masses --      4.1063                 2.5907                 3.4951
 Frc consts  --      0.8204                 0.5328                 0.7970
 IR Inten    --     53.3993                53.7278                12.5578

                     34                     35                     36
                      A                      A                      A
 Frequencies --    666.8589               715.9224               756.8294
 Red. masses --      4.8085                 3.6610                 3.5072
 Frc consts  --      1.2599                 1.1056                 1.1836
 IR Inten    --      2.9343                39.4173                 1.3066

                     37                     38                     39
                      A                      A                      A
 Frequencies --    775.1167               782.7371               802.5327
 Red. masses --      6.1587                 3.7686                 1.9550
 Frc consts  --      2.1801                 1.3604                 0.7419
 IR Inten    --     34.7029                53.2935                14.1146

                     40                     41                     42
                      A                      A                      A
 Frequencies --    820.9949               823.3882               876.6453
 Red. masses --      1.1308                 1.6480                 3.1516
 Frc consts  --      0.4491                 0.6583                 1.4270
 IR Inten    --      0.1579                 7.9418                 8.9809

                     43                     44                     45
                      A                      A                      A
 Frequencies --    886.0200               894.2229               939.2835
 Red. masses --      3.0367                 3.2773                 2.5842
 Frc consts  --      1.4046                 1.5440                 1.3433
 IR Inten    --     12.2796                 2.8653                12.6931

                     46                     47                     48
                      A                      A                      A
 Frequencies --    994.1406               998.9955              1004.1483
 Red. masses --      1.5043                 2.8551                 2.1872
 Frc consts  --      0.8760                 1.6788                 1.2994
 IR Inten    --      9.8669                15.0535                 4.3684

                     49                     50                     51
                      A                      A                      A
 Frequencies --   1033.3156              1061.8152              1083.0716
 Red. masses --      1.9196                 4.0082                 2.2202
 Frc consts  --      1.2076                 2.6625                 1.5345
 IR Inten    --      3.8535                43.5623                15.1976

                     52                     53                     54
                      A                      A                      A
 Frequencies --   1103.4970              1131.0733              1148.1984
 Red. masses --      5.3509                 1.9804                 2.1611
 Frc consts  --      3.8390                 1.4927                 1.6787
 IR Inten    --    154.3722                30.6457                12.0649

                     55                     56                     57
                      A                      A                      A
 Frequencies --   1185.6344              1195.4146              1199.0923
 Red. masses --      3.0546                 1.5383                 2.0517
 Frc consts  --      2.5299                 1.2952                 1.7381
 IR Inten    --     69.2724                 3.8830                38.2727

                     58                     59                     60
                      A                      A                      A
 Frequencies --   1212.7590              1220.8655              1255.0954
 Red. masses --      1.9475                 2.8229                 2.1824
 Frc consts  --      1.6876                 2.4790                 2.0255
 IR Inten    --     21.4445               170.2911               158.4813

                     61                     62                     63
                      A                      A                      A
 Frequencies --   1276.2693              1308.8977              1310.9692
 Red. masses --      2.7017                 1.1112                 4.7177
 Frc consts  --      2.5928                 1.1217                 4.7771
 IR Inten    --     55.8511                 2.6817               182.3874

                     64                     65                     66
                      A                      A                      A
 Frequencies --   1344.4783              1355.1864              1399.8302
 Red. masses --      1.1166                 2.6614                 1.6501
 Frc consts  --      1.1892                 2.8798                 1.9051
 IR Inten    --     10.3341               383.8378                90.4377

                     67                     68                     69
                      A                      A                      A
 Frequencies --   1413.0574              1415.1834              1426.7177
 Red. masses --      1.2687                 1.3090                 1.4350
 Frc consts  --      1.4925                 1.5445                 1.7210
 IR Inten    --     15.1521                75.6707                68.2206

                     70                     71                     72
                      A                      A                      A
 Frequencies --   1429.4143              1448.1472              1455.3616
 Red. masses --      1.5678                 1.4318                 1.5213
 Frc consts  --      1.8874                 1.7691                 1.8985
 IR Inten    --     99.8363                13.6509                 6.6438

                     73                     74                     75
                      A                      A                      A
 Frequencies --   1481.5216              1488.3875              1491.6369
 Red. masses --      1.2765                 1.0619                 1.0953
 Frc consts  --      1.6508                 1.3860                 1.4358
 IR Inten    --      1.4642                25.5559                32.7068

                     76                     77                     78
                      A                      A                      A
 Frequencies --   1498.5974              1504.3815              1515.8379
 Red. masses --      1.0565                 1.0521                 1.0548
 Frc consts  --      1.3980                 1.4029                 1.4279
 IR Inten    --      7.8524                11.0773                 7.3372

                     79                     80                     81
                      A                      A                      A
 Frequencies --   1516.4776              1520.4869              1527.2629
 Red. masses --      1.0404                 1.0787                 1.0493
 Frc consts  --      1.4096                 1.4694                 1.4421
 IR Inten    --      7.5864                 6.5199                 2.3593

                     82                     83                     84
                      A                      A                      A
 Frequencies --   1537.6509              1548.6082              1813.7522
 Red. masses --      1.0594                 1.0898                10.8884
 Frc consts  --      1.4758                 1.5398                21.1042
 IR Inten    --     10.5113                 6.1105                61.9660

                     85                     86                     87
                      A                      A                      A
 Frequencies --   1822.0234              1831.8783              1847.5835
 Red. masses --     11.1890                10.7786                10.2094
 Frc consts  --     21.8851                21.3110                20.5333
 IR Inten    --    263.1938               180.3402               456.1980

                     88                     89                     90
                      A                      A                      A
 Frequencies --   3053.8343              3060.9349              3061.5323
 Red. masses --      1.0776                 1.0362                 1.0354
 Frc consts  --      5.9211                 5.7202                 5.7176
 IR Inten    --      3.5535                12.3376                13.9725

                     91                     92                     93
                      A                      A                      A
 Frequencies --   3063.5204              3076.8708              3080.5149
 Red. masses --      1.0415                 1.0346                 1.0586
 Frc consts  --      5.7590                 5.7709                 5.9187
 IR Inten    --      5.8043                 2.1266                20.7609

                     94                     95                     96
                      A                      A                      A
 Frequencies --   3103.5792              3118.2767              3126.6603
 Red. masses --      1.0605                 1.1066                 1.1003
 Frc consts  --      6.0184                 6.3400                 6.3376
 IR Inten    --     17.4704                 0.8935                29.9670

                     97                     98                     99
                      A                      A                      A
 Frequencies --   3131.0597              3134.6209              3143.1638
 Red. masses --      1.0951                 1.1018                 1.1065
 Frc consts  --      6.3253                 6.3787                 6.4407
 IR Inten    --      8.5802                30.9556                38.3171

                    100                    101                    102
                      A                      A                      A
 Frequencies --   3145.1984              3145.9713              3166.1771
 Red. masses --      1.1029                 1.0982                 1.1094
 Frc consts  --      6.4280                 6.4041                 6.5526
 IR Inten    --      6.2478                 4.2314                19.3392

                    103                    104                    105
                      A                      A                      A
 Frequencies --   3173.8961              3175.0992              3540.5308
 Red. masses --      1.1053                 1.1066                 1.0759
 Frc consts  --      6.5604                 6.5731                 7.9464
 IR Inten    --      7.8149                 6.3981                32.1306

 - Thermochemistry -
 -------------------
 Temperature   298.150 Kelvin.  Pressure   1.00000 Atm.
 Atom     1 has atomic number  6 and mass  12.00000

 Molecular mass:   274.11649 amu.
 Principal axes and moments of inertia in atomic units:
                           1         2         3
     Eigenvalues --  3988.488556418.193166988.55598
           X            0.99943   0.01479   0.03047
           Y           -0.01470   0.99989  -0.00300
           Z           -0.03051   0.00255   0.99953
 This molecule is an asymmetric top.
 Rotational symmetry number  1.
 Warning -- assumption of classical behavior for rotation
           may cause significant error
 Rotational temperatures (Kelvin)      0.02172     0.01350     0.01239
 Rotational constants (GHZ):           0.45249     0.28119     0.25824
 Zero-point vibrational energy     789675.1 (Joules/Mol)
                                  188.73688 (Kcal/Mol)
 Warning -- explicit consideration of  32 degrees of freedom as
           vibrations may cause significant error
 Vibrational temperatures:     27.37    56.46    63.18    69.87    72.09
          (Kelvin)             97.45   102.13   126.03   141.89   160.43
                              170.50   182.10   200.00   207.71   230.39
                              295.96   323.06   356.39   388.43   401.56
                              447.69   475.02   519.49   549.40   559.32
                              570.12   648.82   670.61   695.33   729.43
                              837.84   850.08   895.07   959.46  1030.05
                             1088.91  1115.22  1126.18  1154.67  1181.23
                             1184.67  1261.30  1274.79  1286.59  1351.42
                             1430.35  1437.33  1444.75  1486.71  1527.72
                             1558.30  1587.69  1627.36  1652.00  1705.86
                             1719.94  1725.23  1744.89  1756.55  1805.80
                             1836.27  1883.21  1886.19  1934.40  1949.81
                             2014.04  2033.07  2036.13  2052.73  2056.61
                             2083.56  2093.94  2131.58  2141.46  2146.13
                             2156.15  2164.47  2180.95  2181.87  2187.64
                             2197.39  2212.34  2228.10  2609.58  2621.49
                             2635.66  2658.26  4393.79  4404.00  4404.86
                             4407.72  4426.93  4432.17  4465.36  4486.50
                             4498.57  4504.90  4510.02  4522.31  4525.24
                             4526.35  4555.42  4566.53  4568.26  5094.03

 Zero-point correction=                           0.300771 (Hartree/Particle)
 Thermal correction to Energy=                    0.322484
 Thermal correction to Enthalpy=                  0.323428
 Thermal correction to Gibbs Free Energy=         0.247541
 Sum of electronic and zero-point Energies=           -990.629193
 Sum of electronic and thermal Energies=              -990.607481
 Sum of electronic and thermal Enthalpies=            -990.606536
 Sum of electronic and thermal Free Energies=         -990.682423

                     E (Thermal)             CV                S
                      KCal/Mol        Cal/Mol-Kelvin    Cal/Mol-Kelvin
 Total                  202.362             75.661            159.718
 Electronic               0.000              0.000              0.000
 Translational            0.889              2.981             42.724
 Rotational               0.889              2.981             33.547
 Vibrational            200.584             69.700             83.447
 Vibration     1          0.593              1.986              6.734
 Vibration     2          0.594              1.981              5.297
 Vibration     3          0.595              1.980              5.074
 Vibration     4          0.595              1.978              4.875
 Vibration     5          0.595              1.978              4.813
 Vibration     6          0.598              1.970              4.218
 Vibration     7          0.598              1.968              4.126
 Vibration     8          0.601              1.958              3.713
 Vibration     9          0.604              1.950              3.482
 Vibration    10          0.607              1.940              3.243
 Vibration    11          0.609              1.934              3.125
 Vibration    12          0.611              1.927              2.998
 Vibration    13          0.615              1.914              2.817
 Vibration    14          0.616              1.909              2.745
 Vibration    15          0.622              1.891              2.548
 Vibration    16          0.640              1.832              2.081
 Vibration    17          0.649              1.804              1.922
 Vibration    18          0.661              1.767              1.747
 Vibration    19          0.674              1.728              1.596
 Vibration    20          0.679              1.712              1.539
 Vibration    21          0.700              1.652              1.356
 Vibration    22          0.713              1.615              1.259
 Vibration    23          0.735              1.552              1.118
 Vibration    24          0.751              1.509              1.032
 Vibration    25          0.757              1.494              1.005
 Vibration    26          0.763              1.478              0.977
 Vibration    27          0.810              1.359              0.793
 Vibration    28          0.823              1.325              0.749
 Vibration    29          0.839              1.287              0.701
 Vibration    30          0.862              1.235              0.641
 Vibration    31          0.939              1.070              0.481
 Vibration    32          0.948              1.051              0.466

                           ! Non-Optimized Parameters !
 Normal termination of Gaussian 16 at Sat Dec 12 09:58:05 2020.

 ----------------------------------------------------------------------
 # B3LYP/6-311++G(d,p) empiricaldispersion=gd3bj scf=xqc pop=npa geom=c
 heck
 ----------------------------------------------------------------------

 ------------------------------------
 CID_340479_JID_9312_Energie_neutraal
 ------------------------------------
 Structure from the checkpoint file:  "JID_9312.chk"
 Charge =  0 Multiplicity = 1

 SCF Done:  E(RB3LYP) =  -991.227409078     A.U. after   16 cycles
 Normal termination of Gaussian 16 at Sat Dec 12 10:06:41 2020.

 ----------------------------------------------------------------------
 # B3LYP/6-311++G(d,p) empiricaldispersion=gd3bj scf=xqc pop=npa geom=c
 heck
 ----------------------------------------------------------------------

 ----------------------------------
 CID_340479_JID_9312_Energie_kation
 ----------------------------------
 Structure from the checkpoint file:  "JID_9312.chk"
 Charge =  1 Multiplicity = 2

 SCF Done:  E(UB3LYP) =  -990.898563727     A.U. after   27 cycles
 Normal termination of Gaussian 16 at Sat Dec 12 10:26:41 2020.
 Gaussian 16:  ES64L-G16RevA.03 25-Dec-2016

 ----------------------------------------------------------------------
 # B3LYP/6-311++G(d,p) empiricaldispersion=gd3bj scf=xqc pop=npa geom=c
 heck
 ----------------------------------------------------------------------

 ---------------------------------
 CID_340479_JID_9312_Energie_anion
 ---------------------------------
 Structure from the checkpoint file:  "JID_9312.chk"
 Charge = -1 Multiplicity = 2

                         Standard orientation:
 ---------------------------------------------------------------------
 Center     Atomic      Atomic             Coordinates (Angstroms)
 Number     Number       Type             X           Y           Z
 ---------------------------------------------------------------------
      1          6           0        4.015331    0.439052    1.791219
      2          6           0        3.885091   -0.258114    0.451931
      3          8           0        2.474139   -0.462457    0.215203
      4          6           0        2.177465   -1.020923   -0.973653
      5          8           0        2.980987   -1.392541   -1.800111
      6          7           0        0.804567   -1.204807   -1.127378
      7          7           0       -0.066037   -0.417657   -0.382794
      8          6           0       -1.060089   -1.136710    0.392590
      9          6           0       -1.341050   -0.461996    1.758410
     10          8           0       -2.427836   -0.537101    2.292181
     11          6           0       -0.156201    0.211407    2.414992
     12          6           0       -2.298530   -1.475750   -0.469830
     13          8           0       -2.334846   -1.090345   -1.621582
     14          6           0       -3.378004   -2.324565    0.146435
     15          6           0       -0.333720    0.837596   -0.916711
     16          8           0        0.294887    1.334025   -1.826493
     17          8           0       -1.343426    1.421149   -0.238109
     18          6           0       -1.731226    2.739804   -0.694378
     19          6           0       -0.829480    3.810495   -0.105169
     20          1           0        3.486324    1.397239    1.782646
     21          1           0        5.071382    0.628629    2.010188
     22          1           0        3.602759   -0.177465    2.596532
     23          1           0        4.294043    0.341241   -0.366397
     24          1           0        4.389487   -1.229217    0.440026
     25          1           0        0.541243   -1.301096   -2.104887
     26          1           0       -0.586685   -2.092221    0.656113
     27          1           0        0.774224   -0.328809    2.222449
     28          1           0       -0.034070    1.212015    1.988097
     29          1           0       -0.351625    0.302136    3.485394
     30          1           0       -2.947019   -3.193161    0.658312
     31          1           0       -3.894277   -1.738503    0.912843
     32          1           0       -4.074607   -2.649678   -0.628473
     33          1           0       -1.703508    2.747782   -1.785882
     34          1           0       -2.763577    2.842875   -0.354597
     35          1           0        0.197145    3.677903   -0.456460
     36          1           0       -1.176285    4.801808   -0.417664
     37          1           0       -0.843440    3.772145    0.989246
 ---------------------------------------------------------------------

 SCF Done:  E(UB3LYP) =  -991.223019354     A.U. after   33 cycles
 SCF Done:  E(UB3LYP) =  -991.223019354     a.u. after    1 cycles

 The electronic state is 2-A.
 Alpha  occ. eigenvalues --  -19.07699 -19.07497 -19.01374 -19.01172 -19.01113
 Alpha  occ. eigenvalues --  -18.99593 -14.28293 -14.27723 -10.23332 -10.23087
 Alpha  occ. eigenvalues --  -10.16210 -10.14186 -10.13956 -10.13868 -10.12565
 Alpha  occ. eigenvalues --  -10.07772 -10.07742 -10.06716 -10.06461  -1.03210
 Alpha  occ. eigenvalues --   -1.02115  -0.94952  -0.94294  -0.93430  -0.93347
 Alpha  occ. eigenvalues --   -0.91116  -0.76960  -0.68786  -0.68530  -0.66165
 Alpha  occ. eigenvalues --   -0.64369  -0.61083  -0.57910  -0.56050  -0.51340
 Alpha  occ. eigenvalues --   -0.49618  -0.46915  -0.46411  -0.44999  -0.44149
 Alpha  occ. eigenvalues --   -0.40804  -0.40112  -0.39047  -0.38368  -0.37795
 Alpha  occ. eigenvalues --   -0.37291  -0.36326  -0.36094  -0.34245  -0.33425
 Alpha  occ. eigenvalues --   -0.33063  -0.32488  -0.32240  -0.31996  -0.31130
 Alpha  occ. eigenvalues --   -0.30762  -0.30321  -0.29253  -0.28993  -0.28565
 Alpha  occ. eigenvalues --   -0.27899  -0.26919  -0.26062  -0.25684  -0.25380
 Alpha  occ. eigenvalues --   -0.21913  -0.21520  -0.20944  -0.20010  -0.19907
 Alpha  occ. eigenvalues --   -0.17957  -0.15866  -0.14140   0.04069
 Alpha virt. eigenvalues --    0.05785   0.06161   0.06732   0.07876   0.08156
 Alpha virt. eigenvalues --    0.08673   0.09190   0.09824   0.09950   0.10315
 Alpha virt. eigenvalues --    0.10912   0.11219   0.11676   0.12041   0.12385

  Beta  occ. eigenvalues --  -19.07692 -19.07498 -19.01373 -19.01111 -19.01103
  Beta  occ. eigenvalues --  -18.99363 -14.28283 -14.27717 -10.23331 -10.23083
  Beta  occ. eigenvalues --  -10.16071 -10.14179 -10.13944 -10.13592 -10.12583
  Beta  occ. eigenvalues --  -10.07744 -10.07705 -10.06711 -10.06474  -1.03203
  Beta  occ. eigenvalues --   -1.02109  -0.94785  -0.94232  -0.93370  -0.93072
  Beta  occ. eigenvalues --   -0.91044  -0.76927  -0.68744  -0.68467  -0.66023
  Beta  occ. eigenvalues --   -0.64181  -0.61032  -0.57866  -0.55997  -0.51287
  Beta  occ. eigenvalues --   -0.49564  -0.46618  -0.46323  -0.44917  -0.44064
  Beta  occ. eigenvalues --   -0.40777  -0.39917  -0.38961  -0.38299  -0.37663
  Beta  occ. eigenvalues --   -0.37202  -0.36182  -0.35943  -0.34218  -0.33241
  Beta  occ. eigenvalues --   -0.32869  -0.32448  -0.32043  -0.31843  -0.31056
  Beta  occ. eigenvalues --   -0.30705  -0.30261  -0.29222  -0.28917  -0.28463
  Beta  occ. eigenvalues --   -0.27867  -0.26862  -0.25997  -0.25304  -0.24435
  Beta  occ. eigenvalues --   -0.21896  -0.21486  -0.20931  -0.19993  -0.19882
  Beta  occ. eigenvalues --   -0.17904  -0.15717  -0.14009
  Beta virt. eigenvalues --    0.06220   0.06728   0.07215   0.07878   0.08330
  Beta virt. eigenvalues --    0.08811   0.09036   0.09683   0.10015   0.10113
  Beta virt. eigenvalues --    0.10643   0.11035   0.11363   0.11724   0.12189

 Mulliken charges and spin densities:
               1          2
     1  C    0.744655  -1.356861
     2  C   -0.246451   0.266787
     3  O   -0.139958   0.023573
     4  C    0.233438  -0.086977
     5  O   -0.263377   0.006276
     6  N   -0.258811  -0.017719
     7  N    0.402749   0.001730
     8  C   -0.339650  -0.217202
     9  C   -0.018758   0.089285
    10  O   -0.258241   0.020289
    11  C   -0.306004  -0.172178
    12  C    0.005348   0.351614
    13  O   -0.282394   0.072042
    14  C   -0.244336  -0.281951
    15  C   -0.141489  -0.082300
    16  O   -0.229859   0.007608
    17  O    0.024229   0.000740
    18  C   -0.311482   0.190302
    19  C    0.339186  -0.743412
    20  H   -0.144038   0.302937
    21  H   -0.327513   0.474331
    22  H   -0.199999   0.353674
    23  H    0.091613   0.090836
    24  H   -0.007677   0.184394
    25  H    0.326470   0.022423
    26  H   -0.128355   0.373761
    27  H    0.203848  -0.045405
    28  H    0.275786  -0.117712
    29  H   -0.016830   0.199957
    30  H   -0.051153   0.197214
    31  H    0.171861   0.025927
    32  H    0.098773   0.054690
    33  H    0.188562  -0.005148
    34  H    0.026888   0.134711
    35  H    0.065964   0.111984
    36  H   -0.144803   0.282752
    37  H   -0.138192   0.287027
 Sum of Mulliken charges =  -1.00000   1.00000

 Dipole moment (field-independent basis, Debye):
    X=             -2.0662    Y=              0.1495    Z=             -0.7141  Tot=              2.1912
 Quadrupole moment (field-independent basis, Debye-Ang):
   XX=           -176.1093   YY=           -151.3514   ZZ=           -156.4165
   XY=             -3.6159   XZ=             -0.6713   YZ=             -3.4341

 Summary of Natural Population Analysis:

                                       Natural Population
                Natural  -----------------------------------------------
    Atom  No    Charge         Core      Valence    Rydberg      Total
 -----------------------------------------------------------------------
      C    1   -0.29329      0.99966     2.28892    0.00471     3.29329
      C    2   -0.01332      0.99958     2.00210    0.01164     3.01332
      O    3   -0.28297      0.99985     3.27491    0.00820     4.28297
      C    4    0.46909      0.99972     1.50685    0.02434     2.53091
      O    5   -0.32180      0.99987     3.31675    0.00518     4.32180
      N    6   -0.23479      0.99967     2.72284    0.01229     3.73479
      N    7   -0.17466      0.99962     2.66057    0.01447     3.67466
      C    8   -0.09382      0.99949     2.08023    0.01410     3.09382
      C    9    0.32233      0.99967     1.65547    0.02253     2.67767
      O   10   -0.28667      0.99987     3.28025    0.00655     4.28667
      C   11   -0.33964      0.99961     2.33406    0.00598     3.33964
      C   12    0.32641      0.99968     1.65316    0.02075     2.67359
      O   13   -0.27592      0.99987     3.27009    0.00596     4.27592
      C   14   -0.33810      0.99962     2.33380    0.00468     3.33810
      C   15    0.47360      0.99967     1.49896    0.02778     2.52640
      O   16   -0.32370      0.99987     3.31930    0.00453     4.32370
      O   17   -0.28586      0.99986     3.27666    0.00934     4.28586
      C   18   -0.01212      0.99958     2.00095    0.01159     3.01212
      C   19   -0.30155      0.99966     2.29709    0.00480     3.30155
      H   20    0.10343      0.00000     0.39490    0.00167     0.39657
      H   21    0.10270      0.00000     0.39578    0.00152     0.39730
      H   22    0.10121      0.00000     0.39715    0.00164     0.39879
      H   23    0.09161      0.00000     0.40723    0.00116     0.40839
      H   24    0.08975      0.00000     0.40908    0.00118     0.41025
      H   25    0.19821      0.00000     0.29982    0.00198     0.30179
      H   26    0.12673      0.00000     0.37156    0.00171     0.37327
      H   27    0.11376      0.00000     0.38444    0.00180     0.38624
      H   28    0.11868      0.00000     0.37953    0.00179     0.38132
      H   29    0.10690      0.00000     0.39213    0.00097     0.39310
      H   30    0.10605      0.00000     0.39240    0.00155     0.39395
      H   31    0.12558      0.00000     0.37329    0.00113     0.37442
      H   32    0.10411      0.00000     0.39456    0.00133     0.39589
      H   33    0.09579      0.00000     0.40314    0.00107     0.40421
      H   34    0.09138      0.00000     0.40770    0.00092     0.40862
      H   35    0.10855      0.00000     0.39044    0.00101     0.39145
      H   36    0.10045      0.00000     0.39865    0.00090     0.39955
      H   37    0.10188      0.00000     0.39684    0.00127     0.39812
 =======================================================================
   * Total *   -0.00000     18.99441    53.76160    0.24399    73.00000

 Normal termination of Gaussian 16 at Sat Dec 12 10:50:38 2020.
