 Gaussian 16, Revision A.03,

 -----------------------------------------------------------
 # opt freq B3LYP/6-31G(d) empiricaldispersion=gd3bj scf=xqc
 -----------------------------------------------------------

 -------------------------------
 CID_130011860_JID_4662_neutraal
 -------------------------------
 Symbolic Z-matrix:
 Charge =  0 Multiplicity = 1

 SCF Done:  E(RB3LYP) =  -597.572887672     A.U. after   15 cycles
 SCF Done:  E(RB3LYP) =  -597.575214647     A.U. after   11 cycles
 SCF Done:  E(RB3LYP) =  -597.575194485     A.U. after   12 cycles
 SCF Done:  E(RB3LYP) =  -597.575495260     A.U. after   11 cycles
 SCF Done:  E(RB3LYP) =  -597.575519383     A.U. after   11 cycles
 SCF Done:  E(RB3LYP) =  -597.575582873     A.U. after   12 cycles
 SCF Done:  E(RB3LYP) =  -597.575689813     A.U. after   13 cycles
 SCF Done:  E(RB3LYP) =  -597.575812331     A.U. after   12 cycles
 SCF Done:  E(RB3LYP) =  -597.576243913     A.U. after   12 cycles
 SCF Done:  E(RB3LYP) =  -597.576918081     A.U. after   12 cycles
 SCF Done:  E(RB3LYP) =  -597.579260206     A.U. after    9 cycles
 SCF Done:  E(RB3LYP) =  -597.579261704     A.U. after    9 cycles
 SCF Done:  E(RB3LYP) =  -597.579261958     A.U. after    9 cycles
 SCF Done:  E(RB3LYP) =  -597.579262007     A.U. after    8 cycles
 SCF Done:  E(RB3LYP) =  -597.579262013     A.U. after    6 cycles
 Optimization completed.
    -- Stationary point found.
 Normal termination of Gaussian 16 at Thu Dec 10 10:47:07 2020.

 --------------------------------------------------------------------
 #N Geom=AllCheck Guess=TCheck SCRF=Check GenChk RB3LYP/6-31G(d) Freq
 --------------------------------------------------------------------

 Structure from the checkpoint file:  "JID_4662.chk"
 -------------------------------
 CID_130011860_JID_4662_neutraal
 -------------------------------
 Charge =  0 Multiplicity = 1

 SCF Done:  E(RB3LYP) =  -597.579262013     A.U. after    1 cycles

  Exact polarizability: 173.937  -8.796 154.947  11.694   4.642  85.594
 Approx polarizability: 249.710 -19.287 225.039  29.114   5.449 128.539

                      1                      2                      3
                      A                      A                      A
 Frequencies --     24.1319                35.4796                42.6669
 Red. masses --      2.6398                 1.0537                 3.1728
 Frc consts  --      0.0009                 0.0008                 0.0034
 IR Inten    --      0.1163                 0.2760                 1.6843

                      4                      5                      6
                      A                      A                      A
 Frequencies --     60.8854                78.1320                91.1568
 Red. masses --      5.3601                 2.0895                 3.1909
 Frc consts  --      0.0117                 0.0075                 0.0156
 IR Inten    --      0.8506                 0.2948                 0.4337

                      7                      8                      9
                      A                      A                      A
 Frequencies --    124.6210               192.1514               210.0887
 Red. masses --      3.9515                 1.0442                 3.1451
 Frc consts  --      0.0362                 0.0227                 0.0818
 IR Inten    --      0.9904                 0.0429                 2.5099

                     10                     11                     12
                      A                      A                      A
 Frequencies --    242.5678               260.7067               267.6744
 Red. masses --      1.2351                 2.2549                 3.5947
 Frc consts  --      0.0428                 0.0903                 0.1517
 IR Inten    --      0.0412                 0.1440                 0.4032

                     13                     14                     15
                      A                      A                      A
 Frequencies --    284.1347               305.5668               318.9342
 Red. masses --      2.9050                 3.2025                 3.9666
 Frc consts  --      0.1382                 0.1762                 0.2377
 IR Inten    --      0.7645                 3.2037                 0.6551

                     16                     17                     18
                      A                      A                      A
 Frequencies --    389.1931               445.6478               524.7406
 Red. masses --      6.4215                 2.8743                 1.7093
 Frc consts  --      0.5731                 0.3363                 0.2773
 IR Inten    --      5.0022                 3.7547                29.9513

                     19                     20                     21
                      A                      A                      A
 Frequencies --    529.2194               534.9883               549.3684
 Red. masses --      3.9589                 3.9360                 2.9758
 Frc consts  --      0.6533                 0.6637                 0.5292
 IR Inten    --      0.7046                 7.5205                 2.4188

                     22                     23                     24
                      A                      A                      A
 Frequencies --    591.4166               631.0871               656.0451
 Red. masses --      4.0336                 4.7217                 1.6714
 Frc consts  --      0.8312                 1.1080                 0.4238
 IR Inten    --      5.9506                 6.3114                81.4337

                     25                     26                     27
                      A                      A                      A
 Frequencies --    724.8148               743.2231               755.7264
 Red. masses --      2.5829                 3.9042                 1.1092
 Frc consts  --      0.7995                 1.2706                 0.3732
 IR Inten    --     11.4947                 3.4599                 0.8979

                     28                     29                     30
                      A                      A                      A
 Frequencies --    840.5579               864.2706               878.5597
 Red. masses --      3.8195                 1.4866                 1.5174
 Frc consts  --      1.5900                 0.6542                 0.6901
 IR Inten    --      4.5796                21.3125                 3.5825

                     31                     32                     33
                      A                      A                      A
 Frequencies --    889.6866               897.7130               911.7098
 Red. masses --      1.2603                 1.3928                 1.7164
 Frc consts  --      0.5878                 0.6613                 0.8406
 IR Inten    --      1.3958                 2.1149                 0.4242

                     34                     35                     36
                      A                      A                      A
 Frequencies --    986.8001              1011.0055              1021.8077
 Red. masses --      3.3848                 1.8811                 5.8746
 Frc consts  --      1.9419                 1.1328                 3.6138
 IR Inten    --      1.9421                 1.3070                 0.7732

                     37                     38                     39
                      A                      A                      A
 Frequencies --   1040.6150              1053.7210              1067.9056
 Red. masses --      1.6947                 2.4889                 1.7152
 Frc consts  --      1.0813                 1.6282                 1.1525
 IR Inten    --     20.3841                 2.8134                 5.9167

                     40                     41                     42
                      A                      A                      A
 Frequencies --   1071.5629              1074.9216              1119.7500
 Red. masses --      1.8605                 1.5229                 1.4621
 Frc consts  --      1.2587                 1.0368                 1.0801
 IR Inten    --      8.9774                 8.0110                 0.9683

                     43                     44                     45
                      A                      A                      A
 Frequencies --   1122.0469              1200.8866              1208.5578
 Red. masses --      2.0395                 1.4582                 1.4935
 Frc consts  --      1.5128                 1.2390                 1.2852
 IR Inten    --      9.4534                 0.6739                10.4249

                     46                     47                     48
                      A                      A                      A
 Frequencies --   1264.1574              1306.9588              1322.8595
 Red. masses --      1.4492                 1.9250                 1.3451
 Frc consts  --      1.3645                 1.9373                 1.3869
 IR Inten    --      0.1134                13.1578                 2.0911

                     49                     50                     51
                      A                      A                      A
 Frequencies --   1339.0621              1348.3410              1350.0959
 Red. masses --      1.3055                 1.6482                 2.6604
 Frc consts  --      1.3792                 1.7655                 2.8571
 IR Inten    --      9.1109                25.0290               233.8856

                     52                     53                     54
                      A                      A                      A
 Frequencies --   1377.5635              1401.9415              1427.0314
 Red. masses --      3.7668                 1.5094                 1.4082
 Frc consts  --      4.2116                 1.7479                 1.6896
 IR Inten    --     61.7432                 1.3925                91.2140

                     55                     56                     57
                      A                      A                      A
 Frequencies --   1440.8934              1442.0051              1448.7462
 Red. masses --      1.2467                 1.3123                 2.1390
 Frc consts  --      1.5250                 1.6078                 2.6451
 IR Inten    --      0.5498                 2.0354                10.1044

                     58                     59                     60
                      A                      A                      A
 Frequencies --   1499.8459              1503.0465              1515.7656
 Red. masses --      1.7477                 1.1226                 1.0845
 Frc consts  --      2.3164                 1.4942                 1.4681
 IR Inten    --     14.7858                37.3429                 3.4373

                     61                     62                     63
                      A                      A                      A
 Frequencies --   1516.8963              1518.5598              1525.3043
 Red. masses --      1.0767                 1.0553                 1.0699
 Frc consts  --      1.4597                 1.4338                 1.4666
 IR Inten    --      8.8916                 5.0193                 0.2760

                     64                     65                     66
                      A                      A                      A
 Frequencies --   1525.9975              1529.5645              1540.5653
 Red. masses --      1.4794                 1.1151                 1.0878
 Frc consts  --      2.0298                 1.5371                 1.5211
 IR Inten    --     13.0828                 1.8393                 4.1902

                     67                     68                     69
                      A                      A                      A
 Frequencies --   1544.6847              1660.0633              1663.8450
 Red. masses --      2.0072                 5.6919                 5.8377
 Frc consts  --      2.8218                 9.2418                 9.5217
 IR Inten    --     59.0752               118.9350                43.7567

                     70                     71                     72
                      A                      A                      A
 Frequencies --   1792.5846              3034.6639              3041.9946
 Red. masses --      7.8520                 1.0581                 1.0454
 Frc consts  --     14.8659                 5.7411                 5.6997
 IR Inten    --    472.3221                 2.7719                13.2370

                     73                     74                     75
                      A                      A                      A
 Frequencies --   3044.4224              3045.8696              3063.2269
 Red. masses --      1.0403                 1.0510                 1.1021
 Frc consts  --      5.6807                 5.7446                 6.0929
 IR Inten    --     34.1936                73.0368                 0.3125

                     76                     77                     78
                      A                      A                      A
 Frequencies --   3069.3164              3084.4440              3102.1591
 Red. masses --      1.0394                 1.1052                 1.0961
 Frc consts  --      5.7694                 6.1952                 6.2151
 IR Inten    --      3.1022                13.8424                20.0382

                     79                     80                     81
                      A                      A                      A
 Frequencies --   3110.0446              3115.9974              3128.7822
 Red. masses --      1.1034                 1.1017                 1.1028
 Frc consts  --      6.2881                 6.3026                 6.3604
 IR Inten    --     60.4055                38.1335                15.5108

                     82                     83                     84
                      A                      A                      A
 Frequencies --   3138.2234              3173.4444              3174.0957
 Red. masses --      1.0964                 1.0905                 1.1037
 Frc consts  --      6.3617                 6.4704                 6.5515
 IR Inten    --      8.4074                22.9701                 6.3297

                     85                     86                     87
                      A                      A                      A
 Frequencies --   3180.5059              3215.5601              3582.2714
 Red. masses --      1.0905                 1.0899                 1.0753
 Frc consts  --      6.4992                 6.6400                 8.1302
 IR Inten    --     11.3319                 7.2460                22.4530

 - Thermochemistry -
 -------------------
 Temperature   298.150 Kelvin.  Pressure   1.00000 Atm.
 Atom     1 has atomic number  6 and mass  12.00000

 Molecular mass:   191.13101 amu.
 Principal axes and moments of inertia in atomic units:
                           1         2         3
     Eigenvalues --  2284.120274454.357776319.23254
           X            0.99941   0.03339  -0.00824
           Y           -0.03332   0.99941   0.00837
           Z            0.00852  -0.00809   0.99993
 This molecule is an asymmetric top.
 Rotational symmetry number  1.
 Warning -- assumption of classical behavior for rotation
           may cause significant error
 Rotational temperatures (Kelvin)      0.03792     0.01944     0.01371
 Rotational constants (GHZ):           0.79013     0.40516     0.28559
 Zero-point vibrational energy     705724.1 (Joules/Mol)
                                  168.67210 (Kcal/Mol)
 Warning -- explicit consideration of  22 degrees of freedom as
           vibrations may cause significant error
 Vibrational temperatures:     34.72    51.05    61.39    87.60   112.41
          (Kelvin)            131.15   179.30   276.46   302.27   349.00
                              375.10   385.12   408.81   439.64   458.88
                              559.96   641.19   754.98   761.43   769.73
                              790.42   850.92   907.99   943.90  1042.85
                             1069.33  1087.32  1209.38  1243.49  1264.05
                             1280.06  1291.61  1311.75  1419.79  1454.61
                             1470.15  1497.21  1516.07  1536.48  1541.74
                             1546.57  1611.07  1614.38  1727.81  1738.85
                             1818.84  1880.42  1903.30  1926.61  1939.96
                             1942.49  1982.01  2017.08  2053.18  2073.12
                             2074.72  2084.42  2157.94  2162.55  2180.85
                             2182.48  2184.87  2194.57  2195.57  2200.70
                             2216.53  2222.46  2388.46  2393.90  2579.13
                             4366.20  4376.75  4380.24  4382.33  4407.30
                             4416.06  4437.83  4463.32  4474.66  4483.23
                             4501.62  4515.20  4565.88  4566.82  4576.04
                             4626.47  5154.09

 Zero-point correction=                           0.268796 (Hartree/Particle)
 Thermal correction to Energy=                    0.284019
 Thermal correction to Enthalpy=                  0.284963
 Thermal correction to Gibbs Free Energy=         0.224214
 Sum of electronic and zero-point Energies=           -597.310466
 Sum of electronic and thermal Energies=              -597.295243
 Sum of electronic and thermal Enthalpies=            -597.294299
 Sum of electronic and thermal Free Energies=         -597.355048

                     E (Thermal)             CV                S
                      KCal/Mol        Cal/Mol-Kelvin    Cal/Mol-Kelvin
 Total                  178.225             55.416            127.856
 Electronic               0.000              0.000              0.000
 Translational            0.889              2.981             41.649
 Rotational               0.889              2.981             32.530
 Vibrational            176.447             49.455             53.677
 Vibration     1          0.593              1.985              6.261
 Vibration     2          0.594              1.982              5.497
 Vibration     3          0.595              1.980              5.131
 Vibration     4          0.597              1.973              4.428
 Vibration     5          0.599              1.964              3.937
 Vibration     6          0.602              1.955              3.635
 Vibration     7          0.610              1.928              3.027
 Vibration     8          0.634              1.851              2.207
 Vibration     9          0.642              1.825              2.043
 Vibration    10          0.659              1.775              1.784
 Vibration    11          0.669              1.745              1.657
 Vibration    12          0.673              1.733              1.611
 Vibration    13          0.683              1.703              1.509
 Vibration    14          0.696              1.663              1.386
 Vibration    15          0.705              1.637              1.316
 Vibration    16          0.757              1.493              1.003
 Vibration    17          0.805              1.370              0.809
 Vibration    18          0.880              1.195              0.599
 Vibration    19          0.884              1.185              0.589
 Vibration    20          0.890              1.173              0.576
 Vibration    21          0.905              1.141              0.545
 Vibration    22          0.949              1.050              0.465

 Optimization completed.
    -- Stationary point found.
 Normal termination of Gaussian 16 at Thu Dec 10 10:55:09 2020.

 ----------------------------------------------------------------------
 # B3LYP/6-311++G(d,p) empiricaldispersion=gd3bj scf=xqc pop=npa geom=c
 heck
 ----------------------------------------------------------------------

 ---------------------------------------
 CID_130011860_JID_4662_Energie_neutraal
 ---------------------------------------
 Structure from the checkpoint file:  "JID_4662.chk"
 Charge =  0 Multiplicity = 1

 SCF Done:  E(RB3LYP) =  -597.746139081     A.U. after   15 cycles
 Normal termination of Gaussian 16 at Thu Dec 10 11:00:15 2020.

 ----------------------------------------------------------------------
 # B3LYP/6-311++G(d,p) empiricaldispersion=gd3bj scf=xqc pop=npa geom=c
 heck
 ----------------------------------------------------------------------

 -------------------------------------
 CID_130011860_JID_4662_Energie_kation
 -------------------------------------
 Structure from the checkpoint file:  "JID_4662.chk"
 Charge =  1 Multiplicity = 2

 SCF Done:  E(UB3LYP) =  -597.448744557     A.U. after   27 cycles
 Normal termination of Gaussian 16 at Thu Dec 10 11:12:02 2020.
 Gaussian 16:  ES64L-G16RevA.03 25-Dec-2016

 ----------------------------------------------------------------------
 # B3LYP/6-311++G(d,p) empiricaldispersion=gd3bj scf=xqc pop=npa geom=c
 heck
 ----------------------------------------------------------------------

 ------------------------------------
 CID_130011860_JID_4662_Energie_anion
 ------------------------------------
 Structure from the checkpoint file:  "JID_4662.chk"
 Charge = -1 Multiplicity = 2

                         Standard orientation:
 ---------------------------------------------------------------------
 Center     Atomic      Atomic             Coordinates (Angstroms)
 Number     Number       Type             X           Y           Z
 ---------------------------------------------------------------------
      1          6           0       -4.302255   -2.208155    0.392802
      2          6           0       -3.136963   -1.251605    0.650904
      3          6           0       -2.366579   -0.895376   -0.633777
      4          6           0       -1.217884    0.050380   -0.372882
      5          6           0        0.039972   -0.451566   -0.025140
      6          6           0        1.097854    0.418312    0.255874
      7          6           0        0.878020    1.801778    0.227899
      8          6           0       -0.377603    2.321734   -0.089241
      9          6           0       -1.413213    1.433586   -0.401837
     10          6           0       -0.615272    3.812385   -0.088896
     11          7           0        2.382086   -0.050672    0.611751
     12          6           0        3.162038   -1.063610    0.082981
     13          8           0        4.276587   -1.268348    0.542396
     14          6           0        2.605836   -1.876743   -1.069979
     15          1           0       -5.025661   -1.770210   -0.305666
     16          1           0       -4.834838   -2.447190    1.319800
     17          1           0       -3.950392   -3.150832   -0.043676
     18          1           0       -3.504413   -0.325532    1.111774
     19          1           0       -2.438680   -1.695214    1.372578
     20          1           0       -3.061485   -0.444432   -1.353865
     21          1           0       -1.992671   -1.819045   -1.094376
     22          1           0        0.186638   -1.523652    0.044866
     23          1           0        1.705867    2.474286    0.439791
     24          1           0       -2.391860    1.827048   -0.668488
     25          1           0       -1.048070    4.141956    0.864682
     26          1           0        0.316507    4.367760   -0.235084
     27          1           0       -1.313613    4.104738   -0.880121
     28          1           0        2.899557    0.507061    1.281446
     29          1           0        2.031322   -2.729209   -0.690685
     30          1           0        1.954377   -1.294612   -1.726145
     31          1           0        3.456397   -2.268147   -1.630500
 ---------------------------------------------------------------------

 SCF Done:  E(UB3LYP) =  -597.734542450     A.U. after   33 cycles
 SCF Done:  E(UB3LYP) =  -597.734542450     a.u. after    1 cycles

 The electronic state is 2-A.
 Alpha  occ. eigenvalues --  -19.00224 -14.25562 -10.19114 -10.12697 -10.09204
 Alpha  occ. eigenvalues --  -10.08767 -10.08623 -10.07753 -10.07708 -10.07481
 Alpha  occ. eigenvalues --  -10.07376 -10.07342 -10.07081 -10.06561  -0.95468
 Alpha  occ. eigenvalues --   -0.84725  -0.76408  -0.70767  -0.67510  -0.66153
 Alpha  occ. eigenvalues --   -0.64715  -0.59696  -0.58759  -0.53536  -0.51184
 Alpha  occ. eigenvalues --   -0.48609  -0.47040  -0.42779  -0.40102  -0.39734
 Alpha  occ. eigenvalues --   -0.38141  -0.36348  -0.35384  -0.34481  -0.33017
 Alpha  occ. eigenvalues --   -0.32518  -0.32070  -0.31760  -0.31213  -0.30002
 Alpha  occ. eigenvalues --   -0.29518  -0.28307  -0.27873  -0.26564  -0.26064
 Alpha  occ. eigenvalues --   -0.24905  -0.24051  -0.23581  -0.20071  -0.17461
 Alpha  occ. eigenvalues --   -0.15128  -0.13426   0.04117
 Alpha virt. eigenvalues --    0.06020   0.06674   0.06771   0.07532   0.07589
 Alpha virt. eigenvalues --    0.08453   0.08564   0.08854   0.10054   0.10235
 Alpha virt. eigenvalues --    0.10614   0.11123   0.11573   0.11993   0.12261

  Beta  occ. eigenvalues --  -19.00218 -14.25553 -10.19109 -10.12678 -10.09210
  Beta  occ. eigenvalues --  -10.08752 -10.08598 -10.07743 -10.07676 -10.07462
  Beta  occ. eigenvalues --  -10.07340 -10.07325 -10.07049 -10.06528  -0.95455
  Beta  occ. eigenvalues --   -0.84697  -0.76375  -0.70730  -0.67477  -0.66114
  Beta  occ. eigenvalues --   -0.64668  -0.59636  -0.58701  -0.53489  -0.51112
  Beta  occ. eigenvalues --   -0.48543  -0.46994  -0.42734  -0.40054  -0.39699
  Beta  occ. eigenvalues --   -0.38112  -0.36315  -0.35353  -0.34441  -0.32971
  Beta  occ. eigenvalues --   -0.32483  -0.32046  -0.31705  -0.31182  -0.29958
  Beta  occ. eigenvalues --   -0.29482  -0.28265  -0.27840  -0.26496  -0.26028
  Beta  occ. eigenvalues --   -0.24848  -0.24012  -0.23550  -0.20021  -0.17451
  Beta  occ. eigenvalues --   -0.15061  -0.13340
  Beta virt. eigenvalues --    0.06221   0.06765   0.07047   0.07240   0.07681
  Beta virt. eigenvalues --    0.08183   0.08881   0.08969   0.09215   0.10338
  Beta virt. eigenvalues --    0.10447   0.11071   0.11391   0.11944   0.12182

 Mulliken charges and spin densities:
               1          2
     1  C    1.242087  -1.895351
     2  C   -1.082955   0.960536
     3  C    1.750695  -2.450450
     4  C   -0.183192   1.727847
     5  C   -0.703894   0.233875
     6  C    0.405591  -0.837106
     7  C   -0.547099   0.681425
     8  C    0.240150   0.123498
     9  C   -1.286248   0.303879
    10  C    1.721449  -2.289563
    11  N   -0.190248   0.032591
    12  C   -0.269110   0.338573
    13  O   -0.347698   0.013129
    14  C    0.402331  -0.864851
    15  H   -0.124597   0.253748
    16  H   -0.147221   0.284487
    17  H   -0.218169   0.350934
    18  H    0.008629   0.124056
    19  H   -0.179418   0.308297
    20  H   -0.259207   0.412260
    21  H   -0.060103   0.209326
    22  H    0.213098  -0.029118
    23  H   -0.354243   0.511540
    24  H   -0.378136   0.552113
    25  H   -0.085270   0.255304
    26  H   -0.243486   0.383831
    27  H   -0.268325   0.419261
    28  H    0.053536   0.249962
    29  H   -0.188905   0.370782
    30  H    0.047699   0.118519
    31  H    0.032259   0.146664
 Sum of Mulliken charges =  -1.00000   1.00000

 Dipole moment (field-independent basis, Debye):
    X=              1.3733    Y=             -0.3481    Z=             -0.0535  Tot=              1.4177
 Quadrupole moment (field-independent basis, Debye-Ang):
   XX=           -168.6067   YY=           -148.2786   ZZ=           -115.1495
   XY=             -0.2576   XZ=             -7.0820   YZ=              2.0139

 Summary of Natural Population Analysis:

                                       Natural Population
                Natural  -----------------------------------------------
    Atom  No    Charge         Core      Valence    Rydberg      Total
 -----------------------------------------------------------------------
      C    1   -0.28316      0.99967     2.27921    0.00428     3.28316
      C    2   -0.18321      0.99963     2.17719    0.00638     3.18321
      C    3   -0.19685      0.99960     2.18742    0.00983     3.19685
      C    4    0.00156      0.99952     1.98845    0.01047     2.99844
      C    5   -0.11858      0.99947     2.11084    0.00828     3.11858
      C    6    0.08179      0.99947     1.90788    0.01086     2.91821
      C    7   -0.11212      0.99947     2.10338    0.00927     3.11212
      C    8   -0.00715      0.99953     1.99717    0.01046     3.00715
      C    9   -0.10349      0.99946     2.09429    0.00974     3.10349
      C   10   -0.29052      0.99964     2.28567    0.00521     3.29052
      N   11   -0.31231      0.99964     2.80250    0.01016     3.81231
      C   12    0.34670      0.99970     1.63294    0.02067     2.65330
      O   13   -0.32200      0.99988     3.31579    0.00633     4.32200
      C   14   -0.33430      0.99962     2.33018    0.00450     3.33430
      H   15    0.09597      0.00000     0.40265    0.00138     0.40403
      H   16    0.09736      0.00000     0.40150    0.00115     0.40264
      H   17    0.09655      0.00000     0.40193    0.00152     0.40345
      H   18    0.09458      0.00000     0.40393    0.00149     0.40542
      H   19    0.09456      0.00000     0.40391    0.00153     0.40544
      H   20    0.10128      0.00000     0.39705    0.00166     0.39872
      H   21    0.10011      0.00000     0.39820    0.00170     0.39989
      H   22    0.10325      0.00000     0.39475    0.00200     0.39675
      H   23    0.10123      0.00000     0.39742    0.00135     0.39877
      H   24    0.10103      0.00000     0.39769    0.00128     0.39897
      H   25    0.10553      0.00000     0.39315    0.00132     0.39447
      H   26    0.10256      0.00000     0.39611    0.00133     0.39744
      H   27    0.10487      0.00000     0.39364    0.00149     0.39513
      H   28    0.19848      0.00000     0.29860    0.00293     0.30152
      H   29    0.11270      0.00000     0.38595    0.00135     0.38730
      H   30    0.11183      0.00000     0.38704    0.00113     0.38817
      H   31    0.11175      0.00000     0.38725    0.00100     0.38825
 =======================================================================
   * Total *   -0.00000     13.99428    37.85368    0.15204    52.00000

 Normal termination of Gaussian 16 at Thu Dec 10 11:22:16 2020.
