 Gaussian 16, Revision A.03,

 -----------------------------------------------------------
 # opt freq B3LYP/6-31G(d) empiricaldispersion=gd3bj scf=xqc
 -----------------------------------------------------------

 ------------------------------
 CID_55292271_JID_3997_neutraal
 ------------------------------
 Symbolic Z-matrix:
 Charge =  0 Multiplicity = 1

 SCF Done:  E(RB3LYP) =  -611.351304968     A.U. after   14 cycles
 SCF Done:  E(RB3LYP) =  -611.354614142     A.U. after   12 cycles
 SCF Done:  E(RB3LYP) =  -611.355571433     A.U. after   12 cycles
 SCF Done:  E(RB3LYP) =  -611.356476854     A.U. after   11 cycles
 SCF Done:  E(RB3LYP) =  -611.356905960     A.U. after   12 cycles
 SCF Done:  E(RB3LYP) =  -611.357062003     A.U. after   11 cycles
 SCF Done:  E(RB3LYP) =  -611.357202236     A.U. after   11 cycles
 SCF Done:  E(RB3LYP) =  -611.357336090     A.U. after   11 cycles
 SCF Done:  E(RB3LYP) =  -611.357327930     A.U. after   11 cycles
 SCF Done:  E(RB3LYP) =  -611.357551866     A.U. after   11 cycles
 SCF Done:  E(RB3LYP) =  -611.358414697     A.U. after   10 cycles
 SCF Done:  E(RB3LYP) =  -611.358416533     A.U. after    8 cycles
 SCF Done:  E(RB3LYP) =  -611.358418186     A.U. after   10 cycles
 SCF Done:  E(RB3LYP) =  -611.358418159     A.U. after    8 cycles
 SCF Done:  E(RB3LYP) =  -611.358418221     A.U. after    7 cycles
 Optimization completed.
    -- Stationary point found.
 Normal termination of Gaussian 16 at Mon Dec 14 13:13:42 2020.

 --------------------------------------------------------------------
 #N Geom=AllCheck Guess=TCheck SCRF=Check GenChk RB3LYP/6-31G(d) Freq
 --------------------------------------------------------------------

 Structure from the checkpoint file:  "JID_3997.chk"
 ------------------------------
 CID_55292271_JID_3997_neutraal
 ------------------------------
 Charge =  0 Multiplicity = 1

 SCF Done:  E(RB3LYP) =  -611.358418221     A.U. after    1 cycles

  Exact polarizability: 135.226  -3.882 116.710   6.855  -4.196  79.023
 Approx polarizability: 193.910  -2.987 191.627  18.259  -5.301 116.241

                      1                      2                      3
                      A                      A                      A
 Frequencies --     34.6263                65.2775                80.8261
 Red. masses --      4.4026                 2.7680                 3.6619
 Frc consts  --      0.0031                 0.0069                 0.0141
 IR Inten    --      0.1262                 3.4068                 2.6453

                      4                      5                      6
                      A                      A                      A
 Frequencies --     93.1518               142.4315               194.0912
 Red. masses --      3.7149                 4.8682                 3.0447
 Frc consts  --      0.0190                 0.0582                 0.0676
 IR Inten    --      0.6303                 0.3934                 5.0074

                      7                      8                      9
                      A                      A                      A
 Frequencies --    231.3762               245.0161               257.9781
 Red. masses --      2.0146                 1.5636                 3.1984
 Frc consts  --      0.0635                 0.0553                 0.1254
 IR Inten    --      2.1956                 1.8334                 2.2778

                     10                     11                     12
                      A                      A                      A
 Frequencies --    288.6110               337.5890               350.2067
 Red. masses --      4.1231                 1.2699                 1.7072
 Frc consts  --      0.2023                 0.0853                 0.1234
 IR Inten    --      3.9062               102.8651                 2.8419

                     13                     14                     15
                      A                      A                      A
 Frequencies --    355.7319               388.3017               421.2857
 Red. masses --      1.6590                 1.2477                 2.7323
 Frc consts  --      0.1237                 0.1108                 0.2857
 IR Inten    --     71.7422               137.7809                70.3372

                     16                     17                     18
                      A                      A                      A
 Frequencies --    429.0319               456.7238               498.0701
 Red. masses --      4.1787                 3.0070                 3.1899
 Frc consts  --      0.4532                 0.3696                 0.4662
 IR Inten    --     11.6521                 5.5847                11.8300

                     19                     20                     21
                      A                      A                      A
 Frequencies --    543.1359               588.5476               616.9083
 Red. masses --      3.7892                 3.7812                 4.7570
 Frc consts  --      0.6586                 0.7717                 1.0667
 IR Inten    --     37.2158                13.5357                 5.9031

                     22                     23                     24
                      A                      A                      A
 Frequencies --    708.1528               749.0070               802.5332
 Red. masses --      3.7929                 5.1238                 3.0501
 Frc consts  --      1.1207                 1.6936                 1.1574
 IR Inten    --      2.2056                13.7941                 3.0137

                     25                     26                     27
                      A                      A                      A
 Frequencies --    828.6152               846.2686               895.8371
 Red. masses --      2.4816                 1.4690                 1.6843
 Frc consts  --      1.0039                 0.6198                 0.7964
 IR Inten    --     18.9041                13.0574               177.3241

                     28                     29                     30
                      A                      A                      A
 Frequencies --    922.3887               938.5918               972.1607
 Red. masses --      1.5267                 1.6638                 2.3363
 Frc consts  --      0.7653                 0.8636                 1.3009
 IR Inten    --      6.4715                40.1814                42.8397

                     31                     32                     33
                      A                      A                      A
 Frequencies --    982.4017              1000.3504              1014.2808
 Red. masses --      1.3795                 1.6707                 6.6691
 Frc consts  --      0.7844                 0.9850                 4.0424
 IR Inten    --      1.6624                17.9258                 6.2833

                     34                     35                     36
                      A                      A                      A
 Frequencies --   1050.3678              1086.9989              1093.0775
 Red. masses --      1.7859                 5.7248                 1.8578
 Frc consts  --      1.1609                 3.9854                 1.3078
 IR Inten    --     30.8541                63.8404                 2.2018

                     37                     38                     39
                      A                      A                      A
 Frequencies --   1113.3457              1132.3489              1147.9948
 Red. masses --      2.0312                 1.5801                 1.7686
 Frc consts  --      1.4834                 1.1937                 1.3733
 IR Inten    --     10.4330                30.2068                19.2940

                     40                     41                     42
                      A                      A                      A
 Frequencies --   1175.3427              1218.6341              1234.8594
 Red. masses --      1.8532                 1.1123                 1.6351
 Frc consts  --      1.5083                 0.9733                 1.4691
 IR Inten    --     25.6434                16.0621                10.7926

                     43                     44                     45
                      A                      A                      A
 Frequencies --   1275.8033              1280.1151              1299.6931
 Red. masses --      1.7155                 2.6275                 2.6100
 Frc consts  --      1.6451                 2.5368                 2.5976
 IR Inten    --      1.0065                 2.0825                12.1635

                     46                     47                     48
                      A                      A                      A
 Frequencies --   1324.1437              1343.3921              1386.3414
 Red. masses --      1.8469                 1.3685                 1.5833
 Frc consts  --      1.9079                 1.4552                 1.7928
 IR Inten    --      0.7177                16.3131                 6.5919

                     49                     50                     51
                      A                      A                      A
 Frequencies --   1392.2087              1405.0587              1424.2004
 Red. masses --      1.4366                 1.3364                 1.3376
 Frc consts  --      1.6406                 1.5544                 1.5985
 IR Inten    --      1.2420                14.2012                46.8555

                     52                     53                     54
                      A                      A                      A
 Frequencies --   1438.7324              1450.5734              1454.7997
 Red. masses --      1.2184                 1.2660                 2.3040
 Frc consts  --      1.4860                 1.5695                 2.8730
 IR Inten    --     11.4719                57.0532                24.4455

                     55                     56                     57
                      A                      A                      A
 Frequencies --   1516.0812              1519.5865              1522.8216
 Red. masses --      1.2673                 1.1065                 1.1114
 Frc consts  --      1.7162                 1.5054                 1.5185
 IR Inten    --      0.5067                10.4459                 1.8048

                     58                     59                     60
                      A                      A                      A
 Frequencies --   1527.7071              1620.7693              1655.1073
 Red. masses --      1.5158                 7.0318                 5.4262
 Frc consts  --      2.0844                10.8833                 8.7579
 IR Inten    --      2.4522                24.5493                66.0670

                     61                     62                     63
                      A                      A                      A
 Frequencies --   1689.8429              3005.4900              3057.5350
 Red. masses --      1.0900                 1.0705                 1.0364
 Frc consts  --      1.8340                 5.6972                 5.7084
 IR Inten    --     26.8466                52.0478                10.8954

                     64                     65                     66
                      A                      A                      A
 Frequencies --   3071.4758              3082.6520              3092.1813
 Red. masses --      1.0839                 1.0926                 1.0871
 Frc consts  --      6.0247                 6.1173                 6.1244
 IR Inten    --     17.7090                17.2032                13.9129

                     67                     68                     69
                      A                      A                      A
 Frequencies --   3128.0705              3136.7085              3169.0103
 Red. masses --      1.1002                 1.1037                 1.0882
 Frc consts  --      6.3428                 6.3980                 6.4387
 IR Inten    --     40.2553                24.3221                21.6259

                     70                     71                     72
                      A                      A                      A
 Frequencies --   3194.7244              3226.1681              3476.6296
 Red. masses --      1.0942                 1.0893                 1.0487
 Frc consts  --      6.5798                 6.6801                 7.4684
 IR Inten    --     24.1687                 1.1481                 3.2748

                     73                     74                     75
                      A                      A                      A
 Frequencies --   3566.6373              3710.6365              3736.0212
 Red. masses --      1.0933                 1.0653                 1.0662
 Frc consts  --      8.1940                 8.6422                 8.7678
 IR Inten    --      1.4167                 7.7035                11.9286

 - Thermochemistry -
 -------------------
 Temperature   298.150 Kelvin.  Pressure   1.00000 Atm.
 Atom     1 has atomic number  6 and mass  12.00000

 Molecular mass:   182.10553 amu.
 Principal axes and moments of inertia in atomic units:
                           1         2         3
     Eigenvalues --  1611.587663207.636253894.94124
           X            0.99999   0.00360  -0.00370
           Y           -0.00371   0.99950  -0.03134
           Z            0.00359   0.03135   0.99950
 This molecule is an asymmetric top.
 Rotational symmetry number  1.
 Warning -- assumption of classical behavior for rotation
           may cause significant error
 Rotational temperatures (Kelvin)      0.05374     0.02700     0.02224
 Rotational constants (GHZ):           1.11985     0.56264     0.46336
 Zero-point vibrational energy     602399.9 (Joules/Mol)
                                  143.97703 (Kcal/Mol)
 Warning -- explicit consideration of  21 degrees of freedom as
           vibrations may cause significant error
 Vibrational temperatures:     49.82    93.92   116.29   134.02   204.93
          (Kelvin)            279.25   332.90   352.52   371.17   415.25
                              485.72   503.87   511.82   558.68   606.14
                              617.28   657.12   716.61   781.45   846.79
                              887.59  1018.87  1077.65  1154.67  1192.19
                             1217.59  1288.91  1327.11  1350.42  1398.72
                             1413.46  1439.28  1459.32  1511.24  1563.95
                             1572.69  1601.86  1629.20  1651.71  1691.06
                             1753.34  1776.69  1835.60  1841.80  1869.97
                             1905.15  1932.84  1994.64  2003.08  2021.57
                             2049.11  2070.01  2087.05  2093.13  2181.30
                             2186.35  2191.00  2198.03  2331.93  2381.33
                             2431.31  4324.23  4399.11  4419.17  4435.25
                             4448.96  4500.60  4513.02  4559.50  4596.50
                             4641.74  5002.09  5131.60  5338.78  5375.30

 Zero-point correction=                           0.229442 (Hartree/Particle)
 Thermal correction to Energy=                    0.242634
 Thermal correction to Enthalpy=                  0.243578
 Thermal correction to Gibbs Free Energy=         0.189509
 Sum of electronic and zero-point Energies=           -611.128976
 Sum of electronic and thermal Energies=              -611.115784
 Sum of electronic and thermal Enthalpies=            -611.114840
 Sum of electronic and thermal Free Energies=         -611.168909

                     E (Thermal)             CV                S
                      KCal/Mol        Cal/Mol-Kelvin    Cal/Mol-Kelvin
 Total                  152.255             49.916            113.798
 Electronic               0.000              0.000              0.000
 Translational            0.889              2.981             41.505
 Rotational               0.889              2.981             31.377
 Vibrational            150.478             43.954             40.916
 Vibration     1          0.594              1.983              5.545
 Vibration     2          0.597              1.971              4.291
 Vibration     3          0.600              1.962              3.871
 Vibration     4          0.602              1.954              3.593
 Vibration     5          0.616              1.911              2.771
 Vibration     6          0.635              1.848              2.188
 Vibration     7          0.653              1.793              1.868
 Vibration     8          0.660              1.771              1.766
 Vibration     9          0.667              1.749              1.675
 Vibration    10          0.685              1.695              1.482
 Vibration    11          0.718              1.600              1.224
 Vibration    12          0.727              1.575              1.165
 Vibration    13          0.731              1.563              1.141
 Vibration    14          0.756              1.495              1.007
 Vibration    15          0.784              1.424              0.888
 Vibration    16          0.790              1.407              0.862
 Vibration    17          0.815              1.346              0.776
 Vibration    18          0.854              1.254              0.663
 Vibration    19          0.898              1.155              0.559
 Vibration    20          0.946              1.056              0.470
 Vibration    21          0.977              0.996              0.421

 Optimization completed.
    -- Stationary point found.
 Normal termination of Gaussian 16 at Mon Dec 14 13:20:37 2020.

 ----------------------------------------------------------------------
 # B3LYP/6-311++G(d,p) empiricaldispersion=gd3bj scf=xqc pop=npa geom=c
 heck
 ----------------------------------------------------------------------

 --------------------------------------
 CID_55292271_JID_3997_Energie_neutraal
 --------------------------------------
 Structure from the checkpoint file:  "JID_3997.chk"
 Charge =  0 Multiplicity = 1

 SCF Done:  E(RB3LYP) =  -611.553899813     A.U. after   14 cycles
 Normal termination of Gaussian 16 at Mon Dec 14 13:22:58 2020.

 ----------------------------------------------------------------------
 # B3LYP/6-311++G(d,p) empiricaldispersion=gd3bj scf=xqc pop=npa geom=c
 heck
 ----------------------------------------------------------------------

 ------------------------------------
 CID_55292271_JID_3997_Energie_kation
 ------------------------------------
 Structure from the checkpoint file:  "JID_3997.chk"
 Charge =  1 Multiplicity = 2

 SCF Done:  E(UB3LYP) =  -611.234419293     A.U. after   28 cycles
 Normal termination of Gaussian 16 at Mon Dec 14 13:29:08 2020.
 Gaussian 16:  ES64L-G16RevA.03 25-Dec-2016

 ----------------------------------------------------------------------
 # B3LYP/6-311++G(d,p) empiricaldispersion=gd3bj scf=xqc pop=npa geom=c
 heck
 ----------------------------------------------------------------------

 -----------------------------------
 CID_55292271_JID_3997_Energie_anion
 -----------------------------------
 Structure from the checkpoint file:  "JID_3997.chk"
 Charge = -1 Multiplicity = 2

                         Standard orientation:
 ---------------------------------------------------------------------
 Center     Atomic      Atomic             Coordinates (Angstroms)
 Number     Number       Type             X           Y           Z
 ---------------------------------------------------------------------
      1          6           0        2.797539    0.733670   -1.314550
      2          6           0        2.506964   -0.440566   -0.388265
      3          6           0        1.733430   -0.058524    0.900049
      4          6           0        0.361893    0.507435    0.557751
      5          7           0        0.288510    1.842256    0.413198
      6          6           0       -0.894244    2.367668    0.073929
      7          6           0       -2.045671    1.614404   -0.145406
      8          6           0       -1.976143    0.227463    0.006826
      9          6           0       -0.746654   -0.327299    0.364849
     10          6           0       -3.202129   -0.643571   -0.177948
     11          8           0       -2.907844   -2.007401   -0.429096
     12          7           0        1.736454   -1.236605    1.765219
     13          8           0        1.826329   -1.496038   -1.078352
     14          1           0        1.871392    1.195055   -1.675005
     15          1           0        3.375446    0.387840   -2.177065
     16          1           0        3.366347    1.511943   -0.795478
     17          1           0        3.444544   -0.895988   -0.054742
     18          1           0        2.288727    0.747970    1.392489
     19          1           0       -0.920604    3.450944   -0.032400
     20          1           0       -2.975647    2.102061   -0.425978
     21          1           0       -0.663372   -1.398378    0.509087
     22          1           0       -3.790584   -0.641923    0.747009
     23          1           0       -3.844496   -0.214457   -0.963100
     24          1           0       -2.422137   -2.053964   -1.267746
     25          1           0        1.064358   -1.131805    2.522063
     26          1           0        1.457257   -2.048212    1.216440
     27          1           0        1.016231   -1.107215   -1.448326
 ---------------------------------------------------------------------

 SCF Done:  E(UB3LYP) =  -611.547551243     A.U. after   33 cycles
 SCF Done:  E(UB3LYP) =  -611.547551243     a.u. after    1 cycles

 The electronic state is 2-A.
 Alpha  occ. eigenvalues --  -19.02002 -19.00386 -14.18418 -14.17263 -10.11995
 Alpha  occ. eigenvalues --  -10.10167 -10.08981 -10.08217 -10.08172 -10.06113
 Alpha  occ. eigenvalues --  -10.06043 -10.05233 -10.04999  -0.92288  -0.90679
 Alpha  occ. eigenvalues --   -0.81949  -0.77708  -0.68964  -0.66098  -0.63806
 Alpha  occ. eigenvalues --   -0.57528  -0.56766  -0.51847  -0.49252  -0.46421
 Alpha  occ. eigenvalues --   -0.40587  -0.39679  -0.38413  -0.37461  -0.36875
 Alpha  occ. eigenvalues --   -0.35321  -0.33249  -0.32430  -0.32247  -0.30957
 Alpha  occ. eigenvalues --   -0.30279  -0.27867  -0.27697  -0.26561  -0.26152
 Alpha  occ. eigenvalues --   -0.24638  -0.22417  -0.21963  -0.18246  -0.17159
 Alpha  occ. eigenvalues --   -0.15442  -0.15088  -0.13682  -0.12705   0.04909
 Alpha virt. eigenvalues --    0.07480   0.08198   0.08267   0.09012   0.09507
 Alpha virt. eigenvalues --    0.09913   0.10717   0.10897   0.11597   0.12146
 Alpha virt. eigenvalues --    0.12793   0.13403   0.14277   0.14843   0.15843

  Beta  occ. eigenvalues --  -19.01998 -19.00315 -14.18396 -14.17000 -10.11987
  Beta  occ. eigenvalues --  -10.10151 -10.08988 -10.08217 -10.08096 -10.06108
  Beta  occ. eigenvalues --  -10.05843 -10.05186 -10.04996  -0.92278  -0.90508
  Beta  occ. eigenvalues --   -0.81616  -0.77632  -0.68613  -0.66041  -0.63662
  Beta  occ. eigenvalues --   -0.57305  -0.56718  -0.51777  -0.49119  -0.46217
  Beta  occ. eigenvalues --   -0.40457  -0.39630  -0.38308  -0.37415  -0.36817
  Beta  occ. eigenvalues --   -0.35183  -0.33144  -0.32380  -0.32028  -0.30911
  Beta  occ. eigenvalues --   -0.30205  -0.27788  -0.27425  -0.26494  -0.25796
  Beta  occ. eigenvalues --   -0.24558  -0.22295  -0.21854  -0.18168  -0.16889
  Beta  occ. eigenvalues --   -0.15187  -0.14312  -0.13292  -0.12459
  Beta virt. eigenvalues --    0.07530   0.08278   0.08734   0.09156   0.09535
  Beta virt. eigenvalues --    0.09698   0.10344   0.10771   0.11221   0.11901
  Beta virt. eigenvalues --    0.12268   0.12920   0.13492   0.14367   0.14849

 Mulliken charges and spin densities:
               1          2
     1  C   -0.565511  -0.125913
     2  C   -0.091198   0.060249
     3  C    0.647103  -0.871586
     4  C   -0.828982   0.174761
     5  N   -0.038799   0.189133
     6  C    0.406594  -0.407793
     7  C   -0.471252  -0.477858
     8  C   -0.703445   1.089005
     9  C   -1.260925   1.578857
    10  C    2.517899  -2.808006
    11  O   -0.266165   0.032624
    12  N   -0.222316  -0.002895
    13  O   -0.265725   0.003396
    14  H    0.126009   0.058622
    15  H    0.104825   0.035899
    16  H    0.116463   0.005426
    17  H    0.211785  -0.012100
    18  H    0.255043  -0.012610
    19  H    0.014966   0.140469
    20  H   -0.353676   0.488051
    21  H    0.220718  -0.022692
    22  H   -0.327554   0.521145
    23  H   -0.321055   0.476850
    24  H   -0.299473   0.555323
    25  H    0.105703   0.111660
    26  H    0.132190   0.114823
    27  H    0.156777   0.105160
 Sum of Mulliken charges =  -1.00000   1.00000

 Dipole moment (field-independent basis, Debye):
    X=              5.4392    Y=              2.6788    Z=              0.1210  Tot=              6.0642
 Quadrupole moment (field-independent basis, Debye-Ang):
   XX=           -129.5971   YY=           -114.4453   ZZ=           -104.0253
   XY=             -4.5147   XZ=             -3.5727   YZ=             -5.1915

 Summary of Natural Population Analysis:

                                       Natural Population
                Natural  -----------------------------------------------
    Atom  No    Charge         Core      Valence    Rydberg      Total
 -----------------------------------------------------------------------
      C    1   -0.29893      0.99964     2.29450    0.00479     3.29893
      C    2    0.06523      0.99956     1.92098    0.01424     2.93477
      C    3   -0.03673      0.99953     2.02297    0.01423     3.03673
      C    4    0.10494      0.99951     1.87815    0.01741     2.89506
      N    5   -0.22082      0.99968     2.70961    0.01153     3.72082
      C    6    0.02647      0.99958     1.95883    0.01512     2.97353
      C    7   -0.12075      0.99950     2.11202    0.00922     3.12075
      C    8    0.02251      0.99950     1.96623    0.01176     2.97749
      C    9   -0.14064      0.99945     2.12984    0.01135     3.14064
      C   10   -0.01266      0.99955     2.00084    0.01227     3.01266
      O   11   -0.36661      0.99990     3.35990    0.00681     4.36661
      N   12   -0.42456      0.99977     2.91588    0.00891     3.92456
      O   13   -0.37795      0.99990     3.37140    0.00666     4.37795
      H   14    0.10661      0.00000     0.39223    0.00117     0.39339
      H   15    0.09722      0.00000     0.40188    0.00090     0.40278
      H   16    0.10149      0.00000     0.39776    0.00075     0.39851
      H   17    0.08761      0.00000     0.41098    0.00141     0.41239
      H   18    0.09909      0.00000     0.39919    0.00172     0.40091
      H   19    0.08372      0.00000     0.41520    0.00108     0.41628
      H   20    0.09871      0.00000     0.40010    0.00119     0.40129
      H   21    0.11050      0.00000     0.38769    0.00181     0.38950
      H   22    0.09584      0.00000     0.40090    0.00327     0.40416
      H   23    0.07947      0.00000     0.41883    0.00170     0.42053
      H   24    0.23244      0.00000     0.25783    0.00973     0.26756
      H   25    0.17663      0.00000     0.32185    0.00152     0.32337
      H   26    0.17930      0.00000     0.31838    0.00232     0.32070
      H   27    0.23190      0.00000     0.26499    0.00311     0.26810
 =======================================================================
   * Total *    0.00000     12.99507    35.82894    0.17599    49.00000

 Normal termination of Gaussian 16 at Mon Dec 14 13:36:32 2020.
