 Gaussian 16, Revision A.03,

 -----------------------------------------------------------
 # opt freq B3LYP/6-31G(d) empiricaldispersion=gd3bj scf=xqc
 -----------------------------------------------------------

 ------------------------------
 CID_62647087_JID_2054_neutraal
 ------------------------------
 Symbolic Z-matrix:
 Charge =  0 Multiplicity = 1

 SCF Done:  E(RB3LYP) =  -553.377243095     A.U. after   15 cycles
 SCF Done:  E(RB3LYP) =  -553.401328751     A.U. after   13 cycles
 SCF Done:  E(RB3LYP) =  -553.402440309     A.U. after   12 cycles
 SCF Done:  E(RB3LYP) =  -553.402641762     A.U. after   12 cycles
 SCF Done:  E(RB3LYP) =  -553.402569889     A.U. after   12 cycles
 SCF Done:  E(RB3LYP) =  -553.402985387     A.U. after   12 cycles
 SCF Done:  E(RB3LYP) =  -553.403197798     A.U. after   12 cycles
 SCF Done:  E(RB3LYP) =  -553.403250253     A.U. after   11 cycles
 SCF Done:  E(RB3LYP) =  -553.403264437     A.U. after   10 cycles
 SCF Done:  E(RB3LYP) =  -553.403270348     A.U. after   10 cycles
 SCF Done:  E(RB3LYP) =  -553.403273634     A.U. after    8 cycles
 SCF Done:  E(RB3LYP) =  -553.403273962     A.U. after    8 cycles
 SCF Done:  E(RB3LYP) =  -553.403274281     A.U. after    8 cycles
 SCF Done:  E(RB3LYP) =  -553.403274439     A.U. after    8 cycles
 SCF Done:  E(RB3LYP) =  -553.403274539     A.U. after    7 cycles
 SCF Done:  E(RB3LYP) =  -553.403274555     A.U. after    6 cycles
 Optimization completed.
    -- Stationary point found.
 Normal termination of Gaussian 16 at Wed Dec  9 16:49:37 2020.

 --------------------------------------------------------------------
 #N Geom=AllCheck Guess=TCheck SCRF=Check GenChk RB3LYP/6-31G(d) Freq
 --------------------------------------------------------------------

 Structure from the checkpoint file:  "JID_2054.chk"
 ------------------------------
 CID_62647087_JID_2054_neutraal
 ------------------------------
 Charge =  0 Multiplicity = 1

 SCF Done:  E(RB3LYP) =  -553.403274555     A.U. after    1 cycles

  Exact polarizability: 117.992   2.599  98.677   1.774   6.466  89.018
 Approx polarizability: 155.763   5.687 143.909   3.321  20.684 134.365

                      1                      2                      3
                      A                      A                      A
 Frequencies --     30.4425                41.8824                53.6052
 Red. masses --      4.4262                 7.5963                 3.9658
 Frc consts  --      0.0024                 0.0079                 0.0067
 IR Inten    --      0.7645                 1.6604                 1.9036

                      4                      5                      6
                      A                      A                      A
 Frequencies --     87.7447               101.3178               139.4390
 Red. masses --      3.5400                 2.9732                 2.4321
 Frc consts  --      0.0161                 0.0180                 0.0279
 IR Inten    --      3.1388                 0.5205                 3.4547

                      7                      8                      9
                      A                      A                      A
 Frequencies --    162.2525               219.2411               223.6943
 Red. masses --      3.5833                 1.3034                 1.9090
 Frc consts  --      0.0556                 0.0369                 0.0563
 IR Inten    --      1.0928                 2.4027                 1.3000

                     10                     11                     12
                      A                      A                      A
 Frequencies --    251.6498               268.5599               291.9310
 Red. masses --      1.7582                 1.8989                 1.2440
 Frc consts  --      0.0656                 0.0807                 0.0625
 IR Inten    --      1.1189                 3.8700                28.8849

                     13                     14                     15
                      A                      A                      A
 Frequencies --    322.6167               357.8768               377.6657
 Red. masses --      2.6138                 4.3596                 4.8702
 Frc consts  --      0.1603                 0.3290                 0.4093
 IR Inten    --     18.5245                 1.9720                 4.3274

                     16                     17                     18
                      A                      A                      A
 Frequencies --    390.7605               410.1564               443.1203
 Red. masses --      3.0887                 2.7883                 3.0244
 Frc consts  --      0.2779                 0.2764                 0.3499
 IR Inten    --      1.6951                 0.7306                 3.0218

                     19                     20                     21
                      A                      A                      A
 Frequencies --    539.0858               616.3203               624.5752
 Red. masses --      4.2711                 1.2237                 3.6571
 Frc consts  --      0.7313                 0.2739                 0.8405
 IR Inten    --     14.9191                76.1795                 7.6423

                     22                     23                     24
                      A                      A                      A
 Frequencies --    659.8212               749.6757               763.0780
 Red. masses --      3.2406                 4.7345                 2.0905
 Frc consts  --      0.8312                 1.5677                 0.7172
 IR Inten    --      5.4628                22.4118                13.8714

                     25                     26                     27
                      A                      A                      A
 Frequencies --    810.4441               852.7653               899.9290
 Red. masses --      1.9996                 2.0018                 1.9441
 Frc consts  --      0.7738                 0.8577                 0.9277
 IR Inten    --      4.3457                 2.5389                 8.9159

                     28                     29                     30
                      A                      A                      A
 Frequencies --    910.9246               947.9448               965.1955
 Red. masses --      1.8808                 1.8261                 1.6619
 Frc consts  --      0.9195                 0.9668                 0.9122
 IR Inten    --     61.5960                23.6148                33.8066

                     31                     32                     33
                      A                      A                      A
 Frequencies --    998.1745              1025.8521              1061.1340
 Red. masses --      1.9214                 1.5770                 2.3575
 Frc consts  --      1.1279                 0.9778                 1.5640
 IR Inten    --      9.6570                 1.4359                13.0596

                     34                     35                     36
                      A                      A                      A
 Frequencies --   1096.0494              1116.7696              1131.5904
 Red. masses --      1.7734                 1.8501                 1.6964
 Frc consts  --      1.2552                 1.3594                 1.2798
 IR Inten    --     34.5933                22.4884                 9.0162

                     37                     38                     39
                      A                      A                      A
 Frequencies --   1151.9140              1188.8826              1246.5481
 Red. masses --      2.2227                 3.5182                 1.2241
 Frc consts  --      1.7377                 2.9299                 1.1207
 IR Inten    --     12.6410                19.3084                13.8279

                     40                     41                     42
                      A                      A                      A
 Frequencies --   1261.9013              1285.9919              1322.0153
 Red. masses --      1.3380                 1.3679                 1.3289
 Frc consts  --      1.2554                 1.3328                 1.3684
 IR Inten    --     23.7764                 6.0323                 2.0846

                     43                     44                     45
                      A                      A                      A
 Frequencies --   1342.5972              1380.9377              1393.2534
 Red. masses --      1.2544                 1.3983                 1.3587
 Frc consts  --      1.3323                 1.5710                 1.5539
 IR Inten    --      7.0878                38.6434                12.6024

                     46                     47                     48
                      A                      A                      A
 Frequencies --   1400.1958              1409.1842              1415.0528
 Red. masses --      1.4827                 1.5129                 2.2199
 Frc consts  --      1.7127                 1.7701                 2.6190
 IR Inten    --     29.6572                15.2637                85.5514

                     49                     50                     51
                      A                      A                      A
 Frequencies --   1439.5665              1445.6034              1495.2310
 Red. masses --      1.2569                 1.2560                 1.1007
 Frc consts  --      1.5347                 1.5465                 1.4499
 IR Inten    --     18.5707                 3.8168                12.1221

                     52                     53                     54
                      A                      A                      A
 Frequencies --   1515.0265              1520.5606              1526.6862
 Red. masses --      1.4549                 1.1058                 1.0578
 Frc consts  --      1.9676                 1.5063                 1.4526
 IR Inten    --     50.9630                12.7180                 8.5874

                     55                     56                     57
                      A                      A                      A
 Frequencies --   1529.5299              1532.2543              1541.2820
 Red. masses --      1.1018                 1.0710                 1.0538
 Frc consts  --      1.5186                 1.4815                 1.4750
 IR Inten    --      8.9664                 6.1491                 4.5850

                     58                     59                     60
                      A                      A                      A
 Frequencies --   1694.9219              1781.7478              2367.3309
 Red. masses --      1.0899                 7.7078                12.5819
 Frc consts  --      1.8447                14.4169                41.5447
 IR Inten    --     43.1885               378.4928                 9.8629

                     61                     62                     63
                      A                      A                      A
 Frequencies --   3028.6327              3044.5243              3050.0930
 Red. masses --      1.0848                 1.0606                 1.0394
 Frc consts  --      5.8625                 5.7920                 5.6974
 IR Inten    --     34.3634                 7.6477                29.4434

                     64                     65                     66
                      A                      A                      A
 Frequencies --   3055.1339              3081.1814              3083.4546
 Red. masses --      1.0386                 1.0674                 1.0946
 Frc consts  --      5.7115                 5.9704                 6.1314
 IR Inten    --     20.4474                 8.3483                 6.0911

                     67                     68                     69
                      A                      A                      A
 Frequencies --   3115.9641              3122.0519              3125.9239
 Red. masses --      1.1012                 1.0982                 1.1010
 Frc consts  --      6.2992                 6.3069                 6.3384
 IR Inten    --     38.3633                30.8756                30.1743

                     70                     71                     72
                      A                      A                      A
 Frequencies --   3129.7386              3144.9543              3178.2302
 Red. masses --      1.1015                 1.1028                 1.0850
 Frc consts  --      6.3570                 6.4265                 6.4570
 IR Inten    --      6.7249                20.2510                 6.7797

                     73                     74                     75
                      A                      A                      A
 Frequencies --   3460.9902              3543.0889              3562.2643
 Red. masses --      1.0500                 1.0925                 1.0751
 Frc consts  --      7.4103                 8.0807                 8.0380
 IR Inten    --      0.5320                 0.6161                16.6320

 - Thermochemistry -
 -------------------
 Temperature   298.150 Kelvin.  Pressure   1.00000 Atm.
 Atom     1 has atomic number  6 and mass  12.00000

 Molecular mass:   169.12151 amu.
 Principal axes and moments of inertia in atomic units:
                           1         2         3
     Eigenvalues --  1488.064363029.847313513.11751
           X            0.99963  -0.02046   0.01771
           Y            0.02113   0.99904  -0.03830
           Z           -0.01691   0.03866   0.99911
 This molecule is an asymmetric top.
 Rotational symmetry number  1.
 Warning -- assumption of classical behavior for rotation
           may cause significant error
 Rotational temperatures (Kelvin)      0.05821     0.02859     0.02465
 Rotational constants (GHZ):           1.21281     0.59565     0.51372
 Zero-point vibrational energy     615225.8 (Joules/Mol)
                                  147.04250 (Kcal/Mol)
 Warning -- explicit consideration of  20 degrees of freedom as
           vibrations may cause significant error
 Vibrational temperatures:     43.80    60.26    77.13   126.25   145.77
          (Kelvin)            200.62   233.45   315.44   321.85   362.07
                              386.40   420.02   464.17   514.90   543.38
                              562.22   590.12   637.55   775.62   886.75
                              898.62   949.34  1078.62  1097.90  1166.05
                             1226.94  1294.80  1310.62  1363.88  1388.70
                             1436.15  1475.97  1526.74  1576.97  1606.78
                             1628.11  1657.35  1710.54  1793.50  1815.59
                             1850.26  1902.09  1931.70  1986.86  2004.58
                             2014.57  2027.50  2035.95  2071.22  2079.90
                             2151.30  2179.79  2187.75  2196.56  2200.65
                             2204.57  2217.56  2438.61  2563.54  3406.06
                             4357.53  4380.39  4388.40  4395.66  4433.13
                             4436.40  4483.18  4491.94  4497.51  4503.00
                             4524.89  4572.76  4979.59  5097.71  5125.30

 Zero-point correction=                           0.234327 (Hartree/Particle)
 Thermal correction to Energy=                    0.248379
 Thermal correction to Enthalpy=                  0.249323
 Thermal correction to Gibbs Free Energy=         0.192582
 Sum of electronic and zero-point Energies=           -553.168947
 Sum of electronic and thermal Energies=              -553.154896
 Sum of electronic and thermal Enthalpies=            -553.153951
 Sum of electronic and thermal Free Energies=         -553.210693

                     E (Thermal)             CV                S
                      KCal/Mol        Cal/Mol-Kelvin    Cal/Mol-Kelvin
 Total                  155.860             50.299            119.423
 Electronic               0.000              0.000              0.000
 Translational            0.889              2.981             41.284
 Rotational               0.889              2.981             31.138
 Vibrational            154.083             44.337             47.000
 Vibration     1          0.594              1.984              5.800
 Vibration     2          0.595              1.980              5.168
 Vibration     3          0.596              1.976              4.680
 Vibration     4          0.601              1.958              3.710
 Vibration     5          0.604              1.948              3.429
 Vibration     6          0.615              1.914              2.812
 Vibration     7          0.622              1.889              2.523
 Vibration     8          0.647              1.812              1.965
 Vibration     9          0.649              1.805              1.929
 Vibration    10          0.664              1.760              1.719
 Vibration    11          0.673              1.731              1.605
 Vibration    12          0.687              1.689              1.463
 Vibration    13          0.708              1.630              1.297
 Vibration    14          0.733              1.559              1.131
 Vibration    15          0.748              1.518              1.049
 Vibration    16          0.758              1.490              0.997
 Vibration    17          0.774              1.448              0.926
 Vibration    18          0.803              1.376              0.817
 Vibration    19          0.894              1.164              0.567
 Vibration    20          0.976              0.997              0.422

 Optimization completed.
    -- Stationary point found.
 Normal termination of Gaussian 16 at Wed Dec  9 16:55:44 2020.

 ----------------------------------------------------------------------
 # B3LYP/6-311++G(d,p) empiricaldispersion=gd3bj scf=xqc pop=npa geom=c
 heck
 ----------------------------------------------------------------------

 --------------------------------------
 CID_62647087_JID_2054_Energie_neutraal
 --------------------------------------
 Structure from the checkpoint file:  "JID_2054.chk"
 Charge =  0 Multiplicity = 1

 SCF Done:  E(RB3LYP) =  -553.575282021     A.U. after   14 cycles
 Normal termination of Gaussian 16 at Wed Dec  9 16:58:25 2020.

 ----------------------------------------------------------------------
 # B3LYP/6-311++G(d,p) empiricaldispersion=gd3bj scf=xqc pop=npa geom=c
 heck
 ----------------------------------------------------------------------

 ------------------------------------
 CID_62647087_JID_2054_Energie_kation
 ------------------------------------
 Structure from the checkpoint file:  "JID_2054.chk"
 Charge =  1 Multiplicity = 2

 SCF Done:  E(UB3LYP) =  -553.239052803     A.U. after   26 cycles
 Normal termination of Gaussian 16 at Wed Dec  9 17:05:29 2020.
 Gaussian 16:  ES64L-G16RevA.03 25-Dec-2016

 ----------------------------------------------------------------------
 # B3LYP/6-311++G(d,p) empiricaldispersion=gd3bj scf=xqc pop=npa geom=c
 heck
 ----------------------------------------------------------------------

 -----------------------------------
 CID_62647087_JID_2054_Energie_anion
 -----------------------------------
 Structure from the checkpoint file:  "JID_2054.chk"
 Charge = -1 Multiplicity = 2

                         Standard orientation:
 ---------------------------------------------------------------------
 Center     Atomic      Atomic             Coordinates (Angstroms)
 Number     Number       Type             X           Y           Z
 ---------------------------------------------------------------------
      1          6           0       -2.364639    2.281434   -0.285570
      2          6           0       -1.487592    1.211321   -0.940252
      3          6           0       -0.642025    0.401610    0.053086
      4          6           0       -1.486075   -0.329313    1.128246
      5          6           0       -2.413549   -1.290244    0.531344
      6          7           0       -3.132344   -2.033807    0.003812
      7          7           0        0.185848   -0.551945   -0.672767
      8          6           0        1.531950   -0.800186   -0.622540
      9          8           0        2.045016   -1.619928   -1.375186
     10          6           0        2.415068   -0.017385    0.362714
     11          6           0        2.673092    1.406409   -0.144307
     12          7           0        1.832502    0.015606    1.714958
     13          1           0       -3.159316    1.840821    0.325975
     14          1           0       -2.848187    2.900762   -1.047590
     15          1           0       -1.771837    2.944781    0.356275
     16          1           0       -2.115905    0.523572   -1.522180
     17          1           0       -0.795165    1.678181   -1.650633
     18          1           0        0.017236    1.063469    0.610033
     19          1           0       -0.800222   -0.846458    1.805095
     20          1           0       -2.053965    0.392875    1.724691
     21          1           0       -0.288212   -1.133829   -1.356388
     22          1           0        3.368558   -0.561738    0.324753
     23          1           0        1.760346    2.009484   -0.159083
     24          1           0        3.402457    1.911224    0.500605
     25          1           0        3.083800    1.373435   -1.157584
     26          1           0        1.860916   -0.921787    2.114271
     27          1           0        2.419939    0.593791    2.314907
 ---------------------------------------------------------------------

 SCF Done:  E(UB3LYP) =  -553.569812170     A.U. after   29 cycles

 The electronic state is 2-A.
 Alpha  occ. eigenvalues --  -18.99243 -14.24382 -14.22356 -14.19908 -10.17678
 Alpha  occ. eigenvalues --  -10.13240 -10.12370 -10.11838 -10.11209 -10.08591
 Alpha  occ. eigenvalues --  -10.07365 -10.06993  -0.94452  -0.84018  -0.81892
 Alpha  occ. eigenvalues --   -0.79308  -0.71736  -0.66677  -0.65022  -0.59032
 Alpha  occ. eigenvalues --   -0.55159  -0.51557  -0.48607  -0.42608  -0.40397
 Alpha  occ. eigenvalues --   -0.40293  -0.38232  -0.37353  -0.36611  -0.35537
 Alpha  occ. eigenvalues --   -0.33278  -0.32283  -0.31636  -0.30532  -0.28554
 Alpha  occ. eigenvalues --   -0.28426  -0.28000  -0.27338  -0.26681  -0.26323
 Alpha  occ. eigenvalues --   -0.25646  -0.24056  -0.23862  -0.16628  -0.16268
 Alpha  occ. eigenvalues --   -0.15305   0.03973
 Alpha virt. eigenvalues --    0.06366   0.07400   0.08178   0.08952   0.09251
 Alpha virt. eigenvalues --    0.10163   0.10514   0.10952   0.11161   0.11223
 Alpha virt. eigenvalues --    0.12058   0.12452   0.12610   0.13077   0.13759

  Beta  occ. eigenvalues --  -18.99240 -14.24380 -14.22347 -14.19836 -10.17677
  Beta  occ. eigenvalues --  -10.13231 -10.12368 -10.11805 -10.11195 -10.08580
  Beta  occ. eigenvalues --  -10.07323 -10.06949  -0.94447  -0.84005  -0.81876
  Beta  occ. eigenvalues --   -0.79210  -0.71703  -0.66628  -0.64930  -0.58975
  Beta  occ. eigenvalues --   -0.55084  -0.51493  -0.48564  -0.42575  -0.40329
  Beta  occ. eigenvalues --   -0.40236  -0.38187  -0.37270  -0.36575  -0.35507
  Beta  occ. eigenvalues --   -0.33237  -0.32247  -0.31600  -0.30488  -0.28497
  Beta  occ. eigenvalues --   -0.28377  -0.27977  -0.27300  -0.26638  -0.26288
  Beta  occ. eigenvalues --   -0.25614  -0.24029  -0.23836  -0.16610  -0.16247
  Beta  occ. eigenvalues --   -0.15253
  Beta virt. eigenvalues --    0.06525   0.07476   0.08141   0.08678   0.09328
  Beta virt. eigenvalues --    0.09718   0.10701   0.10822   0.11067   0.11356
  Beta virt. eigenvalues --    0.11623   0.12381   0.12817   0.12898   0.13352

 Mulliken charges and spin densities:
               1          2
     1  C    0.814309  -1.507285
     2  C   -0.705235   0.523650
     3  C   -0.516791   0.355603
     4  C    0.919123  -0.789260
     5  C   -0.055265  -0.180398
     6  N   -0.325821   0.017075
     7  N   -0.119910   0.078378
     8  C    0.130120  -0.193090
     9  O   -0.329655   0.006159
    10  C   -0.327227   0.128184
    11  C    0.835208  -1.282953
    12  N   -0.196661  -0.148612
    13  H   -0.038025   0.185785
    14  H   -0.096631   0.236471
    15  H   -0.505284   0.671490
    16  H    0.099142   0.041410
    17  H    0.019545   0.149206
    18  H    0.696250  -0.468412
    19  H    0.009002   0.200071
    20  H   -0.349676   0.530265
    21  H    0.307376  -0.001479
    22  H   -0.079015   0.304296
    23  H   -0.315126   0.472382
    24  H   -0.521469   0.687612
    25  H    0.092580   0.050329
    26  H   -0.202432   0.445249
    27  H   -0.238430   0.487873
 Sum of Mulliken charges =  -1.00000   1.00000

 Dipole moment (field-independent basis, Debye):
    X=             -2.2316    Y=             -0.8884    Z=             -3.4812  Tot=              4.2295
 Quadrupole moment (field-independent basis, Debye-Ang):
   XX=           -136.9514   YY=           -124.5778   ZZ=           -112.7201
   XY=             -3.9299   XZ=             -5.5313   YZ=             -7.6486

 Summary of Natural Population Analysis:

                                       Natural Population
                Natural  -----------------------------------------------
    Atom  No    Charge         Core      Valence    Rydberg      Total
 -----------------------------------------------------------------------
      C    1   -0.28793      0.99966     2.28319    0.00508     3.28793
      C    2   -0.19451      0.99961     2.18625    0.00864     3.19451
      C    3   -0.01310      0.99956     1.99983    0.01371     3.01310
      C    4   -0.25266      0.99952     2.24343    0.00971     3.25266
      C    5    0.16289      0.99966     1.82031    0.01714     2.83711
      N    6   -0.19083      0.99979     2.68026    0.01078     3.69083
      N    7   -0.32118      0.99965     2.81125    0.01028     3.82118
      C    8    0.34570      0.99964     1.63022    0.02444     2.65430
      O    9   -0.32552      0.99988     3.31986    0.00578     4.32552
      C   10   -0.05074      0.99958     2.03795    0.01321     3.05074
      C   11   -0.28475      0.99964     2.27912    0.00599     3.28475
      N   12   -0.43008      0.99976     2.91848    0.01183     3.93008
      H   13    0.09684      0.00000     0.40180    0.00136     0.40316
      H   14    0.10165      0.00000     0.39753    0.00082     0.39835
      H   15    0.10250      0.00000     0.39590    0.00161     0.39750
      H   16    0.09691      0.00000     0.40191    0.00118     0.40309
      H   17    0.10306      0.00000     0.39577    0.00117     0.39694
      H   18    0.12188      0.00000     0.37413    0.00399     0.37812
      H   19    0.13253      0.00000     0.36539    0.00208     0.36747
      H   20    0.12464      0.00000     0.37369    0.00166     0.37536
      H   21    0.19421      0.00000     0.30367    0.00212     0.30579
      H   22    0.09566      0.00000     0.40273    0.00161     0.40434
      H   23    0.09966      0.00000     0.39892    0.00143     0.40034
      H   24    0.10444      0.00000     0.39400    0.00156     0.39556
      H   25    0.10371      0.00000     0.39533    0.00097     0.39629
      H   26    0.18016      0.00000     0.31609    0.00375     0.31984
      H   27    0.18484      0.00000     0.30687    0.00829     0.31516
 =======================================================================
   * Total *    0.00000     11.99596    33.83388    0.17016    46.00000

 Normal termination of Gaussian 16 at Wed Dec  9 17:15:28 2020.
