 Gaussian 16, Revision A.03,

 -----------------------------------------------------------
 # opt freq B3LYP/6-31G(d) empiricaldispersion=gd3bj scf=xqc
 -----------------------------------------------------------

 -------------------------------
 CID_117253778_JID_4418_neutraal
 -------------------------------
 Symbolic Z-matrix:
 Charge =  0 Multiplicity = 1

 SCF Done:  E(RB3LYP) =  -608.525883094     A.U. after   15 cycles
 SCF Done:  E(RB3LYP) =  -608.530154771     A.U. after   12 cycles
 SCF Done:  E(RB3LYP) =  -608.530733446     A.U. after   12 cycles
 SCF Done:  E(RB3LYP) =  -608.530883129     A.U. after   11 cycles
 SCF Done:  E(RB3LYP) =  -608.530911934     A.U. after   11 cycles
 SCF Done:  E(RB3LYP) =  -608.530928560     A.U. after    9 cycles
 SCF Done:  E(RB3LYP) =  -608.530935756     A.U. after    9 cycles
 SCF Done:  E(RB3LYP) =  -608.530937725     A.U. after    8 cycles
 SCF Done:  E(RB3LYP) =  -608.530939818     A.U. after    9 cycles
 SCF Done:  E(RB3LYP) =  -608.530940684     A.U. after    9 cycles
 SCF Done:  E(RB3LYP) =  -608.530941116     A.U. after    8 cycles
 SCF Done:  E(RB3LYP) =  -608.530941238     A.U. after    8 cycles
 SCF Done:  E(RB3LYP) =  -608.530941263     A.U. after    8 cycles
 SCF Done:  E(RB3LYP) =  -608.530941285     A.U. after    7 cycles
 SCF Done:  E(RB3LYP) =  -608.530941298     A.U. after    7 cycles
 Optimization completed.
    -- Stationary point found.
 Normal termination of Gaussian 16 at Thu Dec 10 09:46:26 2020.

 --------------------------------------------------------------------
 #N Geom=AllCheck Guess=TCheck SCRF=Check GenChk RB3LYP/6-31G(d) Freq
 --------------------------------------------------------------------

 Structure from the checkpoint file:  "JID_4418.chk"
 -------------------------------
 CID_117253778_JID_4418_neutraal
 -------------------------------
 Charge =  0 Multiplicity = 1

 SCF Done:  E(RB3LYP) =  -608.530941298     A.U. after    1 cycles

  Exact polarizability: 183.439  13.103 139.315  18.829  -8.637  73.683
 Approx polarizability: 282.869  35.574 232.576  40.215 -15.434 117.006

                      1                      2                      3
                      A                      A                      A
 Frequencies --     16.2212                55.8168                79.3507
 Red. masses --      3.9932                 3.2184                 3.1310
 Frc consts  --      0.0006                 0.0059                 0.0116
 IR Inten    --      0.6909                 1.6558                 1.5251

                      4                      5                      6
                      A                      A                      A
 Frequencies --    133.5205               138.9699               165.6844
 Red. masses --      2.3505                 4.7783                 3.1440
 Frc consts  --      0.0247                 0.0544                 0.0509
 IR Inten    --      0.4930                 0.4523                 1.2199

                      7                      8                      9
                      A                      A                      A
 Frequencies --    219.8683               256.2404               282.6013
 Red. masses --      1.6995                 1.0680                 2.1339
 Frc consts  --      0.0484                 0.0413                 0.1004
 IR Inten    --      0.5367                38.6148                 4.1398

                     10                     11                     12
                      A                      A                      A
 Frequencies --    297.0369               356.4071               378.0853
 Red. masses --      3.7055                 3.2531                 2.7181
 Frc consts  --      0.1926                 0.2435                 0.2289
 IR Inten    --      9.7721                 4.6627                 2.0913

                     13                     14                     15
                      A                      A                      A
 Frequencies --    408.4844               429.6188               465.7767
 Red. masses --      2.6325                 2.5701                 4.6505
 Frc consts  --      0.2588                 0.2795                 0.5944
 IR Inten    --      1.2085                10.3037                 0.3047

                     16                     17                     18
                      A                      A                      A
 Frequencies --    506.6466               518.3596               591.8326
 Red. masses --      2.5525                 5.1228                 3.8617
 Frc consts  --      0.3860                 0.8110                 0.7969
 IR Inten    --      3.1103                 1.8819                 0.4130

                     19                     20                     21
                      A                      A                      A
 Frequencies --    608.9181               672.4418               697.2201
 Red. masses --      2.7294                 2.9746                 2.0107
 Frc consts  --      0.5963                 0.7925                 0.5759
 IR Inten    --     65.3134                98.3118               125.8999

                     22                     23                     24
                      A                      A                      A
 Frequencies --    702.0074               726.8493               767.3136
 Red. masses --      2.5561                 3.2107                 2.5137
 Frc consts  --      0.7422                 0.9994                 0.8720
 IR Inten    --     72.0238                 1.1850                59.7350

                     25                     26                     27
                      A                      A                      A
 Frequencies --    773.0533               783.2285               789.1286
 Red. masses --      1.8514                 1.6122                 1.8209
 Frc consts  --      0.6519                 0.5827                 0.6681
 IR Inten    --     15.5019                30.0480                69.4164

                     28                     29                     30
                      A                      A                      A
 Frequencies --    808.9161               841.3032               870.1637
 Red. masses --      1.6965                 2.0912                 3.6632
 Frc consts  --      0.6541                 0.8721                 1.6342
 IR Inten    --     77.6097                 7.0673                17.0005

                     31                     32                     33
                      A                      A                      A
 Frequencies --    933.2622               953.5921               965.1357
 Red. masses --      2.5020                 1.2575                 3.3774
 Frc consts  --      1.2840                 0.6737                 1.8536
 IR Inten    --     20.6180                 0.1512                16.3972

                     34                     35                     36
                      A                      A                      A
 Frequencies --    997.5325              1019.9331              1060.5435
 Red. masses --      1.9730                 2.0303                 2.4145
 Frc consts  --      1.1567                 1.2444                 1.6000
 IR Inten    --     14.2219                26.7999                 4.2906

                     37                     38                     39
                      A                      A                      A
 Frequencies --   1135.2348              1146.5715              1171.2350
 Red. masses --      2.0056                 1.3948                 1.2881
 Frc consts  --      1.5229                 1.0803                 1.0411
 IR Inten    --     24.8185                 0.7016                 1.7872

                     40                     41                     42
                      A                      A                      A
 Frequencies --   1172.9058              1195.4600              1204.7864
 Red. masses --      1.3348                 1.7048                 1.8867
 Frc consts  --      1.0819                 1.4355                 1.6135
 IR Inten    --      6.5663                10.4646                12.2999

                     43                     44                     45
                      A                      A                      A
 Frequencies --   1232.8604              1287.8681              1298.0989
 Red. masses --      1.7828                 1.9301                 2.3094
 Frc consts  --      1.5966                 1.8862                 2.2928
 IR Inten    --      1.1623                23.7681                24.0457

                     46                     47                     48
                      A                      A                      A
 Frequencies --   1319.7831              1334.0619              1351.4417
 Red. masses --      1.4479                 4.1378                 2.7279
 Frc consts  --      1.4860                 4.3389                 2.9354
 IR Inten    --      6.1037                 9.9576                 1.5719

                     49                     50                     51
                      A                      A                      A
 Frequencies --   1371.1561              1393.9180              1403.4307
 Red. masses --      1.3551                 1.8902                 1.4033
 Frc consts  --      1.5010                 2.1639                 1.6285
 IR Inten    --     19.3511                40.3633                11.5929

                     52                     53                     54
                      A                      A                      A
 Frequencies --   1452.0957              1477.0095              1485.2559
 Red. masses --      3.4739                 1.2094                 3.6242
 Frc consts  --      4.3157                 1.5544                 4.7105
 IR Inten    --     18.2142                 1.5635                 1.2986

                     55                     56                     57
                      A                      A                      A
 Frequencies --   1498.9615              1509.0150              1518.4571
 Red. masses --      1.1727                 1.1612                 1.0815
 Frc consts  --      1.5525                 1.5579                 1.4692
 IR Inten    --      3.8320                 0.8508                 0.1563

                     58                     59                     60
                      A                      A                      A
 Frequencies --   1522.9982              1539.5896              1557.7644
 Red. masses --      1.4096                 2.5072                 1.0513
 Frc consts  --      1.9264                 3.5015                 1.5030
 IR Inten    --     15.9037                17.0955                 4.8729

                     61                     62                     63
                      A                      A                      A
 Frequencies --   1574.3749              1600.0467              1692.4404
 Red. masses --      5.3255                 4.9956                 1.2281
 Frc consts  --      7.7773                 7.5354                 2.0725
 IR Inten    --     15.1563                 9.3628                23.8730

                     64                     65                     66
                      A                      A                      A
 Frequencies --   1717.9002              3005.0964              3032.2421
 Red. masses --      4.3347                 1.0469                 1.0612
 Frc consts  --      7.5371                 5.5700                 5.7485
 IR Inten    --    139.2083                50.3995                24.2549

                     67                     68                     69
                      A                      A                      A
 Frequencies --   3045.2582              3074.4360              3075.8918
 Red. masses --      1.0675                 1.1008                 1.0934
 Frc consts  --      5.8327                 6.1305                 6.0949
 IR Inten    --     43.0428                14.1265                90.2812

                     70                     71                     72
                      A                      A                      A
 Frequencies --   3113.9499              3122.1317              3197.7382
 Red. masses --      1.1019                 1.0937                 1.0877
 Frc consts  --      6.2952                 6.2812                 6.5531
 IR Inten    --     34.1033                19.4889                 4.3783

                     73                     74                     75
                      A                      A                      A
 Frequencies --   3219.5230              3243.0588              3259.9007
 Red. masses --      1.0951                 1.0912                 1.0960
 Frc consts  --      6.6877                 6.7617                 6.8624
 IR Inten    --     11.5124                 6.1065                 8.1162

                     76                     77                     78
                      A                      A                      A
 Frequencies --   3491.1880              3534.6324              3630.6408
 Red. masses --      1.0733                 1.0484                 1.0970
 Frc consts  --      7.7073                 7.7170                 8.5199
 IR Inten    --      0.2948                 8.5123                 6.1158

 - Thermochemistry -
 -------------------
 Temperature   298.150 Kelvin.  Pressure   1.00000 Atm.
 Atom     1 has atomic number  6 and mass  12.00000

 Molecular mass:   190.12185 amu.
 Principal axes and moments of inertia in atomic units:
                           1         2         3
     Eigenvalues --  1355.846584120.122525026.54918
           X            0.99999  -0.00188   0.00482
           Y            0.00197   0.99984  -0.01795
           Z           -0.00479   0.01796   0.99983
 This molecule is an asymmetric top.
 Rotational symmetry number  1.
 Warning -- assumption of classical behavior for rotation
           may cause significant error
 Rotational temperatures (Kelvin)      0.06388     0.02102     0.01723
 Rotational constants (GHZ):           1.33108     0.43803     0.35904
 Zero-point vibrational energy     624938.0 (Joules/Mol)
                                  149.36376 (Kcal/Mol)
 Warning -- explicit consideration of  19 degrees of freedom as
           vibrations may cause significant error
 Vibrational temperatures:     23.34    80.31   114.17   192.11   199.95
          (Kelvin)            238.38   316.34   368.67   406.60   427.37
                              512.79   543.98   587.72   618.13   670.15
                              728.95   745.80   851.52   876.10   967.49
                             1003.14  1010.03  1045.77  1103.99  1112.25
                             1126.89  1135.38  1163.85  1210.45  1251.97
                             1342.76  1372.01  1388.61  1435.23  1467.46
                             1525.89  1633.35  1649.66  1685.15  1687.55
                             1720.00  1733.42  1773.81  1852.95  1867.67
                             1898.87  1919.42  1944.42  1972.79  2005.54
                             2019.22  2089.24  2125.09  2136.95  2156.67
                             2171.14  2184.72  2191.25  2215.13  2241.28
                             2265.17  2302.11  2435.04  2471.68  4323.66
                             4362.72  4381.45  4423.43  4425.52  4480.28
                             4492.05  4600.83  4632.18  4666.04  4690.27
                             5023.04  5085.55  5223.68

 Zero-point correction=                           0.238026 (Hartree/Particle)
 Thermal correction to Energy=                    0.250947
 Thermal correction to Enthalpy=                  0.251891
 Thermal correction to Gibbs Free Energy=         0.197504
 Sum of electronic and zero-point Energies=           -608.292915
 Sum of electronic and thermal Energies=              -608.279995
 Sum of electronic and thermal Enthalpies=            -608.279050
 Sum of electronic and thermal Free Energies=         -608.333437

                     E (Thermal)             CV                S
                      KCal/Mol        Cal/Mol-Kelvin    Cal/Mol-Kelvin
 Total                  157.471             49.921            114.466
 Electronic               0.000              0.000              0.000
 Translational            0.889              2.981             41.633
 Rotational               0.889              2.981             31.707
 Vibrational            155.694             43.960             41.126
 Vibration     1          0.593              1.986              7.050
 Vibration     2          0.596              1.975              4.600
 Vibration     3          0.600              1.963              3.907
 Vibration     4          0.613              1.920              2.895
 Vibration     5          0.615              1.914              2.818
 Vibration     6          0.624              1.885              2.484
 Vibration     7          0.647              1.811              1.960
 Vibration     8          0.666              1.752              1.687
 Vibration     9          0.682              1.706              1.518
 Vibration    10          0.691              1.679              1.434
 Vibration    11          0.732              1.562              1.138
 Vibration    12          0.748              1.517              1.047
 Vibration    13          0.773              1.452              0.932
 Vibration    14          0.791              1.406              0.860
 Vibration    15          0.823              1.326              0.749
 Vibration    16          0.862              1.235              0.642
 Vibration    17          0.873              1.209              0.614
 Vibration    18          0.949              1.049              0.464
 Vibration    19          0.968              1.013              0.435

 Optimization completed.
    -- Stationary point found.
 Normal termination of Gaussian 16 at Thu Dec 10 09:54:41 2020.

 ----------------------------------------------------------------------
 # B3LYP/6-311++G(d,p) empiricaldispersion=gd3bj scf=xqc pop=npa geom=c
 heck
 ----------------------------------------------------------------------

 ---------------------------------------
 CID_117253778_JID_4418_Energie_neutraal
 ---------------------------------------
 Structure from the checkpoint file:  "JID_4418.chk"
 Charge =  0 Multiplicity = 1

 SCF Done:  E(RB3LYP) =  -608.702426461     A.U. after   16 cycles
 Normal termination of Gaussian 16 at Thu Dec 10 09:58:49 2020.

 ----------------------------------------------------------------------
 # B3LYP/6-311++G(d,p) empiricaldispersion=gd3bj scf=xqc pop=npa geom=c
 heck
 ----------------------------------------------------------------------

 -------------------------------------
 CID_117253778_JID_4418_Energie_kation
 -------------------------------------
 Structure from the checkpoint file:  "JID_4418.chk"
 Charge =  1 Multiplicity = 2

 SCF Done:  E(UB3LYP) =  -608.446753588     A.U. after   22 cycles
 Normal termination of Gaussian 16 at Thu Dec 10 10:07:02 2020.
 Gaussian 16:  ES64L-G16RevA.03 25-Dec-2016

 ----------------------------------------------------------------------
 # B3LYP/6-311++G(d,p) empiricaldispersion=gd3bj scf=xqc pop=npa geom=c
 heck
 ----------------------------------------------------------------------

 ------------------------------------
 CID_117253778_JID_4418_Energie_anion
 ------------------------------------
 Structure from the checkpoint file:  "JID_4418.chk"
 Charge = -1 Multiplicity = 2

                         Standard orientation:
 ---------------------------------------------------------------------
 Center     Atomic      Atomic             Coordinates (Angstroms)
 Number     Number       Type             X           Y           Z
 ---------------------------------------------------------------------
      1          6           0        4.205784   -0.023718   -0.475694
      2          7           0        3.033106   -0.652180   -1.080643
      3          6           0        2.277845   -1.502737   -0.173082
      4          6           0        1.664921   -0.800682    1.071543
      5          6           0        0.770843    0.330374    0.695469
      6          7           0        1.150076    1.601614    0.549518
      7          6           0        0.067152    2.295218    0.107385
      8          6           0       -1.026384    1.447428   -0.040316
      9          7           0       -0.546044    0.177161    0.337817
     10          6           0       -1.348679   -0.954258    0.297480
     11          6           0       -2.659342   -0.843023   -0.077339
     12          6           0       -3.182250    0.444792   -0.451205
     13          6           0       -2.381348    1.551080   -0.436121
     14          7           0       -3.534950   -1.938338   -0.051229
     15          1           0        4.872900   -0.806114   -0.093620
     16          1           0        3.981236    0.674560    0.345818
     17          1           0        4.750656    0.529126   -1.248129
     18          1           0        2.417771    0.082948   -1.425883
     19          1           0        1.470429   -1.972584   -0.749921
     20          1           0        2.938113   -2.310510    0.169087
     21          1           0        1.127544   -1.541984    1.678397
     22          1           0        2.462103   -0.395510    1.700636
     23          1           0        0.106027    3.359424   -0.080840
     24          1           0       -0.882554   -1.888386    0.582636
     25          1           0       -4.227790    0.520332   -0.734435
     26          1           0       -2.766995    2.524342   -0.721756
     27          1           0       -3.070685   -2.839067   -0.025570
     28          1           0       -4.225330   -1.921223   -0.793383
 ---------------------------------------------------------------------

 SCF Done:  E(UB3LYP) =  -608.695698578     A.U. after   33 cycles
 SCF Done:  E(UB3LYP) =  -608.695698578     a.u. after    1 cycles

 The electronic state is 2-A.
 Alpha  occ. eigenvalues --  -14.26470 -14.19888 -14.19677 -14.18287 -10.10752
 Alpha  occ. eigenvalues --  -10.09868 -10.09224 -10.09029 -10.08955 -10.07960
 Alpha  occ. eigenvalues --  -10.07466 -10.06581 -10.06322 -10.05669  -0.91093
 Alpha  occ. eigenvalues --   -0.80752  -0.80351  -0.77734  -0.69999  -0.66505
 Alpha  occ. eigenvalues --   -0.63679  -0.59928  -0.57006  -0.52860  -0.51027
 Alpha  occ. eigenvalues --   -0.49790  -0.47160  -0.41533  -0.39684  -0.39006
 Alpha  occ. eigenvalues --   -0.38626  -0.36726  -0.35230  -0.34163  -0.33922
 Alpha  occ. eigenvalues --   -0.32928  -0.31704  -0.30763  -0.29336  -0.28737
 Alpha  occ. eigenvalues --   -0.28228  -0.25902  -0.25485  -0.25004  -0.24077
 Alpha  occ. eigenvalues --   -0.19705  -0.18888  -0.16405  -0.12932  -0.11073
 Alpha  occ. eigenvalues --   -0.07471   0.04620
 Alpha virt. eigenvalues --    0.07028   0.07058   0.07864   0.08706   0.09154
 Alpha virt. eigenvalues --    0.09926   0.10585   0.10995   0.11740   0.12189
 Alpha virt. eigenvalues --    0.12415   0.12870   0.13625   0.13791   0.14711

  Beta  occ. eigenvalues --  -14.26382 -14.19819 -14.19674 -14.18270 -10.10768
  Beta  occ. eigenvalues --  -10.09869 -10.09203 -10.09057 -10.08950 -10.07802
  Beta  occ. eigenvalues --  -10.07463 -10.06543 -10.06173 -10.05552  -0.90976
  Beta  occ. eigenvalues --   -0.80680  -0.80306  -0.77637  -0.69828  -0.66395
  Beta  occ. eigenvalues --   -0.63512  -0.59837  -0.56939  -0.52585  -0.50972
  Beta  occ. eigenvalues --   -0.49707  -0.47053  -0.41447  -0.39653  -0.38857
  Beta  occ. eigenvalues --   -0.38517  -0.36661  -0.35106  -0.34009  -0.33836
  Beta  occ. eigenvalues --   -0.32865  -0.31618  -0.30671  -0.29263  -0.28661
  Beta  occ. eigenvalues --   -0.28198  -0.25874  -0.25399  -0.24757  -0.24005
  Beta  occ. eigenvalues --   -0.19269  -0.18420  -0.16371  -0.12906  -0.10752
  Beta  occ. eigenvalues --   -0.06979
  Beta virt. eigenvalues --    0.06998   0.07798   0.08310   0.08410   0.09020
  Beta virt. eigenvalues --    0.09597   0.10041   0.10754   0.11415   0.11875
  Beta virt. eigenvalues --    0.12420   0.12683   0.12920   0.13768   0.14240

 Mulliken charges and spin densities:
               1          2
     1  C   -0.356757  -0.089763
     2  N   -0.166791   0.082601
     3  C    0.319430  -0.834390
     4  C   -0.701700   0.469959
     5  C   -0.224291  -0.181160
     6  N   -0.033869   0.003140
     7  C    0.104624  -0.427863
     8  C    1.095357  -0.678628
     9  N    0.302801   0.029627
    10  C    0.001759  -0.120867
    11  C    0.404316  -0.841915
    12  C    0.229916  -0.255413
    13  C   -1.163153   0.975165
    14  N   -0.279010  -0.046086
    15  H    0.078869   0.058095
    16  H    0.151246  -0.010952
    17  H    0.107303   0.013597
    18  H    0.213409   0.027078
    19  H   -0.209369   0.414142
    20  H   -0.060072   0.191428
    21  H    0.017819   0.127303
    22  H    0.189685   0.013685
    23  H    0.122355   0.006700
    24  H   -0.140003   0.292892
    25  H   -0.364248   0.519655
    26  H    0.048546   0.084420
    27  H   -0.449089   0.694496
    28  H   -0.239084   0.483055
 Sum of Mulliken charges =  -1.00000   1.00000

 Dipole moment (field-independent basis, Debye):
    X=              5.8454    Y=              5.4543    Z=              1.7145  Tot=              8.1766
 Quadrupole moment (field-independent basis, Debye-Ang):
   XX=           -149.0273   YY=           -128.5658   ZZ=           -106.0026
   XY=            -17.2962   XZ=             -0.2555   YZ=             -8.3608

 Summary of Natural Population Analysis:

                                       Natural Population
                Natural  -----------------------------------------------
    Atom  No    Charge         Core      Valence    Rydberg      Total
 -----------------------------------------------------------------------
      C    1   -0.18213      0.99966     2.17525    0.00721     3.18213
      N    2   -0.33928      0.99976     2.82834    0.01118     3.83928
      C    3   -0.08507      0.99963     2.07224    0.01320     3.08507
      C    4   -0.22272      0.99960     2.21405    0.00907     3.22272
      C    5    0.16148      0.99961     1.81964    0.01927     2.83852
      N    6   -0.25764      0.99970     2.74858    0.00936     3.75764
      C    7   -0.03560      0.99955     2.02259    0.01346     3.03560
      C    8    0.03975      0.99954     1.94888    0.01183     2.96025
      N    9   -0.17089      0.99959     2.66294    0.00836     3.67089
      C   10   -0.00481      0.99949     1.99251    0.01281     3.00481
      C   11    0.06610      0.99950     1.92268    0.01172     2.93390
      C   12   -0.09695      0.99953     2.08634    0.01109     3.09695
      C   13   -0.07492      0.99953     2.06690    0.00849     3.07492
      N   14   -0.39769      0.99972     2.88680    0.01117     3.89769
      H   15    0.08584      0.00000     0.41312    0.00103     0.41416
      H   16    0.08704      0.00000     0.41134    0.00162     0.41296
      H   17    0.09046      0.00000     0.40864    0.00089     0.40954
      H   18    0.17591      0.00000     0.32101    0.00309     0.32409
      H   19    0.09890      0.00000     0.39949    0.00162     0.40110
      H   20    0.08710      0.00000     0.41177    0.00113     0.41290
      H   21    0.10471      0.00000     0.39405    0.00124     0.39529
      H   22    0.10646      0.00000     0.39232    0.00122     0.39354
      H   23    0.09159      0.00000     0.40748    0.00093     0.40841
      H   24    0.09990      0.00000     0.39853    0.00157     0.40010
      H   25    0.09866      0.00000     0.40038    0.00096     0.40134
      H   26    0.09951      0.00000     0.39975    0.00074     0.40049
      H   27    0.18894      0.00000     0.30136    0.00971     0.31106
      H   28    0.18536      0.00000     0.30899    0.00565     0.31464
 =======================================================================
   * Total *    0.00000     13.99442    36.81596    0.18961    51.00000

 Normal termination of Gaussian 16 at Thu Dec 10 10:19:31 2020.
