 Gaussian 16, Revision A.03,

 -----------------------------------------------------------
 # opt freq B3LYP/6-31G(d) empiricaldispersion=gd3bj scf=xqc
 -----------------------------------------------------------

 -------------------------------
 CID_127252428_JID_9031_neutraal
 -------------------------------
 Symbolic Z-matrix:
 Charge =  0 Multiplicity = 1

 SCF Done:  E(RB3LYP) =  -817.569325413     A.U. after   14 cycles
 SCF Done:  E(RB3LYP) =  -817.578413986     A.U. after   13 cycles
 SCF Done:  E(RB3LYP) =  -817.579635472     A.U. after   13 cycles
 SCF Done:  E(RB3LYP) =  -817.579898515     A.U. after   12 cycles
 SCF Done:  E(RB3LYP) =  -817.580090627     A.U. after   12 cycles
 SCF Done:  E(RB3LYP) =  -817.580235700     A.U. after   11 cycles
 SCF Done:  E(RB3LYP) =  -817.580269186     A.U. after   10 cycles
 SCF Done:  E(RB3LYP) =  -817.580274182     A.U. after    9 cycles
 SCF Done:  E(RB3LYP) =  -817.580275442     A.U. after    8 cycles
 SCF Done:  E(RB3LYP) =  -817.580275871     A.U. after    7 cycles
 SCF Done:  E(RB3LYP) =  -817.580275948     A.U. after    7 cycles
 Optimization completed.
    -- Stationary point found.
 Normal termination of Gaussian 16 at Mon Dec 14 13:20:28 2020.

 --------------------------------------------------------------------
 #N Geom=AllCheck Guess=TCheck SCRF=Check GenChk RB3LYP/6-31G(d) Freq
 --------------------------------------------------------------------

 Structure from the checkpoint file:  "JID_9031.chk"
 -------------------------------
 CID_127252428_JID_9031_neutraal
 -------------------------------
 Charge =  0 Multiplicity = 1

 SCF Done:  E(RB3LYP) =  -817.580275948     A.U. after    1 cycles

  Exact polarizability: 191.199   4.521 187.256  15.406  -1.575 134.908
 Approx polarizability: 276.226  15.402 281.351  37.961  -3.924 226.663

 ******    1 imaginary frequencies (negative Signs) ******

                      1                      2                      3
                      A                      A                      A
 Frequencies --    -60.4862                33.5254                44.6250
 Red. masses --      1.0236                 4.4279                 4.9791
 Frc consts  --      0.0022                 0.0029                 0.0058
 IR Inten    --      0.2626                 0.4439                 0.7037

                      4                      5                      6
                      A                      A                      A
 Frequencies --     60.0035               101.7494               111.4828
 Red. masses --      3.7880                 3.4796                 4.0585
 Frc consts  --      0.0080                 0.0212                 0.0297
 IR Inten    --      0.4572                 1.5075                 3.3426

                      7                      8                      9
                      A                      A                      A
 Frequencies --    150.0447               171.8760               197.1557
 Red. masses --      4.3970                 4.2185                 4.1292
 Frc consts  --      0.0583                 0.0734                 0.0946
 IR Inten    --      1.5122                 1.6082                 0.2096

                     10                     11                     12
                      A                      A                      A
 Frequencies --    211.4677               232.6132               254.5469
 Red. masses --      3.5387                 2.0552                 1.1363
 Frc consts  --      0.0932                 0.0655                 0.0434
 IR Inten    --      0.4316                 0.6066                 0.1410

                     13                     14                     15
                      A                      A                      A
 Frequencies --    273.8482               291.9870               334.5927
 Red. masses --      3.2914                 4.5769                 2.4795
 Frc consts  --      0.1454                 0.2299                 0.1636
 IR Inten    --      0.1074                 3.6784                 3.5051

                     16                     17                     18
                      A                      A                      A
 Frequencies --    356.1244               393.0719               416.6580
 Red. masses --      3.7334                 3.6084                 3.4160
 Frc consts  --      0.2790                 0.3285                 0.3494
 IR Inten    --      1.6125                 1.6767                 0.5948

                     19                     20                     21
                      A                      A                      A
 Frequencies --    422.6540               457.0434               514.3377
 Red. masses --      4.2828                 3.6167                 3.0705
 Frc consts  --      0.4508                 0.4451                 0.4786
 IR Inten    --      0.2014                 4.0818                 4.8913

                     22                     23                     24
                      A                      A                      A
 Frequencies --    532.3520               545.6990               573.1054
 Red. masses --      3.7098                 3.8693                 4.4879
 Frc consts  --      0.6194                 0.6789                 0.8685
 IR Inten    --      8.1438                 2.2611                14.6966

                     25                     26                     27
                      A                      A                      A
 Frequencies --    617.7640               632.3607               655.9926
 Red. masses --      2.2110                 3.6725                 6.6880
 Frc consts  --      0.4972                 0.8652                 1.6957
 IR Inten    --      4.1431                 0.8666                 3.6223

                     28                     29                     30
                      A                      A                      A
 Frequencies --    704.9664               733.5874               792.2808
 Red. masses --      6.6577                 6.0460                 1.2106
 Frc consts  --      1.9494                 1.9170                 0.4477
 IR Inten    --      4.3343                 1.7006                24.2866

                     31                     32                     33
                      A                      A                      A
 Frequencies --    809.3847               813.7023               825.0166
 Red. masses --      4.4428                 9.7552                 4.2490
 Frc consts  --      1.7148                 3.8055                 1.7040
 IR Inten    --     10.4628                22.2903                 1.1464

                     34                     35                     36
                      A                      A                      A
 Frequencies --    845.9682               867.7105               892.6678
 Red. masses --      1.2589                 2.2087                 1.5495
 Frc consts  --      0.5308                 0.9798                 0.7275
 IR Inten    --      7.6275                 3.9458                 2.9936

                     37                     38                     39
                      A                      A                      A
 Frequencies --    926.5596               943.3809               961.8379
 Red. masses --      2.5800                 2.5951                 1.9075
 Frc consts  --      1.3050                 1.3608                 1.0397
 IR Inten    --      1.3437                 1.9621                 4.7501

                     40                     41                     42
                      A                      A                      A
 Frequencies --    981.4806               991.5769               997.3277
 Red. masses --      1.4216                 3.9461                 1.4444
 Frc consts  --      0.8069                 2.2860                 0.8465
 IR Inten    --      0.7328                 7.6119                 0.8961

                     43                     44                     45
                      A                      A                      A
 Frequencies --   1000.1583              1012.8821              1015.1964
 Red. masses --      1.3701                 3.2879                 5.6404
 Frc consts  --      0.8075                 1.9874                 3.4250
 IR Inten    --      0.0389                 4.3935                 1.1072

                     46                     47                     48
                      A                      A                      A
 Frequencies --   1021.0988              1032.8187              1063.9399
 Red. masses --      1.7411                 1.5685                 2.5695
 Frc consts  --      1.0696                 0.9858                 1.7137
 IR Inten    --     14.1098                 7.3063                 4.0699

                     49                     50                     51
                      A                      A                      A
 Frequencies --   1071.8590              1104.0750              1114.9950
 Red. masses --      1.5968                 2.1513                 1.6467
 Frc consts  --      1.0808                 1.5451                 1.2062
 IR Inten    --      4.3163                 2.8781                 5.0987

                     52                     53                     54
                      A                      A                      A
 Frequencies --   1126.7526              1148.4915              1175.5733
 Red. masses --      1.5421                 2.0456                 1.7700
 Frc consts  --      1.1535                 1.5897                 1.4412
 IR Inten    --      2.2540                15.2475                 8.2178

                     55                     56                     57
                      A                      A                      A
 Frequencies --   1193.4009              1210.2049              1233.1942
 Red. masses --      2.9639                 1.9912                 1.5505
 Frc consts  --      2.4871                 1.7182                 1.3893
 IR Inten    --     27.7971                26.8586                 3.8343

                     58                     59                     60
                      A                      A                      A
 Frequencies --   1242.1453              1268.6067              1280.0449
 Red. masses --      1.9495                 6.7527                 1.8339
 Frc consts  --      1.7722                 6.4030                 1.7704
 IR Inten    --     22.2965                 0.8008                 1.4827

                     61                     62                     63
                      A                      A                      A
 Frequencies --   1286.8710              1297.1575              1332.8411
 Red. masses --      4.3905                 1.9677                 1.6628
 Frc consts  --      4.2839                 1.9507                 1.7403
 IR Inten    --      8.5677                 2.2583                27.4324

                     64                     65                     66
                      A                      A                      A
 Frequencies --   1342.3541              1350.2227              1374.5527
 Red. masses --      2.3784                 1.5625                 1.3487
 Frc consts  --      2.5251                 1.6784                 1.5014
 IR Inten    --      2.3543                11.6903                10.2183

                     67                     68                     69
                      A                      A                      A
 Frequencies --   1389.0561              1421.1799              1429.7956
 Red. masses --      1.5072                 1.9031                 1.6559
 Frc consts  --      1.7134                 2.2647                 1.9945
 IR Inten    --     52.8764                23.2544                14.0526

                     70                     71                     72
                      A                      A                      A
 Frequencies --   1430.4142              1440.1110              1484.0025
 Red. masses --      1.4288                 1.9080                 2.1299
 Frc consts  --      1.7224                 2.3315                 2.7636
 IR Inten    --      7.0348                21.6286                85.4537

                     73                     74                     75
                      A                      A                      A
 Frequencies --   1489.0265              1506.4862              1512.6280
 Red. masses --      2.2526                 1.0904                 1.2404
 Frc consts  --      2.9426                 1.4580                 1.6722
 IR Inten    --      2.2016                24.3189                 9.8455

                     76                     77                     78
                      A                      A                      A
 Frequencies --   1514.5184              1516.6632              1526.0548
 Red. masses --      1.0454                 1.0870                 1.1014
 Frc consts  --      1.4127                 1.4732                 1.5112
 IR Inten    --      5.3826                 2.7237                24.7241

                     79                     80                     81
                      A                      A                      A
 Frequencies --   1536.1554              1546.2188              1560.8724
 Red. masses --      1.0941                 1.1824                 4.5317
 Frc consts  --      1.5211                 1.6655                 6.5049
 IR Inten    --     28.0524                83.2051               484.7934

                     82                     83                     84
                      A                      A                      A
 Frequencies --   1596.6569              1618.4865              1635.5774
 Red. masses --      6.0111                 5.8252                 6.1642
 Frc consts  --      9.0287                 8.9904                 9.7156
 IR Inten    --    100.9768                82.3877               191.5329

                     85                     86                     87
                      A                      A                      A
 Frequencies --   1656.2900              3033.9544              3053.0690
 Red. masses --      5.6140                 1.0722                 1.0388
 Frc consts  --      9.0740                 5.8151                 5.7047
 IR Inten    --    383.9549                33.8139                14.2115

                     88                     89                     90
                      A                      A                      A
 Frequencies --   3066.8788              3072.3642              3080.2117
 Red. masses --      1.0596                 1.0430                 1.0606
 Frc consts  --      5.8721                 5.8006                 5.9289
 IR Inten    --      8.8214                42.2579                16.3714

                     91                     92                     93
                      A                      A                      A
 Frequencies --   3106.5973              3118.2569              3127.0858
 Red. masses --      1.1004                 1.0982                 1.0959
 Frc consts  --      6.2571                 6.2914                 6.3140
 IR Inten    --     12.7852                38.3241                16.6592

                     94                     95                     96
                      A                      A                      A
 Frequencies --   3134.2113              3146.1659              3160.5100
 Red. masses --      1.1064                 1.0993                 1.0895
 Frc consts  --      6.4034                 6.4110                 6.4122
 IR Inten    --     31.9286                24.3592                28.7715

                     97                     98                     99
                      A                      A                      A
 Frequencies --   3161.4509              3163.0147              3168.5630
 Red. masses --      1.0912                 1.1003                 1.0900
 Frc consts  --      6.4258                 6.4858                 6.4479
 IR Inten    --     42.0465                 8.3639                24.8295

                    100                    101                    102
                      A                      A                      A
 Frequencies --   3170.9698              3211.7584              3231.0948
 Red. masses --      1.1026                 1.0943                 1.0952
 Frc consts  --      6.5321                 6.6509                 6.7364
 IR Inten    --     11.3318                15.3272                13.7153

 - Thermochemistry -
 -------------------
 Temperature   298.150 Kelvin.  Pressure   1.00000 Atm.
 Atom     1 has atomic number  6 and mass  12.00000

 Molecular mass:   255.14840 amu.
 Principal axes and moments of inertia in atomic units:
                           1         2         3
     Eigenvalues --  3384.772635106.348156859.94054
           X            0.99934   0.03452   0.01090
           Y           -0.03448   0.99940  -0.00418
           Z           -0.01104   0.00381   0.99993
 This molecule is an asymmetric top.
 Rotational symmetry number  1.
 Warning -- assumption of classical behavior for rotation
           may cause significant error
 Rotational temperatures (Kelvin)      0.02559     0.01696     0.01263
 Rotational constants (GHZ):           0.53319     0.35343     0.26308
    1 imaginary frequencies ignored.
 Zero-point vibrational energy     789475.0 (Joules/Mol)
                                  188.68906 (Kcal/Mol)
 Warning -- explicit consideration of  24 degrees of freedom as
           vibrations may cause significant error
 Vibrational temperatures:     48.24    64.21    86.33   146.39   160.40
          (Kelvin)            215.88   247.29   283.66   304.25   334.68
                              366.24   394.01   420.10   481.40   512.38
                              565.54   599.48   608.10   657.58   740.02
                              765.94   785.14   824.57   888.82   909.83
                              943.83  1014.29  1055.47  1139.92  1164.52
                             1170.74  1187.01  1217.16  1248.44  1284.35
                             1333.11  1357.31  1383.87  1412.13  1426.66
                             1434.93  1439.00  1457.31  1460.64  1469.13
                             1486.00  1530.77  1542.17  1588.52  1604.23
                             1621.15  1652.42  1691.39  1717.04  1741.21
                             1774.29  1787.17  1825.24  1841.70  1851.52
                             1866.32  1917.66  1931.35  1942.67  1977.67
                             1998.54  2044.76  2057.16  2058.05  2072.00
                             2135.15  2142.38  2167.50  2176.33  2179.05
                             2182.14  2195.65  2210.18  2224.66  2245.75
                             2297.23  2328.64  2353.23  2383.03  4365.18
                             4392.69  4412.55  4420.45  4431.74  4469.70
                             4486.48  4499.18  4509.43  4526.63  4547.27
                             4548.62  4550.87  4558.86  4562.32  4621.00
                             4648.82

 Zero-point correction=                           0.300695 (Hartree/Particle)
 Thermal correction to Energy=                    0.316357
 Thermal correction to Enthalpy=                  0.317301
 Thermal correction to Gibbs Free Energy=         0.257163
 Sum of electronic and zero-point Energies=           -817.279581
 Sum of electronic and thermal Energies=              -817.263919
 Sum of electronic and thermal Enthalpies=            -817.262975
 Sum of electronic and thermal Free Energies=         -817.323112

                     E (Thermal)             CV                S
                      KCal/Mol        Cal/Mol-Kelvin    Cal/Mol-Kelvin
 Total                  198.517             61.770            126.569
 Electronic               0.000              0.000              0.000
 Translational            0.889              2.981             42.510
 Rotational               0.889              2.981             33.138
 Vibrational            196.739             55.808             50.921
 Vibration     1          0.594              1.983              5.609
 Vibration     2          0.595              1.980              5.042
 Vibration     3          0.597              1.973              4.457
 Vibration     4          0.604              1.948              3.421
 Vibration     5          0.607              1.940              3.243
 Vibration     6          0.618              1.903              2.672
 Vibration     7          0.626              1.877              2.415
 Vibration     8          0.637              1.844              2.159
 Vibration     9          0.643              1.823              2.031
 Vibration    10          0.653              1.791              1.859
 Vibration    11          0.665              1.755              1.699
 Vibration    12          0.676              1.722              1.572
 Vibration    13          0.687              1.689              1.462
 Vibration    14          0.716              1.606              1.238
 Vibration    15          0.732              1.563              1.139
 Vibration    16          0.760              1.485              0.988
 Vibration    17          0.780              1.434              0.903
 Vibration    18          0.785              1.421              0.883
 Vibration    19          0.815              1.345              0.775
 Vibration    20          0.869              1.218              0.623
 Vibration    21          0.887              1.178              0.582
 Vibration    22          0.901              1.149              0.553
 Vibration    23          0.929              1.089              0.498
 Vibration    24          0.978              0.994              0.420

                           ! Non-Optimized Parameters !
 Normal termination of Gaussian 16 at Mon Dec 14 13:40:53 2020.

 ----------------------------------------------------------------------
 # B3LYP/6-311++G(d,p) empiricaldispersion=gd3bj scf=xqc pop=npa geom=c
 heck
 ----------------------------------------------------------------------

 ---------------------------------------
 CID_127252428_JID_9031_Energie_neutraal
 ---------------------------------------
 Structure from the checkpoint file:  "JID_9031.chk"
 Charge =  0 Multiplicity = 1

 SCF Done:  E(RB3LYP) =  -817.788132333     A.U. after   15 cycles
 Normal termination of Gaussian 16 at Mon Dec 14 13:49:31 2020.

 ----------------------------------------------------------------------
 # B3LYP/6-311++G(d,p) empiricaldispersion=gd3bj scf=xqc pop=npa geom=c
 heck
 ----------------------------------------------------------------------

 -------------------------------------
 CID_127252428_JID_9031_Energie_kation
 -------------------------------------
 Structure from the checkpoint file:  "JID_9031.chk"
 Charge =  1 Multiplicity = 2

 SCF Done:  E(UB3LYP) =  -817.516783781     A.U. after   24 cycles
 Normal termination of Gaussian 16 at Mon Dec 14 14:08:29 2020.
 Gaussian 16:  ES64L-G16RevA.03 25-Dec-2016

 ----------------------------------------------------------------------
 # B3LYP/6-311++G(d,p) empiricaldispersion=gd3bj scf=xqc pop=npa geom=c
 heck
 ----------------------------------------------------------------------

 ------------------------------------
 CID_127252428_JID_9031_Energie_anion
 ------------------------------------
 Structure from the checkpoint file:  "JID_9031.chk"
 Charge = -1 Multiplicity = 2

                         Standard orientation:
 ---------------------------------------------------------------------
 Center     Atomic      Atomic             Coordinates (Angstroms)
 Number     Number       Type             X           Y           Z
 ---------------------------------------------------------------------
      1          6           0       -4.313480   -0.974782   -0.908166
      2          6           0       -3.122015   -0.624542   -0.057885
      3          7           0       -2.180120    0.154232   -0.610607
      4          6           0       -1.118354    0.465327    0.138798
      5          7           0       -0.929929    0.118279    1.419670
      6          6           0       -1.867325   -0.663524    1.960109
      7          6           0       -2.989902   -1.084551    1.255827
      8          6           0       -0.039714    1.354868   -0.479185
      9          6           0       -0.100404    2.765787    0.174773
     10          6           0        1.365161    3.204987    0.271636
     11          6           0        2.081452    1.904944    0.639451
     12          7           0        1.306088    0.893945   -0.077255
     13          6           0        1.705438   -0.400680   -0.140950
     14          7           0        2.907479   -0.697952    0.406880
     15          6           0        3.282327   -1.973552    0.331442
     16          6           0        2.505735   -2.968147   -0.262377
     17          6           0        1.288320   -2.543864   -0.794399
     18          7           0        0.874607   -1.280736   -0.748666
     19          6           0       -0.154345    1.435817   -2.005565
     20          1           0       -5.241785   -0.606880   -0.454841
     21          1           0       -4.201856   -0.530917   -1.899170
     22          1           0       -4.412664   -2.061621   -1.013642
     23          1           0       -1.713056   -0.957970    2.997242
     24          1           0       -3.737395   -1.726338    1.711146
     25          1           0       -0.729296    3.444447   -0.407614
     26          1           0       -0.523334    2.678742    1.180363
     27          1           0        1.523741    3.993357    1.013059
     28          1           0        1.723754    3.573669   -0.696003
     29          1           0        2.047235    1.714101    1.721061
     30          1           0        3.127987    1.872453    0.329377
     31          1           0        4.250863   -2.210015    0.771444
     32          1           0        2.827342   -4.001953   -0.308338
     33          1           0        0.613341   -3.247202   -1.281347
     34          1           0       -0.012910    0.446651   -2.444344
     35          1           0       -1.140330    1.803836   -2.296941
     36          1           0        0.614115    2.112721   -2.392658
 ---------------------------------------------------------------------

 SCF Done:  E(UB3LYP) =  -817.777833630     A.U. after   33 cycles
 SCF Done:  E(UB3LYP) =  -817.777833642     a.u. after    2 cycles

 The electronic state is 2-A.
 Alpha  occ. eigenvalues --  -14.21380 -14.17414 -14.17244 -14.17195 -14.16970
 Alpha  occ. eigenvalues --  -10.14141 -10.11336 -10.10862 -10.09304 -10.08774
 Alpha  occ. eigenvalues --  -10.08372 -10.08112 -10.08005 -10.07617 -10.06988
 Alpha  occ. eigenvalues --  -10.05237 -10.05215 -10.04822 -10.04220  -0.88181
 Alpha  occ. eigenvalues --   -0.85277  -0.81643  -0.75702  -0.75544  -0.70259
 Alpha  occ. eigenvalues --   -0.68311  -0.64512  -0.63757  -0.60285  -0.57088
 Alpha  occ. eigenvalues --   -0.54227  -0.53171  -0.51875  -0.49772  -0.48469
 Alpha  occ. eigenvalues --   -0.45489  -0.41926  -0.39475  -0.38801  -0.38015
 Alpha  occ. eigenvalues --   -0.36834  -0.36212  -0.33384  -0.32916  -0.32606
 Alpha  occ. eigenvalues --   -0.31667  -0.31020  -0.30062  -0.29717  -0.28615
 Alpha  occ. eigenvalues --   -0.28111  -0.27932  -0.27604  -0.26942  -0.26295
 Alpha  occ. eigenvalues --   -0.25912  -0.24830  -0.23014  -0.22749  -0.18913
 Alpha  occ. eigenvalues --   -0.18677  -0.18388  -0.17913  -0.17306  -0.14414
 Alpha  occ. eigenvalues --   -0.12037  -0.11702  -0.09549   0.05210
 Alpha virt. eigenvalues --    0.07127   0.07353   0.07752   0.08078   0.08692
 Alpha virt. eigenvalues --    0.09277   0.09408   0.09592   0.10070   0.10403
 Alpha virt. eigenvalues --    0.11232   0.11511   0.11795   0.12154   0.12491

  Beta  occ. eigenvalues --  -14.21385 -14.17297 -14.17099 -14.17037 -14.16839
  Beta  occ. eigenvalues --  -10.14162 -10.11363 -10.10863 -10.09303 -10.08555
  Beta  occ. eigenvalues --  -10.08204 -10.07941 -10.07817 -10.07616 -10.06987
  Beta  occ. eigenvalues --  -10.05268 -10.05235 -10.04880 -10.04215  -0.88070
  Beta  occ. eigenvalues --   -0.85033  -0.81517  -0.75354  -0.75214  -0.70196
  Beta  occ. eigenvalues --   -0.68183  -0.64406  -0.63623  -0.60151  -0.57073
  Beta  occ. eigenvalues --   -0.54202  -0.52845  -0.51809  -0.49449  -0.48383
  Beta  occ. eigenvalues --   -0.45387  -0.41837  -0.39386  -0.38672  -0.37932
  Beta  occ. eigenvalues --   -0.36767  -0.36137  -0.33302  -0.32772  -0.32408
  Beta  occ. eigenvalues --   -0.31425  -0.30921  -0.29937  -0.29537  -0.28518
  Beta  occ. eigenvalues --   -0.28006  -0.27823  -0.27413  -0.26642  -0.26195
  Beta  occ. eigenvalues --   -0.25794  -0.24807  -0.22947  -0.22733  -0.18495
  Beta  occ. eigenvalues --   -0.18101  -0.17708  -0.17114  -0.16933  -0.13991
  Beta  occ. eigenvalues --   -0.11857  -0.11518  -0.09302
  Beta virt. eigenvalues --    0.07131   0.07762   0.08028   0.08766   0.09040
  Beta virt. eigenvalues --    0.09301   0.09495   0.09539   0.10053   0.10240
  Beta virt. eigenvalues --    0.10425   0.11495   0.11705   0.11821   0.12211

 Mulliken charges and spin densities:
               1          2
     1  C    1.340780  -1.795615
     2  C    0.074672   0.382942
     3  N    0.120113   0.121978
     4  C   -1.378576   0.342842
     5  N    0.078955   0.064033
     6  C    0.408861  -0.398492
     7  C   -0.500040   0.455758
     8  C    0.248478  -0.161984
     9  C   -0.440128   0.006987
    10  C   -0.414110  -0.054845
    11  C   -0.134397  -0.042813
    12  N    0.356777  -0.002260
    13  C   -0.745905  -0.024529
    14  N   -0.116992   0.068885
    15  C   -0.023075   0.161441
    16  C   -0.162412  -0.165729
    17  C    0.133008   0.071192
    18  N   -0.007763   0.062179
    19  C   -0.448209  -0.046538
    20  H    0.083222   0.055774
    21  H    0.022191   0.110238
    22  H   -0.256428   0.421093
    23  H    0.012525   0.120982
    24  H   -0.678898   0.853826
    25  H    0.115600   0.024346
    26  H    0.161048   0.025202
    27  H    0.142458   0.018193
    28  H    0.111276   0.001359
    29  H    0.145107   0.015284
    30  H    0.190317  -0.004245
    31  H    0.110606   0.034033
    32  H    0.017258   0.112484
    33  H    0.020756   0.129149
    34  H    0.117630   0.048825
    35  H    0.177965  -0.013840
    36  H    0.117327   0.001866
 Sum of Mulliken charges =  -1.00000   1.00000

 Dipole moment (field-independent basis, Debye):
    X=              3.5016    Y=              6.1134    Z=             -0.5794  Tot=              7.0690
 Quadrupole moment (field-independent basis, Debye-Ang):
   XX=           -168.0251   YY=           -141.5171   ZZ=           -134.8136
   XY=            -10.4673   XZ=             -0.1558   YZ=              1.2921

 Summary of Natural Population Analysis:

                                       Natural Population
                Natural  -----------------------------------------------
    Atom  No    Charge         Core      Valence    Rydberg      Total
 -----------------------------------------------------------------------
      C    1   -0.30265      0.99963     2.29726    0.00575     3.30265
      C    2    0.15898      0.99955     1.82798    0.01349     2.84102
      N    3   -0.24567      0.99964     2.73558    0.01046     3.74567
      C    4    0.22915      0.99953     1.74987    0.02145     2.77085
      N    5   -0.24968      0.99966     2.73993    0.01008     3.74968
      C    6    0.07823      0.99959     1.90734    0.01485     2.92177
      C    7   -0.16177      0.99950     2.15315    0.00912     3.16177
      C    8    0.06130      0.99953     1.92300    0.01617     2.93870
      C    9   -0.18534      0.99960     2.17795    0.00780     3.18534
      C   10   -0.19504      0.99963     2.18826    0.00715     3.19504
      C   11   -0.07726      0.99964     2.06876    0.00886     3.07726
      N   12   -0.25010      0.99960     2.73915    0.01135     3.75010
      C   13    0.31036      0.99957     1.67078    0.01929     2.68964
      N   14   -0.26021      0.99968     2.75108    0.00945     3.76021
      C   15    0.07363      0.99961     1.91179    0.01496     2.92637
      C   16   -0.18991      0.99956     2.18193    0.00842     3.18991
      C   17    0.07911      0.99960     1.90529    0.01601     2.92089
      N   18   -0.25630      0.99968     2.74576    0.01086     3.75630
      C   19   -0.28891      0.99962     2.28304    0.00625     3.28891
      H   20    0.10065      0.00000     0.39846    0.00088     0.39935
      H   21    0.10611      0.00000     0.39273    0.00116     0.39389
      H   22    0.10835      0.00000     0.38900    0.00265     0.39165
      H   23    0.08375      0.00000     0.41521    0.00104     0.41625
      H   24    0.10231      0.00000     0.39628    0.00140     0.39769
      H   25    0.09983      0.00000     0.39928    0.00090     0.40017
      H   26    0.10690      0.00000     0.39193    0.00117     0.39310
      H   27    0.09682      0.00000     0.40168    0.00150     0.40318
      H   28    0.09344      0.00000     0.40534    0.00123     0.40656
      H   29    0.09360      0.00000     0.40464    0.00176     0.40640
      H   30    0.10217      0.00000     0.39646    0.00137     0.39783
      H   31    0.08077      0.00000     0.41814    0.00109     0.41923
      H   32    0.09990      0.00000     0.39926    0.00083     0.40010
      H   33    0.08534      0.00000     0.41367    0.00099     0.41466
      H   34    0.11679      0.00000     0.38215    0.00106     0.38321
      H   35    0.10499      0.00000     0.39410    0.00091     0.39501
      H   36    0.09038      0.00000     0.40859    0.00103     0.40962
 =======================================================================
   * Total *   -0.00000     18.99242    48.76482    0.24276    68.00000

 Normal termination of Gaussian 16 at Mon Dec 14 15:00:03 2020.
