 Gaussian 16, Revision A.03,

 -----------------------------------------------------------
 # opt freq B3LYP/6-31G(d) empiricaldispersion=gd3bj scf=xqc
 -----------------------------------------------------------

 ------------------------------
 CID_84716376_JID_1027_neutraal
 ------------------------------
 Symbolic Z-matrix:
 Charge =  0 Multiplicity = 1

 SCF Done:  E(RB3LYP) =  -510.410164816     A.U. after   16 cycles
 SCF Done:  E(RB3LYP) =  -510.425606240     A.U. after   14 cycles
 SCF Done:  E(RB3LYP) =  -510.428076127     A.U. after   14 cycles
 SCF Done:  E(RB3LYP) =  -510.428598589     A.U. after   13 cycles
 SCF Done:  E(RB3LYP) =  -510.428785208     A.U. after   13 cycles
 SCF Done:  E(RB3LYP) =  -510.428951701     A.U. after   11 cycles
 SCF Done:  E(RB3LYP) =  -510.428988576     A.U. after   10 cycles
 SCF Done:  E(RB3LYP) =  -510.428996626     A.U. after    9 cycles
 SCF Done:  E(RB3LYP) =  -510.429004526     A.U. after    9 cycles
 SCF Done:  E(RB3LYP) =  -510.429007812     A.U. after    9 cycles
 SCF Done:  E(RB3LYP) =  -510.429009926     A.U. after    8 cycles
 SCF Done:  E(RB3LYP) =  -510.429010093     A.U. after    7 cycles
 SCF Done:  E(RB3LYP) =  -510.429010227     A.U. after    7 cycles
 SCF Done:  E(RB3LYP) =  -510.429010350     A.U. after    7 cycles
 SCF Done:  E(RB3LYP) =  -510.429010465     A.U. after    7 cycles
 SCF Done:  E(RB3LYP) =  -510.429010543     A.U. after    7 cycles
 Optimization completed.
    -- Stationary point found.
 Normal termination of Gaussian 16 at Tue Dec  8 19:11:06 2020.

 --------------------------------------------------------------------
 #N Geom=AllCheck Guess=TCheck SCRF=Check GenChk RB3LYP/6-31G(d) Freq
 --------------------------------------------------------------------

 Structure from the checkpoint file:  "JID_1027.chk"
 ------------------------------
 CID_84716376_JID_1027_neutraal
 ------------------------------
 Charge =  0 Multiplicity = 1

 SCF Done:  E(RB3LYP) =  -510.429010543     A.U. after    1 cycles

  Exact polarizability: 164.351  -1.272  90.582  -0.007   0.918  40.898
 Approx polarizability: 279.292 -11.106 160.565   0.484   0.592  62.801

                      1                      2                      3
                      A                      A                      A
 Frequencies --     83.2223                97.6616               177.6255
 Red. masses --      1.3802                 2.3286                 4.6894
 Frc consts  --      0.0056                 0.0131                 0.0872
 IR Inten    --      0.2761                 2.0611                 1.1273

                      4                      5                      6
                      A                      A                      A
 Frequencies --    242.8856               264.9525               329.5035
 Red. masses --      3.7492                 3.3666                 5.6531
 Frc consts  --      0.1303                 0.1392                 0.3616
 IR Inten    --      0.3669                 3.1805                 3.2614

                      7                      8                      9
                      A                      A                      A
 Frequencies --    372.5841               403.9793               461.0227
 Red. masses --      4.4875                 4.6506                 3.4103
 Frc consts  --      0.3670                 0.4472                 0.4271
 IR Inten    --      1.3706                 2.1166                23.3419

                     10                     11                     12
                      A                      A                      A
 Frequencies --    485.5751               547.0234               558.9821
 Red. masses --      1.9478                 2.9441                 4.0981
 Frc consts  --      0.2706                 0.5191                 0.7544
 IR Inten    --     77.9992                36.9684                 9.9888

                     13                     14                     15
                      A                      A                      A
 Frequencies --    599.2575               699.2749               709.1824
 Red. masses --      7.5033                 7.9161                 1.6978
 Frc consts  --      1.5876                 2.2806                 0.5031
 IR Inten    --      0.3415                 2.9022                 7.4071

                     16                     17                     18
                      A                      A                      A
 Frequencies --    732.3775               743.8867               774.7989
 Red. masses --      6.7090                 4.9974                 3.0995
 Frc consts  --      2.1202                 1.6293                 1.0963
 IR Inten    --      6.5082                29.4671                55.4101

                     19                     20                     21
                      A                      A                      A
 Frequencies --    867.2985               884.4445               931.0571
 Red. masses --      2.8003                 1.4746                 3.3868
 Frc consts  --      1.2411                 0.6796                 1.7298
 IR Inten    --      9.6369                15.6100                64.2999

                     22                     23                     24
                      A                      A                      A
 Frequencies --    971.3359               992.7886              1040.0297
 Red. masses --      1.3671                 2.7097                 1.8230
 Frc consts  --      0.7600                 1.5736                 1.1618
 IR Inten    --      0.1693                19.6794                 8.2352

                     25                     26                     27
                      A                      A                      A
 Frequencies --   1080.1350              1115.4312              1189.3795
 Red. masses --      1.4425                 3.3361                 3.7989
 Frc consts  --      0.9916                 2.4455                 3.1663
 IR Inten    --      3.0075                 0.0390                10.0397

                     28                     29                     30
                      A                      A                      A
 Frequencies --   1207.7856              1272.2695              1306.9594
 Red. masses --      1.9503                 2.3690                 2.6758
 Frc consts  --      1.6762                 2.2593                 2.6930
 IR Inten    --      9.2029                11.5928                36.0211

                     31                     32                     33
                      A                      A                      A
 Frequencies --   1329.4163              1394.3478              1440.9663
 Red. masses --      1.9283                 1.5996                 2.3267
 Frc consts  --      2.0079                 1.8323                 2.8464
 IR Inten    --      7.4911                20.1430                 9.0668

                     34                     35                     36
                      A                      A                      A
 Frequencies --   1451.5806              1485.6706              1510.7930
 Red. masses --      1.2454                 4.1959                 1.0426
 Frc consts  --      1.5462                 5.4566                 1.4021
 IR Inten    --     10.0410                13.4632                 6.4346

                     37                     38                     39
                      A                      A                      A
 Frequencies --   1524.7320              1563.1564              1624.8335
 Red. masses --      1.2649                 3.3844                 6.1702
 Frc consts  --      1.7325                 4.8723                 9.5977
 IR Inten    --     20.7592               155.0900               184.9266

                     40                     41                     42
                      A                      A                      A
 Frequencies --   1705.8083              1829.5533              3045.3189
 Red. masses --      7.0354                11.0146                 1.0370
 Frc consts  --     12.0615                21.7225                 5.6663
 IR Inten    --    397.9205               737.2829                42.7644

                     43                     44                     45
                      A                      A                      A
 Frequencies --   3098.1749              3126.0236              3157.7373
 Red. masses --      1.1017                 1.1012                 1.0903
 Frc consts  --      6.2307                 6.3399                 6.4055
 IR Inten    --     16.7102                13.2266                26.7635

                     46                     47                     48
                      A                      A                      A
 Frequencies --   3223.9648              3311.4806              3564.9879
 Red. masses --      1.0934                 1.0968                 1.0782
 Frc consts  --      6.6961                 7.0863                 8.0736
 IR Inten    --      2.7953                 1.7146                28.2943

 - Thermochemistry -
 -------------------
 Temperature   298.150 Kelvin.  Pressure   1.00000 Atm.
 Atom     1 has atomic number  6 and mass  12.00000

 Molecular mass:   149.05891 amu.
 Principal axes and moments of inertia in atomic units:
                           1         2         3
     Eigenvalues --   539.408682432.902802957.53071
           X            0.99985   0.01717  -0.00066
           Y           -0.01716   0.99984   0.00534
           Z            0.00075  -0.00533   0.99999
 This molecule is an asymmetric top.
 Rotational symmetry number  1.
 Warning -- assumption of classical behavior for rotation
           may cause significant error
 Rotational temperatures (Kelvin)      0.16057     0.03560     0.02929
 Rotational constants (GHZ):           3.34578     0.74181     0.61022
 Zero-point vibrational energy     362057.3 (Joules/Mol)
                                   86.53377 (Kcal/Mol)
 Warning -- explicit consideration of  13 degrees of freedom as
           vibrations may cause significant error
 Vibrational temperatures:    119.74   140.51   255.56   349.46   381.21
          (Kelvin)            474.08   536.07   581.24   663.31   698.63
                              787.04   804.25   862.20  1006.10  1020.36
                             1053.73  1070.29  1114.76  1247.85  1272.52
                             1339.58  1397.54  1428.40  1496.37  1554.07
                             1604.86  1711.25  1737.73  1830.51  1880.42
                             1912.73  2006.16  2073.23  2088.50  2137.55
                             2173.69  2193.75  2249.03  2337.77  2454.28
                             2632.32  4381.53  4457.58  4497.65  4543.28
                             4638.57  4764.48  5129.22

 Zero-point correction=                           0.137900 (Hartree/Particle)
 Thermal correction to Energy=                    0.146794
 Thermal correction to Enthalpy=                  0.147738
 Thermal correction to Gibbs Free Energy=         0.103808
 Sum of electronic and zero-point Energies=           -510.291110
 Sum of electronic and thermal Energies=              -510.282217
 Sum of electronic and thermal Enthalpies=            -510.281272
 Sum of electronic and thermal Free Energies=         -510.325203

                     E (Thermal)             CV                S
                      KCal/Mol        Cal/Mol-Kelvin    Cal/Mol-Kelvin
 Total                   92.115             34.381             92.460
 Electronic               0.000              0.000              0.000
 Translational            0.889              2.981             40.908
 Rotational               0.889              2.981             29.741
 Vibrational             90.337             28.419             21.811
 Vibration     1          0.600              1.961              3.813
 Vibration     2          0.603              1.951              3.500
 Vibration     3          0.628              1.870              2.353
 Vibration     4          0.659              1.775              1.782
 Vibration     5          0.671              1.737              1.629
 Vibration     6          0.712              1.617              1.263
 Vibration     7          0.744              1.528              1.069
 Vibration     8          0.769              1.462              0.948
 Vibration     9          0.819              1.337              0.763
 Vibration    10          0.842              1.282              0.695
 Vibration    11          0.902              1.146              0.550
 Vibration    12          0.915              1.120              0.526
 Vibration    13          0.957              1.033              0.451

 Optimization completed.
    -- Stationary point found.
 Normal termination of Gaussian 16 at Tue Dec  8 19:14:07 2020.

 ----------------------------------------------------------------------
 # B3LYP/6-311++G(d,p) empiricaldispersion=gd3bj scf=xqc pop=npa geom=c
 heck
 ----------------------------------------------------------------------

 --------------------------------------
 CID_84716376_JID_1027_Energie_neutraal
 --------------------------------------
 Structure from the checkpoint file:  "JID_1027.chk"
 Charge =  0 Multiplicity = 1

 SCF Done:  E(RB3LYP) =  -510.570668664     A.U. after   17 cycles
 Normal termination of Gaussian 16 at Tue Dec  8 19:15:07 2020.

 ----------------------------------------------------------------------
 # B3LYP/6-311++G(d,p) empiricaldispersion=gd3bj scf=xqc pop=npa geom=c
 heck
 ----------------------------------------------------------------------

 ------------------------------------
 CID_84716376_JID_1027_Energie_kation
 ------------------------------------
 Structure from the checkpoint file:  "JID_1027.chk"
 Charge =  1 Multiplicity = 2

 SCF Done:  E(UB3LYP) =  -510.287891367     A.U. after   21 cycles
 Normal termination of Gaussian 16 at Tue Dec  8 19:16:57 2020.
 Gaussian 16:  ES64L-G16RevA.03 25-Dec-2016

 ----------------------------------------------------------------------
 # B3LYP/6-311++G(d,p) empiricaldispersion=gd3bj scf=xqc pop=npa geom=c
 heck
 ----------------------------------------------------------------------

 -----------------------------------
 CID_84716376_JID_1027_Energie_anion
 -----------------------------------
 Structure from the checkpoint file:  "JID_1027.chk"
 Charge = -1 Multiplicity = 2

                         Standard orientation:
 ---------------------------------------------------------------------
 Center     Atomic      Atomic             Coordinates (Angstroms)
 Number     Number       Type             X           Y           Z
 ---------------------------------------------------------------------
      1          6           0       -3.547340   -0.754323   -0.002830
      2          6           0       -2.138598   -0.225686   -0.004336
      3          6           0       -1.040390   -1.054019    0.019362
      4          7           0        0.189436   -0.505477   -0.023659
      5          6           0        0.408593    0.886373   -0.001640
      6          6           0        1.762832    1.121560    0.043522
      7          6           0        2.457523   -0.137598    0.020237
      8          8           0        3.630100   -0.461374   -0.056594
      9          7           0        1.405822   -1.147749    0.115425
     10          7           0       -0.665250    1.719782   -0.012764
     11          6           0       -1.860831    1.174363   -0.023415
     12          1           0       -3.559788   -1.847086    0.057231
     13          1           0       -4.086962   -0.466176   -0.913298
     14          1           0       -4.118959   -0.368718    0.849722
     15          1           0       -1.092849   -2.137045    0.058757
     16          1           0        2.236059    2.089671    0.039145
     17          1           0        1.521363   -1.979356   -0.456316
     18          1           0       -2.700459    1.869786   -0.040899
 ---------------------------------------------------------------------

 SCF Done:  E(UB3LYP) =  -510.589670596     A.U. after   25 cycles

 The electronic state is 2-A.
 Alpha  occ. eigenvalues --  -18.93286 -14.23703 -14.22092 -14.13130 -10.11521
 Alpha  occ. eigenvalues --  -10.09122 -10.05689 -10.05369 -10.03371 -10.03235
 Alpha  occ. eigenvalues --  -10.00114  -0.91936  -0.86953  -0.77889  -0.70494
 Alpha  occ. eigenvalues --   -0.65873  -0.62821  -0.54957  -0.51274  -0.47175
 Alpha  occ. eigenvalues --   -0.43872  -0.41121  -0.36340  -0.35409  -0.32828
 Alpha  occ. eigenvalues --   -0.30415  -0.29480  -0.28790  -0.27273  -0.27037
 Alpha  occ. eigenvalues --   -0.26222  -0.24125  -0.23842  -0.20524  -0.14955
 Alpha  occ. eigenvalues --   -0.12204  -0.11203  -0.10358  -0.05033   0.04505
 Alpha virt. eigenvalues --    0.08226   0.09856   0.10962   0.11592   0.12425
 Alpha virt. eigenvalues --    0.12663   0.14120   0.14740   0.16047   0.16402
 Alpha virt. eigenvalues --    0.17147   0.18520   0.18670   0.19446   0.20004

  Beta  occ. eigenvalues --  -18.93304 -14.23226 -14.22047 -14.12747 -10.11531
  Beta  occ. eigenvalues --  -10.09156 -10.05357 -10.05212 -10.03529 -10.02773
  Beta  occ. eigenvalues --  -10.00105  -0.91485  -0.86825  -0.77269  -0.69916
  Beta  occ. eigenvalues --   -0.65594  -0.62767  -0.54613  -0.50318  -0.47005
  Beta  occ. eigenvalues --   -0.43731  -0.40737  -0.35961  -0.35067  -0.32044
  Beta  occ. eigenvalues --   -0.30269  -0.29233  -0.28617  -0.27158  -0.26893
  Beta  occ. eigenvalues --   -0.26090  -0.23853  -0.23250  -0.18774  -0.13778
  Beta  occ. eigenvalues --   -0.11568  -0.10454  -0.09682  -0.04300
  Beta virt. eigenvalues --    0.08162   0.09829   0.10901   0.11551   0.11605
  Beta virt. eigenvalues --    0.12433   0.12777   0.14461   0.14702   0.16037
  Beta virt. eigenvalues --    0.16563   0.17155   0.18617   0.19088   0.19455

 Mulliken charges and spin densities:
               1          2
     1  C   -0.824332   0.034181
     2  C    0.346647  -0.092773
     3  C   -0.353010   0.496981
     4  N    0.215074   0.092148
     5  C   -0.396189  -0.000827
     6  C    0.174327   0.001321
     7  C   -0.253188  -0.010905
     8  O   -0.462451  -0.005918
     9  N   -0.190650   0.026724
    10  N   -0.165090   0.164920
    11  C   -0.064789   0.321183
    12  H    0.124658  -0.001101
    13  H    0.127521  -0.004924
    14  H    0.121811   0.001750
    15  H    0.122235  -0.038752
    16  H    0.136202  -0.000045
    17  H    0.206543   0.047823
    18  H    0.134678  -0.031787
 Sum of Mulliken charges =  -1.00000   1.00000

 Dipole moment (field-independent basis, Debye):
    X=             -4.7000    Y=             -2.5590    Z=             -0.4797  Tot=              5.3729
 Quadrupole moment (field-independent basis, Debye-Ang):
   XX=           -105.3486   YY=            -77.0557   ZZ=            -72.6782
   XY=              4.8073   XZ=             -0.9649   YZ=              1.0952

 Summary of Natural Population Analysis:

                                       Natural Population
                Natural  -----------------------------------------------
    Atom  No    Charge         Core      Valence    Rydberg      Total
 -----------------------------------------------------------------------
      C    1   -0.28262      0.99965     2.27780    0.00518     3.28262
      C    2   -0.11233      0.99953     2.10511    0.00769     3.11233
      C    3    0.12034      0.99952     1.86854    0.01160     2.87966
      N    4   -0.04914      0.99959     2.54067    0.00888     3.54914
      C    5    0.19663      0.99955     1.78763    0.01618     2.80337
      C    6   -0.23481      0.99946     2.22563    0.00972     3.23481
      C    7    0.29904      0.99967     1.67831    0.02298     2.70096
      O    8   -0.35606      0.99987     3.34901    0.00718     4.35606
      N    9   -0.22856      0.99971     2.71490    0.01395     3.72856
      N   10   -0.21632      0.99967     2.70109    0.01556     3.71632
      C   11    0.13266      0.99957     1.85337    0.01439     2.86734
      H   12    0.09497      0.00000     0.40408    0.00095     0.40503
      H   13    0.09311      0.00000     0.40559    0.00130     0.40689
      H   14    0.09373      0.00000     0.40504    0.00123     0.40627
      H   15    0.08663      0.00000     0.41252    0.00085     0.41337
      H   16    0.10602      0.00000     0.39307    0.00091     0.39398
      H   17    0.18690      0.00000     0.31060    0.00251     0.31310
      H   18    0.06978      0.00000     0.42876    0.00146     0.43022
 =======================================================================
   * Total *   -0.00000     10.99577    27.86172    0.14251    39.00000

 Normal termination of Gaussian 16 at Tue Dec  8 19:19:03 2020.
