 Gaussian 16, Revision A.03,

 -----------------------------------------------------------
 # opt freq B3LYP/6-31G(d) empiricaldispersion=gd3bj scf=xqc
 -----------------------------------------------------------

 -------------------------------
 CID_154119126_JID_2572_neutraal
 -------------------------------
 Symbolic Z-matrix:
 Charge =  0 Multiplicity = 1

 SCF Done:  E(RB3LYP) =  -577.019905965     A.U. after   13 cycles
 SCF Done:  E(RB3LYP) =  -577.023027084     A.U. after   12 cycles
 SCF Done:  E(RB3LYP) =  -577.023741320     A.U. after   11 cycles
 SCF Done:  E(RB3LYP) =  -577.024283375     A.U. after   12 cycles
 SCF Done:  E(RB3LYP) =  -577.024495398     A.U. after   12 cycles
 SCF Done:  E(RB3LYP) =  -577.025028748     A.U. after   12 cycles
 SCF Done:  E(RB3LYP) =  -577.025286937     A.U. after   12 cycles
 SCF Done:  E(RB3LYP) =  -577.025397785     A.U. after   11 cycles
 SCF Done:  E(RB3LYP) =  -577.025675711     A.U. after   12 cycles
 SCF Done:  E(RB3LYP) =  -577.025684800     A.U. after   11 cycles
 SCF Done:  E(RB3LYP) =  -577.026785714     A.U. after   10 cycles
 SCF Done:  E(RB3LYP) =  -577.026787279     A.U. after    9 cycles
 SCF Done:  E(RB3LYP) =  -577.026787924     A.U. after    8 cycles
 SCF Done:  E(RB3LYP) =  -577.026788203     A.U. after    8 cycles
 SCF Done:  E(RB3LYP) =  -577.026788312     A.U. after    7 cycles
 SCF Done:  E(RB3LYP) =  -577.026788333     A.U. after    6 cycles
 Optimization completed.
    -- Stationary point found.

 1\1\GINC-NODE226\FOpt\RB3LYP\6-31G(d)\C9H14O3\VSC10255\09-Dec-2020\0\\
 # opt freq B3LYP/6-31G(d) empiricaldispersion=gd3bj scf=xqc\\CID_15411
 9126_JID_2572_neutraal\\0,1\C,0.9157859122,0.0114690832,-0.1690067654\
 C,0.2646943198,0.2322547518,1.1689528558\C,-0.394979948,-0.7305708127,
 1.8158341797\C,-1.040361212,-0.5578209488,3.1541787749\C,-0.9787432618
 ,0.8563692438,3.6777909203\C,-0.3420129828,1.8449253184,3.0331384242\C
 ,0.4067921955,1.6158072307,1.7483044931\O,-0.4203296482,3.1595922251,3
 .4653487291\C,0.823069918,3.790357574,3.7469147728\O,-1.698488813,0.91

 Normal termination of Gaussian 16 at Wed Dec  9 18:11:04 2020.

 --------------------------------------------------------------------
 #N Geom=AllCheck Guess=TCheck SCRF=Check GenChk RB3LYP/6-31G(d) Freq
 --------------------------------------------------------------------

 Structure from the checkpoint file:  "JID_2572.chk"
 -------------------------------
 CID_154119126_JID_2572_neutraal
 -------------------------------
 Charge =  0 Multiplicity = 1

 SCF Done:  E(RB3LYP) =  -577.026788333     A.U. after    1 cycles

  Exact polarizability: 115.716   6.066 125.339  -0.962  -4.536  67.963
 Approx polarizability: 137.801  10.132 197.086  -1.134 -10.627 105.541

                      1                      2                      3
                      A                      A                      A
 Frequencies --     23.2014                69.9246                76.2003
 Red. masses --      2.8902                 3.7532                 2.5316
 Frc consts  --      0.0009                 0.0108                 0.0087
 IR Inten    --      2.7593                 1.6672                 2.6676

                      4                      5                      6
                      A                      A                      A
 Frequencies --    112.4384               143.7941               178.9320
 Red. masses --      2.4589                 2.0781                 1.2884
 Frc consts  --      0.0183                 0.0253                 0.0243
 IR Inten    --      0.3839                 0.8014                 0.3853

                      7                      8                      9
                      A                      A                      A
 Frequencies --    195.1949               213.4580               242.4015
 Red. masses --      1.3441                 2.3757                 2.2666
 Frc consts  --      0.0302                 0.0638                 0.0785
 IR Inten    --      0.3262                 1.4023                 1.8076

                     10                     11                     12
                      A                      A                      A
 Frequencies --    252.6116               277.4979               327.0735
 Red. masses --      1.5187                 2.7343                 3.9108
 Frc consts  --      0.0571                 0.1241                 0.2465
 IR Inten    --      2.4068                 6.4852                 4.2347

                     13                     14                     15
                      A                      A                      A
 Frequencies --    353.6623               386.0600               399.8914
 Red. masses --      3.6868                 2.7354                 1.4426
 Frc consts  --      0.2717                 0.2402                 0.1359
 IR Inten    --      7.6958                43.5347                73.1952

                     16                     17                     18
                      A                      A                      A
 Frequencies --    416.7226               437.7018               482.8628
 Red. masses --      2.6241                 4.9816                 3.6118
 Frc consts  --      0.2685                 0.5623                 0.4962
 IR Inten    --     18.4020                 6.9104                 5.0425

                     19                     20                     21
                      A                      A                      A
 Frequencies --    546.4054               590.0338               629.0084
 Red. masses --      4.9374                 4.2584                 4.3047
 Frc consts  --      0.8685                 0.8735                 1.0035
 IR Inten    --      8.7036                 3.5171                 1.3019

                     22                     23                     24
                      A                      A                      A
 Frequencies --    730.1997               764.2439               876.0278
 Red. masses --      4.1172                 3.3131                 1.7783
 Frc consts  --      1.2934                 1.1401                 0.8041
 IR Inten    --     14.2830                10.8409                19.6874

                     25                     26                     27
                      A                      A                      A
 Frequencies --    907.0507               976.2648               980.6757
 Red. masses --      3.7527                 2.2187                 1.6438
 Frc consts  --      1.8191                 1.2459                 0.9314
 IR Inten    --      5.3238                 2.5459                 4.7010

                     28                     29                     30
                      A                      A                      A
 Frequencies --   1024.9845              1030.5324              1055.9901
 Red. masses --      5.0750                 2.9485                 5.7218
 Frc consts  --      3.1414                 1.8449                 3.7592
 IR Inten    --     20.0319                15.9309               147.0040

                     31                     32                     33
                      A                      A                      A
 Frequencies --   1082.7747              1104.7853              1141.4254
 Red. masses --      1.5483                 1.8248                 3.8048
 Frc consts  --      1.0695                 1.3123                 2.9206
 IR Inten    --      1.3960                11.4969               108.4394

                     34                     35                     36
                      A                      A                      A
 Frequencies --   1181.3166              1183.9591              1184.7453
 Red. masses --      1.7390                 1.3064                 1.2781
 Frc consts  --      1.4299                 1.0789                 1.0569
 IR Inten    --     48.5221                 9.6186                 5.2015

                     37                     38                     39
                      A                      A                      A
 Frequencies --   1206.1406              1238.5832              1242.6059
 Red. masses --      1.9671                 1.5585                 1.2183
 Frc consts  --      1.6861                 1.4086                 1.1084
 IR Inten    --      3.7524                16.9152                 3.0719

                     40                     41                     42
                      A                      A                      A
 Frequencies --   1258.9013              1261.6787              1275.0914
 Red. masses --      1.4581                 1.8466                 3.2820
 Frc consts  --      1.3615                 1.7319                 3.1439
 IR Inten    --    131.7209               112.3258               126.2804

                     43                     44                     45
                      A                      A                      A
 Frequencies --   1348.3632              1384.5091              1412.9964
 Red. masses --      1.4489                 1.3910                 2.1542
 Frc consts  --      1.5521                 1.5710                 2.5341
 IR Inten    --      0.0885                34.2656                 4.3881

                     46                     47                     48
                      A                      A                      A
 Frequencies --   1442.0153              1464.2574              1497.9200
 Red. masses --      1.2906                 1.9515                 1.1481
 Frc consts  --      1.5812                 2.4652                 1.5178
 IR Inten    --      1.8677                56.7172                 1.1640

                     49                     50                     51
                      A                      A                      A
 Frequencies --   1503.0710              1508.2357              1508.9212
 Red. masses --      1.1149                 1.1391                 1.0500
 Frc consts  --      1.4840                 1.5266                 1.4085
 IR Inten    --      1.1961                 3.6387                 7.3697

                     52                     53                     54
                      A                      A                      A
 Frequencies --   1516.4615              1520.5123              1522.8349
 Red. masses --      1.0594                 1.0618                 1.0766
 Frc consts  --      1.4355                 1.4463                 1.4709
 IR Inten    --      6.1979                 6.1362                 3.0462

                     55                     56                     57
                      A                      A                      A
 Frequencies --   1530.9103              1536.4231              1762.6861
 Red. masses --      1.0455                 1.0503                 7.6648
 Frc consts  --      1.4436                 1.4608                14.0315
 IR Inten    --     16.2621                11.4571                29.6140

                     58                     59                     60
                      A                      A                      A
 Frequencies --   1790.0855              2937.4555              2982.6532
 Red. masses --      8.4395                 1.0805                 1.0673
 Frc consts  --     15.9337                 5.4933                 5.5943
 IR Inten    --     21.9247                71.1429                32.1115

                     61                     62                     63
                      A                      A                      A
 Frequencies --   3009.0937              3019.5828              3029.9634
 Red. masses --      1.0879                 1.0385                 1.0392
 Frc consts  --      5.8036                 5.5791                 5.6212
 IR Inten    --     20.9579                63.8878                42.9506

                     64                     65                     66
                      A                      A                      A
 Frequencies --   3047.9970              3074.7670              3080.5311
 Red. masses --      1.0370                 1.0996                 1.1028
 Frc consts  --      5.6762                 6.1252                 6.1662
 IR Inten    --     58.0733                27.2084                51.4568

                     67                     68                     69
                      A                      A                      A
 Frequencies --   3128.6073              3129.2208              3145.2028
 Red. masses --      1.0971                 1.0993                 1.1001
 Frc consts  --      6.3267                 6.3420                 6.4117
 IR Inten    --     42.4404                20.1093                30.1073

                     70                     71                     72
                      A                      A                      A
 Frequencies --   3160.3418              3181.8151              3726.3607
 Red. masses --      1.1075                 1.0902                 1.0652
 Frc consts  --      6.5170                 6.5031                 8.7146
 IR Inten    --     20.3885                19.0568                24.8534

 - Thermochemistry -
 -------------------
 Temperature   298.150 Kelvin.  Pressure   1.00000 Atm.
 Atom     1 has atomic number  6 and mass  12.00000

 Molecular mass:   170.09429 amu.
 Principal axes and moments of inertia in atomic units:
                           1         2         3
     Eigenvalues --  1545.607082204.819083584.69608
           X            0.99966   0.02549  -0.00468
           Y           -0.02548   0.99967   0.00088
           Z            0.00470  -0.00076   0.99999
 This molecule is an asymmetric top.
 Rotational symmetry number  1.
 Warning -- assumption of classical behavior for rotation
           may cause significant error
 Rotational temperatures (Kelvin)      0.05604     0.03928     0.02416
 Rotational constants (GHZ):           1.16766     0.81854     0.50346
 Zero-point vibrational energy     579990.6 (Joules/Mol)
                                  138.62107 (Kcal/Mol)
 Warning -- explicit consideration of  20 degrees of freedom as
           vibrations may cause significant error
 Vibrational temperatures:     33.38   100.61   109.64   161.77   206.89
          (Kelvin)            257.44   280.84   307.12   348.76   363.45
                              399.26   470.59   508.84   555.45   575.35
                              599.57   629.76   694.73   786.16   848.93
                              905.00  1050.59  1099.58  1260.41  1305.04
                             1404.63  1410.97  1474.72  1482.71  1519.33
                             1557.87  1589.54  1642.26  1699.65  1703.45
                             1704.58  1735.37  1782.04  1787.83  1811.28
                             1815.27  1834.57  1939.99  1992.00  2032.99
                             2074.74  2106.74  2155.17  2162.58  2170.01
                             2171.00  2181.85  2187.68  2191.02  2202.64
                             2210.57  2536.11  2575.53  4226.34  4291.37
                             4329.41  4344.51  4359.44  4385.39  4423.90
                             4432.20  4501.37  4502.25  4525.25  4547.03
                             4577.92  5361.40

 Zero-point correction=                           0.220907 (Hartree/Particle)
 Thermal correction to Energy=                    0.234156
 Thermal correction to Enthalpy=                  0.235101
 Thermal correction to Gibbs Free Energy=         0.180726
 Sum of electronic and zero-point Energies=           -576.805882
 Sum of electronic and thermal Energies=              -576.792632
 Sum of electronic and thermal Enthalpies=            -576.791688
 Sum of electronic and thermal Free Energies=         -576.846063

                     E (Thermal)             CV                S
                      KCal/Mol        Cal/Mol-Kelvin    Cal/Mol-Kelvin
 Total                  146.935             48.014            114.441
 Electronic               0.000              0.000              0.000
 Translational            0.889              2.981             41.301
 Rotational               0.889              2.981             30.880
 Vibrational            145.158             42.052             42.260
 Vibration     1          0.593              1.985              6.339
 Vibration     2          0.598              1.968              4.155
 Vibration     3          0.599              1.965              3.986
 Vibration     4          0.607              1.939              3.226
 Vibration     5          0.616              1.909              2.753
 Vibration     6          0.629              1.868              2.340
 Vibration     7          0.636              1.847              2.178
 Vibration     8          0.644              1.820              2.014
 Vibration     9          0.659              1.775              1.785
 Vibration    10          0.664              1.758              1.712
 Vibration    11          0.678              1.715              1.549
 Vibration    12          0.711              1.621              1.275
 Vibration    13          0.730              1.568              1.150
 Vibration    14          0.755              1.500              1.015
 Vibration    15          0.766              1.470              0.963
 Vibration    16          0.780              1.434              0.903
 Vibration    17          0.798              1.388              0.834
 Vibration    18          0.839              1.288              0.702
 Vibration    19          0.902              1.148              0.552
 Vibration    20          0.947              1.053              0.467

 Optimization completed.
    -- Stationary point found.

 1\1\GINC-NODE226\Freq\RB3LYP\6-31G(d)\C9H14O3\VSC10255\09-Dec-2020\0\\
 #N Geom=AllCheck Guess=TCheck SCRF=Check GenChk RB3LYP/6-31G(d) Freq\\
 CID_154119126_JID_2572_neutraal\\0,1\C,0.9157859122,0.0114690832,-0.16
 90067654\C,0.2646943198,0.2322547518,1.1689528558\C,-0.394979948,-0.73
 05708127,1.8158341797\C,-1.040361212,-0.5578209488,3.1541787749\C,-0.9
 787432618,0.8563692438,3.6777909203\C,-0.3420129828,1.8449253184,3.033
 1384242\C,0.4067921955,1.6158072307,1.7483044931\O,-0.4203296482,3.159
 5922251,3.4653487291\C,0.823069918,3.790357574,3.7469147728\O,-1.69848

 Normal termination of Gaussian 16 at Wed Dec  9 18:17:10 2020.

 ----------------------------------------------------------------------
 # B3LYP/6-311++G(d,p) empiricaldispersion=gd3bj scf=xqc pop=npa geom=c
 heck
 ----------------------------------------------------------------------

 ---------------------------------------
 CID_154119126_JID_2572_Energie_neutraal
 ---------------------------------------
 Structure from the checkpoint file:  "JID_2572.chk"
 Charge =  0 Multiplicity = 1

 SCF Done:  E(RB3LYP) =  -577.203069098     A.U. after   15 cycles
 Normal termination of Gaussian 16 at Wed Dec  9 18:21:10 2020.

 ----------------------------------------------------------------------
 # B3LYP/6-311++G(d,p) empiricaldispersion=gd3bj scf=xqc pop=npa geom=c
 heck
 ----------------------------------------------------------------------

 -------------------------------------
 CID_154119126_JID_2572_Energie_kation
 -------------------------------------
 Structure from the checkpoint file:  "JID_2572.chk"
 Charge =  1 Multiplicity = 2

 SCF Done:  E(UB3LYP) =  -576.909994987     A.U. after   26 cycles
 Normal termination of Gaussian 16 at Wed Dec  9 18:27:42 2020.
 Gaussian 16:  ES64L-G16RevA.03 25-Dec-2016

 ------------------------------------
 CID_154119126_JID_2572_Energie_anion
 ------------------------------------
 Structure from the checkpoint file:  "JID_2572.chk"
 Charge = -1 Multiplicity = 2

                         Standard orientation:
 ---------------------------------------------------------------------
 Center     Atomic      Atomic             Coordinates (Angstroms)
 Number     Number       Type             X           Y           Z
 ---------------------------------------------------------------------
      1          6           0        3.457867    1.067824   -0.001372
      2          6           0        2.100778    0.422249    0.064520
      3          6           0        1.934845   -0.882832    0.287876
      4          6           0        0.604292   -1.560258    0.378699
      5          6           0       -0.560830   -0.648020    0.081688
      6          6           0       -0.415633    0.661305   -0.168971
      7          6           0        0.924850    1.343696   -0.130899
      8          8           0       -1.485199    1.443875   -0.575052
      9          6           0       -1.766695    2.573755    0.241844
     10          8           0       -1.703918   -1.403111    0.080583
     11          6           0       -2.987209   -0.789539    0.155784
     12          8           0        0.612995   -2.672133   -0.527240
     13          1           0        3.620401    1.543709   -0.977925
     14          1           0        4.257430    0.338949    0.160095
     15          1           0        3.558762    1.859278    0.754194
     16          1           0        2.795249   -1.535529    0.416986
     17          1           0        0.463636   -1.950376    1.404151
     18          1           0        0.945885    2.110423    0.661938
     19          1           0        1.051367    1.907470   -1.069114
     20          1           0       -1.937278    2.276446    1.286285
     21          1           0       -0.961270    3.318507    0.210610
     22          1           0       -2.677268    3.023999   -0.160028
     23          1           0       -3.042404   -0.103594    1.009678
     24          1           0       -3.229465   -0.244310   -0.758234
     25          1           0       -3.692344   -1.611060    0.304223
     26          1           0       -0.297314   -3.012048   -0.524203
 ---------------------------------------------------------------------

 SCF Done:  E(UB3LYP) =  -577.189349456     A.U. after   31 cycles

 The electronic state is 2-A.
 Alpha  occ. eigenvalues --  -19.05404 -19.03795 -19.02290 -10.13120 -10.12181
 Alpha  occ. eigenvalues --  -10.11905 -10.11687 -10.10998 -10.08682 -10.07941
 Alpha  occ. eigenvalues --  -10.06995 -10.06624  -0.97217  -0.94806  -0.92163
 Alpha  occ. eigenvalues --   -0.74251  -0.67673  -0.64589  -0.61666  -0.59862
 Alpha  occ. eigenvalues --   -0.56175  -0.52954  -0.47688  -0.42812  -0.42357
 Alpha  occ. eigenvalues --   -0.40144  -0.39302  -0.37228  -0.35588  -0.35183
 Alpha  occ. eigenvalues --   -0.34448  -0.33932  -0.33162  -0.32334  -0.30035
 Alpha  occ. eigenvalues --   -0.29376  -0.28251  -0.27181  -0.25645  -0.24613
 Alpha  occ. eigenvalues --   -0.24083  -0.21943  -0.18724  -0.17650  -0.15024
 Alpha  occ. eigenvalues --   -0.11614   0.04453
 Alpha virt. eigenvalues --    0.06418   0.07203   0.08452   0.08568   0.09021
 Alpha virt. eigenvalues --    0.09925   0.10513   0.10764   0.11346   0.12072
 Alpha virt. eigenvalues --    0.12486   0.12955   0.13048   0.13199   0.14794

  Beta  occ. eigenvalues --  -19.05396 -19.03788 -19.02287 -10.13115 -10.12177
  Beta  occ. eigenvalues --  -10.11906 -10.11653 -10.10936 -10.08682 -10.07911
  Beta  occ. eigenvalues --  -10.06960 -10.06617  -0.97202  -0.94791  -0.92157
  Beta  occ. eigenvalues --   -0.74234  -0.67648  -0.64559  -0.61622  -0.59784
  Beta  occ. eigenvalues --   -0.56110  -0.52913  -0.47647  -0.42779  -0.42338
  Beta  occ. eigenvalues --   -0.40100  -0.39275  -0.37192  -0.35554  -0.35151
  Beta  occ. eigenvalues --   -0.34416  -0.33891  -0.33115  -0.32296  -0.29996
  Beta  occ. eigenvalues --   -0.29346  -0.28223  -0.27145  -0.25610  -0.24580
  Beta  occ. eigenvalues --   -0.24047  -0.21922  -0.18710  -0.17631  -0.15008
  Beta  occ. eigenvalues --   -0.11593
  Beta virt. eigenvalues --    0.06745   0.07290   0.08011   0.08834   0.08996
  Beta virt. eigenvalues --    0.09710   0.10535   0.10829   0.11271   0.11649
  Beta virt. eigenvalues --    0.12352   0.12689   0.13231   0.13473   0.13705

 Mulliken charges and spin densities:
               1          2
     1  C    1.506624  -1.973981
     2  C   -0.739214   1.535734
     3  C    0.595184  -1.179617
     4  C   -0.126660  -0.639218
     5  C   -1.501940   1.815042
     6  C   -1.287791   1.289426
     7  C    1.715201  -2.237619
     8  O   -0.213738   0.067976
     9  C    1.600548  -1.905512
    10  O   -0.250776   0.044345
    11  C    0.327141  -0.583950
    12  O   -0.176157   0.006624
    13  H   -0.183667   0.338046
    14  H   -0.132348   0.275377
    15  H   -0.421921   0.584864
    16  H    0.030317   0.118885
    17  H   -0.003365   0.158596
    18  H    0.229038  -0.058776
    19  H    0.006041   0.176359
    20  H   -0.407643   0.555371
    21  H   -0.758496   0.905785
    22  H   -0.512163   0.662643
    23  H   -0.026564   0.178256
    24  H    0.031903   0.150073
    25  H   -0.534272   0.691768
    26  H    0.234718   0.023503
 Sum of Mulliken charges =  -1.00000   1.00000

 Dipole moment (field-independent basis, Debye):
    X=              1.2833    Y=             -5.2827    Z=             -0.9852  Tot=              5.5249
 Quadrupole moment (field-independent basis, Debye-Ang):
   XX=           -135.1798   YY=           -130.8964   ZZ=           -101.5378
   XY=              1.4960   XZ=              2.4470   YZ=             -4.5456

 Summary of Natural Population Analysis:

                                       Natural Population
                Natural  -----------------------------------------------
    Atom  No    Charge         Core      Valence    Rydberg      Total
 -----------------------------------------------------------------------
      C    1   -0.29459      0.99963     2.28898    0.00599     3.29459
      C    2    0.00878      0.99949     1.98145    0.01027     2.99122
      C    3   -0.10299      0.99944     2.09409    0.00947     3.10299
      C    4    0.03838      0.99951     1.94789    0.01423     2.96162
      C    5    0.12951      0.99930     1.85611    0.01509     2.87049
      C    6    0.12391      0.99932     1.86239    0.01437     2.87609
      C    7   -0.22479      0.99955     2.21635    0.00888     3.22479
      O    8   -0.29210      0.99987     3.28174    0.01049     4.29210
      C    9   -0.09880      0.99959     2.08973    0.00948     3.09880
      O   10   -0.29180      0.99985     3.28110    0.01085     4.29180
      C   11   -0.09474      0.99959     2.08605    0.00910     3.09474
      O   12   -0.37247      0.99990     3.36621    0.00636     4.37247
      H   13    0.10321      0.00000     0.39553    0.00126     0.39679
      H   14    0.10154      0.00000     0.39753    0.00093     0.39846
      H   15    0.10565      0.00000     0.39270    0.00165     0.39435
      H   16    0.09824      0.00000     0.40071    0.00105     0.40176
      H   17    0.08393      0.00000     0.41439    0.00168     0.41607
      H   18    0.11158      0.00000     0.38628    0.00213     0.38842
      H   19    0.10980      0.00000     0.38873    0.00148     0.39020
      H   20    0.08260      0.00000     0.41478    0.00263     0.41740
      H   21    0.08537      0.00000     0.41181    0.00281     0.41463
      H   22    0.09274      0.00000     0.40523    0.00202     0.40726
      H   23    0.08595      0.00000     0.41233    0.00172     0.41405
      H   24    0.09224      0.00000     0.40629    0.00147     0.40776
      H   25    0.08629      0.00000     0.41237    0.00134     0.41371
      H   26    0.23256      0.00000     0.26425    0.00319     0.26744
 =======================================================================
   * Total *    0.00000     11.99505    33.85502    0.14994    46.00000

 Normal termination of Gaussian 16 at Wed Dec  9 18:34:57 2020.
