 Gaussian 16, Revision A.03,

 ----------------------------------------------------------------------
 # opt=(cartesian,calcfc) freq B3LYP/6-31G(d) empiricaldispersion=gd3bj
  scf=xqc
 ----------------------------------------------------------------------

 ------------------------------
 CID_82506994_JID_5950_neutraal
 ------------------------------
 Symbolic Z-matrix:
 Charge =  0 Multiplicity = 1

 SCF Done:  E(RB3LYP) =  -633.022458696     A.U. after   14 cycles
 SCF Done:  E(RB3LYP) =  -633.022462458     A.U. after    9 cycles
 SCF Done:  E(RB3LYP) =  -633.022462801     A.U. after    7 cycles
 SCF Done:  E(RB3LYP) =  -633.022462596     A.U. after    8 cycles
 SCF Done:  E(RB3LYP) =  -633.022462916     A.U. after    8 cycles
 SCF Done:  E(RB3LYP) =  -633.022462925     A.U. after    6 cycles
 Optimization completed.
    -- Stationary point found.
 Normal termination of Gaussian 16 at Mon Jan  4 09:38:09 2021.

 --------------------------------------------------------------------
 #N Geom=AllCheck Guess=TCheck SCRF=Check GenChk RB3LYP/6-31G(d) Freq
 --------------------------------------------------------------------

 Structure from the checkpoint file:  "JID_5950.chk"
 ------------------------------
 CID_82506994_JID_5950_neutraal
 ------------------------------
 Charge =  0 Multiplicity = 1

 SCF Done:  E(RB3LYP) =  -633.022462925     A.U. after    1 cycles

  Exact polarizability: 182.828   2.023 165.032   0.183   3.128  95.359
 Approx polarizability: 248.080   9.288 250.039   2.195   8.748 142.870

                      1                      2                      3
                      A                      A                      A
 Frequencies --     45.5861                75.8005                82.2197
 Red. masses --      3.5992                 1.9575                 2.7561
 Frc consts  --      0.0044                 0.0066                 0.0110
 IR Inten    --      1.0355                 1.8534                 0.2439

                      4                      5                      6
                      A                      A                      A
 Frequencies --     83.5297               107.7706               118.5978
 Red. masses --      1.3983                 2.8161                 2.1906
 Frc consts  --      0.0057                 0.0193                 0.0182
 IR Inten    --      0.2027                 2.2527                 3.0592

                      7                      8                      9
                      A                      A                      A
 Frequencies --    160.5059               170.2651               192.6152
 Red. masses --      1.1783                 2.7581                 2.5977
 Frc consts  --      0.0179                 0.0471                 0.0568
 IR Inten    --      0.0694                 1.3547                 1.3914

                     10                     11                     12
                      A                      A                      A
 Frequencies --    229.4384               243.6488               249.7897
 Red. masses --      3.3481                 4.2299                 2.3453
 Frc consts  --      0.1038                 0.1479                 0.0862
 IR Inten    --      1.9581                 3.2117                 1.8631

                     13                     14                     15
                      A                      A                      A
 Frequencies --    297.7559               308.9331               357.5601
 Red. masses --      2.5530                 1.9729                 1.6359
 Frc consts  --      0.1334                 0.1109                 0.1232
 IR Inten    --      4.6122                 3.8091                17.6208

                     16                     17                     18
                      A                      A                      A
 Frequencies --    387.7242               407.9299               470.0143
 Red. masses --      3.9676                 4.0176                 2.6133
 Frc consts  --      0.3514                 0.3939                 0.3401
 IR Inten    --      4.2648                 8.7096                 0.3748

                     19                     20                     21
                      A                      A                      A
 Frequencies --    513.1466               529.0390               555.3342
 Red. masses --      4.0558                 3.2673                 4.3034
 Frc consts  --      0.6292                 0.5388                 0.7819
 IR Inten    --      3.2832                 6.3171                 3.1442

                     22                     23                     24
                      A                      A                      A
 Frequencies --    592.2550               636.0656               645.1337
 Red. masses --      4.6507                 2.7340                 3.1902
 Frc consts  --      0.9611                 0.6517                 0.7823
 IR Inten    --      6.2845                10.6732                 1.0627

                     25                     26                     27
                      A                      A                      A
 Frequencies --    674.6141               743.6045               769.2141
 Red. masses --      2.2695                 1.9510                 1.7953
 Frc consts  --      0.6085                 0.6356                 0.6259
 IR Inten    --     54.8856                29.1395                 1.9303

                     28                     29                     30
                      A                      A                      A
 Frequencies --    780.2465               797.2267               822.5214
 Red. masses --      3.6101                 1.1891                 2.0272
 Frc consts  --      1.2949                 0.4453                 0.8080
 IR Inten    --      2.5734                 0.5252                50.0094

                     31                     32                     33
                      A                      A                      A
 Frequencies --    832.2229               882.0675               908.1240
 Red. masses --      1.3076                 1.3930                 2.1413
 Frc consts  --      0.5336                 0.6386                 1.0404
 IR Inten    --     14.3473                66.8765                 3.3093

                     34                     35                     36
                      A                      A                      A
 Frequencies --    935.3908               940.1865               960.0189
 Red. masses --      2.6019                 2.4068                 1.4341
 Frc consts  --      1.3413                 1.2535                 0.7788
 IR Inten    --      1.8550                17.1348                 8.1165

                     37                     38                     39
                      A                      A                      A
 Frequencies --    986.6308              1009.4827              1023.4775
 Red. masses --      3.1167                 2.1729                 2.3333
 Frc consts  --      1.7876                 1.3046                 1.4400
 IR Inten    --      5.2743                 2.3016                 3.5233

                     40                     41                     42
                      A                      A                      A
 Frequencies --   1039.1378              1055.0121              1060.6146
 Red. masses --      2.5489                 1.8006                 1.5996
 Frc consts  --      1.6216                 1.1808                 1.0602
 IR Inten    --      7.8160                 2.0663                 5.5762

                     43                     44                     45
                      A                      A                      A
 Frequencies --   1067.4322              1074.9479              1091.9870
 Red. masses --      1.5537                 1.5495                 2.2550
 Frc consts  --      1.0430                 1.0549                 1.5843
 IR Inten    --      7.4356                 0.7942                 9.1385

                     46                     47                     48
                      A                      A                      A
 Frequencies --   1154.6491              1171.8307              1196.7866
 Red. masses --      2.8089                 2.1520                 1.4190
 Frc consts  --      2.2064                 1.7411                 1.1975
 IR Inten    --      4.3931                 8.1635                 9.3226

                     49                     50                     51
                      A                      A                      A
 Frequencies --   1209.7385              1223.4908              1255.9031
 Red. masses --      1.3611                 2.7222                 1.7065
 Frc consts  --      1.1736                 2.4008                 1.5859
 IR Inten    --      0.7088                40.9562                 5.6811

                     52                     53                     54
                      A                      A                      A
 Frequencies --   1262.7892              1269.2841              1274.4891
 Red. masses --      1.3441                 1.3647                 1.1130
 Frc consts  --      1.2629                 1.2954                 1.0652
 IR Inten    --      1.2665                 0.0375                 1.3455

                     55                     56                     57
                      A                      A                      A
 Frequencies --   1297.5204              1301.1224              1306.3540
 Red. masses --      1.4655                 2.1923                 1.4562
 Frc consts  --      1.4536                 2.1867                 1.4642
 IR Inten    --      5.4121                10.3339                 2.9775

                     58                     59                     60
                      A                      A                      A
 Frequencies --   1341.5596              1400.9122              1417.8224
 Red. masses --      1.8396                 2.6643                 1.7630
 Frc consts  --      1.9508                 3.0807                 2.0881
 IR Inten    --      8.8802                41.4332               139.3494

                     61                     62                     63
                      A                      A                      A
 Frequencies --   1435.1000              1436.9855              1443.2082
 Red. masses --      1.5520                 1.2860                 1.5014
 Frc consts  --      1.8832                 1.5646                 1.8424
 IR Inten    --      4.2759                 4.2630                11.9326

                     64                     65                     66
                      A                      A                      A
 Frequencies --   1451.0352              1497.7885              1499.9192
 Red. masses --      1.9056                 1.1017                 1.9024
 Frc consts  --      2.3639                 1.4562                 2.5217
 IR Inten    --     90.4664                 1.0650                 2.0720

                     67                     68                     69
                      A                      A                      A
 Frequencies --   1506.6198              1512.8361              1516.7079
 Red. masses --      1.0461                 1.1276                 1.0662
 Frc consts  --      1.3991                 1.5205                 1.4451
 IR Inten    --      5.9395                 3.5883                14.5675

                     70                     71                     72
                      A                      A                      A
 Frequencies --   1522.6639              1529.2561              1539.4529
 Red. masses --      1.0909                 1.4167                 1.1511
 Frc consts  --      1.4901                 1.9521                 1.6073
 IR Inten    --     32.9916                35.1146                18.5168

                     73                     74                     75
                      A                      A                      A
 Frequencies --   1542.3148              1604.3539              1637.9980
 Red. masses --      1.0967                 2.2889                 6.0426
 Frc consts  --      1.5371                 3.4711                 9.5521
 IR Inten    --      7.9143               110.3898               146.0127

                     76                     77                     78
                      A                      A                      A
 Frequencies --   1660.7676              1682.5573              3025.2398
 Red. masses --      2.7905                 1.0933                 1.0584
 Frc consts  --      4.5346                 1.8236                 5.7072
 IR Inten    --    280.2018                36.6275                46.3305

                     79                     80                     81
                      A                      A                      A
 Frequencies --   3046.5264              3051.8673              3059.7779
 Red. masses --      1.0451                 1.0362                 1.0962
 Frc consts  --      5.7150                 5.6861                 6.0466
 IR Inten    --     15.9408                23.0191                54.8853

                     82                     83                     84
                      A                      A                      A
 Frequencies --   3063.1739              3066.3833              3075.8069
 Red. masses --      1.0849                 1.0621                 1.0658
 Frc consts  --      5.9975                 5.8842                 5.9405
 IR Inten    --     23.8257                33.9739                94.4480

                     85                     86                     87
                      A                      A                      A
 Frequencies --   3083.2701              3100.2313              3109.1775
 Red. masses --      1.0680                 1.1005                 1.1006
 Frc consts  --      5.9822                 6.2321                 6.2688
 IR Inten    --     60.4044                18.0138                15.8630

                     88                     89                     90
                      A                      A                      A
 Frequencies --   3117.7241              3131.0415              3134.7806
 Red. masses --      1.1059                 1.1004                 1.1027
 Frc consts  --      6.3336                 6.3559                 6.3842
 IR Inten    --     21.6118                18.6570                21.3613

                     91                     92                     93
                      A                      A                      A
 Frequencies --   3163.1902              3168.8976              3196.0528
 Red. masses --      1.0998                 1.0996                 1.0908
 Frc consts  --      6.4839                 6.5060                 6.5650
 IR Inten    --      4.8470                33.3060                18.2321

                     94                     95                     96
                      A                      A                      A
 Frequencies --   3461.3198              3468.5723              3558.0194
 Red. masses --      1.0774                 1.0503                 1.0936
 Frc consts  --      7.6054                 7.4453                 8.1572
 IR Inten    --    194.5475                17.4867                 0.4498

 - Thermochemistry -
 -------------------
 Temperature   298.150 Kelvin.  Pressure   1.00000 Atm.
 Atom     1 has atomic number  6 and mass  12.00000

 Molecular mass:   205.15790 amu.
 Principal axes and moments of inertia in atomic units:
                           1         2         3
     Eigenvalues --  2168.980573909.648165669.99862
           X            0.99990  -0.01413  -0.00070
           Y            0.01413   0.99990   0.00098
           Z            0.00069  -0.00099   1.00000
 This molecule is an asymmetric top.
 Rotational symmetry number  1.
 Warning -- assumption of classical behavior for rotation
           may cause significant error
 Rotational temperatures (Kelvin)      0.03993     0.02215     0.01528
 Rotational constants (GHZ):           0.83207     0.46161     0.31830
 Zero-point vibrational energy     790131.6 (Joules/Mol)
                                  188.84599 (Kcal/Mol)
 Warning -- explicit consideration of  22 degrees of freedom as
           vibrations may cause significant error
 Vibrational temperatures:     65.59   109.06   118.30   120.18   155.06
          (Kelvin)            170.64   230.93   244.97   277.13   330.11
                              350.56   359.39   428.40   444.49   514.45
                              557.85   586.92   676.25   738.30   761.17
                              799.00   852.12   915.16   928.20   970.62
                             1069.88  1106.73  1122.60  1147.03  1183.42
                             1197.38  1269.10  1306.59  1345.82  1352.72
                             1381.25  1419.54  1452.42  1472.56  1495.09
                             1517.93  1525.99  1535.80  1546.61  1571.13
                             1661.28  1686.00  1721.91  1740.54  1760.33
                             1806.96  1816.87  1826.22  1833.71  1866.84
                             1872.02  1879.55  1930.21  2015.60  2039.93
                             2064.79  2067.50  2076.45  2087.72  2154.98
                             2158.05  2167.69  2176.63  2182.20  2190.77
                             2200.26  2214.93  2219.05  2308.31  2356.71
                             2389.47  2420.82  4352.65  4383.27  4390.96
                             4402.34  4407.22  4411.84  4425.40  4436.14
                             4460.54  4473.41  4485.71  4504.87  4510.25
                             4551.13  4559.34  4598.41  4980.07  4990.50
                             5119.20

 Zero-point correction=                           0.300945 (Hartree/Particle)
 Thermal correction to Energy=                    0.316178
 Thermal correction to Enthalpy=                  0.317122
 Thermal correction to Gibbs Free Energy=         0.258691
 Sum of electronic and zero-point Energies=           -632.721518
 Sum of electronic and thermal Energies=              -632.706285
 Sum of electronic and thermal Enthalpies=            -632.705341
 Sum of electronic and thermal Free Energies=         -632.763772

                     E (Thermal)             CV                S
                      KCal/Mol        Cal/Mol-Kelvin    Cal/Mol-Kelvin
 Total                  198.405             58.172            122.978
 Electronic               0.000              0.000              0.000
 Translational            0.889              2.981             41.860
 Rotational               0.889              2.981             32.242
 Vibrational            196.627             52.210             48.876
 Vibration     1          0.595              1.979              5.000
 Vibration     2          0.599              1.965              3.997
 Vibration     3          0.600              1.961              3.837
 Vibration     4          0.600              1.961              3.806
 Vibration     5          0.606              1.943              3.309
 Vibration     6          0.609              1.934              3.123
 Vibration     7          0.622              1.891              2.544
 Vibration     8          0.625              1.879              2.433
 Vibration     9          0.635              1.850              2.203
 Vibration    10          0.652              1.796              1.883
 Vibration    11          0.659              1.773              1.776
 Vibration    12          0.663              1.763              1.732
 Vibration    13          0.691              1.678              1.429
 Vibration    14          0.698              1.657              1.368
 Vibration    15          0.733              1.560              1.133
 Vibration    16          0.756              1.496              1.009
 Vibration    17          0.772              1.453              0.934
 Vibration    18          0.827              1.317              0.738
 Vibration    19          0.868              1.221              0.626
 Vibration    20          0.884              1.186              0.589
 Vibration    21          0.911              1.128              0.533
 Vibration    22          0.950              1.048              0.463

 Optimization completed.
    -- Stationary point found.
 Normal termination of Gaussian 16 at Mon Jan  4 09:48:55 2021.

 ----------------------------------------------------------------------
 # B3LYP/6-311++G(d,p) empiricaldispersion=gd3bj scf=xqc pop=npa geom=c
 heck
 ----------------------------------------------------------------------

 --------------------------------------
 CID_82506994_JID_5950_Energie_neutraal
 --------------------------------------
 Structure from the checkpoint file:  "JID_5950.chk"
 Charge =  0 Multiplicity = 1

 SCF Done:  E(RB3LYP) =  -633.198122593     A.U. after   14 cycles
 Normal termination of Gaussian 16 at Mon Jan  4 09:53:08 2021.

 ----------------------------------------------------------------------
 # B3LYP/6-311++G(d,p) empiricaldispersion=gd3bj scf=xqc pop=npa geom=c
 heck
 ----------------------------------------------------------------------

 ------------------------------------
 CID_82506994_JID_5950_Energie_kation
 ------------------------------------
 Structure from the checkpoint file:  "JID_5950.chk"
 Charge =  1 Multiplicity = 2

 SCF Done:  E(UB3LYP) =  -632.939089603     A.U. after   20 cycles
 Normal termination of Gaussian 16 at Mon Jan  4 10:01:14 2021.
 Gaussian 16:  ES64L-G16RevA.03 25-Dec-2016

 ----------------------------------------------------------------------
 # B3LYP/6-311++G(d,p) empiricaldispersion=gd3bj scf=xqc pop=npa geom=c
 heck
 ----------------------------------------------------------------------

 -----------------------------------
 CID_82506994_JID_5950_Energie_anion
 -----------------------------------
 Structure from the checkpoint file:  "JID_5950.chk"
 Charge = -1 Multiplicity = 2

                         Standard orientation:
 ---------------------------------------------------------------------
 Center     Atomic      Atomic             Coordinates (Angstroms)
 Number     Number       Type             X           Y           Z
 ---------------------------------------------------------------------
      1          6           0        3.895080    0.218681   -0.067770
      2          6           0        2.402642    0.460382   -0.042758
      3          6           0        1.927818    1.775677    0.085981
      4          6           0        0.558331    2.015190    0.069076
      5          7           0       -0.344899    1.027865   -0.025984
      6          6           0        0.090997   -0.236936   -0.124837
      7          6           0        1.478437   -0.576519   -0.168258
      8          6           0        1.886308   -2.009483   -0.410849
      9          7           0        1.326206   -2.916951    0.615192
     10          7           0       -0.835362   -1.246688   -0.219274
     11          6           0       -2.268069   -1.075710   -0.111333
     12          6           0       -2.936613   -0.317239    1.074542
     13          6           0       -4.002352    0.194823    0.068539
     14          6           0       -3.030255   -0.147884   -1.093227
     15          6           0       -0.003318    3.410577    0.164895
     16          1           0        4.231660   -0.143734   -1.046624
     17          1           0        4.436859    1.144586    0.144629
     18          1           0        4.202661   -0.525909    0.675534
     19          1           0        2.627165    2.600461    0.182050
     20          1           0        1.470320   -2.339920   -1.373263
     21          1           0        2.978130   -2.082409   -0.494206
     22          1           0        1.639360   -3.871055    0.444242
     23          1           0        1.675066   -2.647429    1.533704
     24          1           0       -0.462768   -2.146378    0.079969
     25          1           0       -2.688322   -2.085414   -0.173498
     26          1           0       -3.274258   -0.918177    1.925730
     27          1           0       -2.296137    0.493488    1.422475
     28          1           0       -4.312547    1.239114    0.163239
     29          1           0       -4.898213   -0.435514    0.058181
     30          1           0       -2.416453    0.711587   -1.362608
     31          1           0       -3.442783   -0.609339   -1.996584
     32          1           0        0.787581    4.160704    0.257457
     33          1           0       -0.602118    3.641129   -0.723866
     34          1           0       -0.670865    3.495277    1.029915
 ---------------------------------------------------------------------

 SCF Done:  E(UB3LYP) =  -633.187544291     A.U. after   33 cycles
 SCF Done:  E(UB3LYP) =  -633.187544291     a.u. after    1 cycles

 The electronic state is 2-A.
 Alpha  occ. eigenvalues --  -14.20493 -14.18374 -14.18076 -10.12806 -10.10393
 Alpha  occ. eigenvalues --  -10.09845 -10.08539 -10.07943 -10.07301 -10.06922
 Alpha  occ. eigenvalues --  -10.06229 -10.06206 -10.06145 -10.06138 -10.05307
 Alpha  occ. eigenvalues --   -0.85581  -0.79591  -0.77339  -0.73240  -0.70558
 Alpha  occ. eigenvalues --   -0.66285  -0.61530  -0.59299  -0.56525  -0.55869
 Alpha  occ. eigenvalues --   -0.53339  -0.49947  -0.47247  -0.44735  -0.41973
 Alpha  occ. eigenvalues --   -0.39715  -0.38692  -0.37794  -0.36607  -0.34838
 Alpha  occ. eigenvalues --   -0.33541  -0.32913  -0.31534  -0.30706  -0.30381
 Alpha  occ. eigenvalues --   -0.29770  -0.29089  -0.29015  -0.28619  -0.27566
 Alpha  occ. eigenvalues --   -0.26658  -0.25466  -0.24376  -0.23631  -0.22202
 Alpha  occ. eigenvalues --   -0.21222  -0.18136  -0.15496  -0.14911  -0.13662
 Alpha  occ. eigenvalues --   -0.09619   0.04543
 Alpha virt. eigenvalues --    0.06692   0.06828   0.07884   0.08402   0.08605
 Alpha virt. eigenvalues --    0.08772   0.09710   0.10042   0.10460   0.10497
 Alpha virt. eigenvalues --    0.10886   0.11586   0.11886   0.12669   0.12845

  Beta  occ. eigenvalues --  -14.20483 -14.18288 -14.18060 -10.12804 -10.10388
  Beta  occ. eigenvalues --  -10.09783 -10.08513 -10.07884 -10.07299 -10.06923
  Beta  occ. eigenvalues --  -10.06225 -10.06175 -10.06135 -10.06134 -10.05321
  Beta  occ. eigenvalues --   -0.85545  -0.79547  -0.77213  -0.73222  -0.70460
  Beta  occ. eigenvalues --   -0.66229  -0.61455  -0.59258  -0.56485  -0.55859
  Beta  occ. eigenvalues --   -0.53268  -0.49915  -0.47177  -0.44700  -0.41919
  Beta  occ. eigenvalues --   -0.39688  -0.38603  -0.37770  -0.36584  -0.34786
  Beta  occ. eigenvalues --   -0.33432  -0.32815  -0.31447  -0.30673  -0.30337
  Beta  occ. eigenvalues --   -0.29733  -0.29052  -0.28980  -0.28606  -0.27521
  Beta  occ. eigenvalues --   -0.26602  -0.25404  -0.24343  -0.23605  -0.22183
  Beta  occ. eigenvalues --   -0.21209  -0.18047  -0.15300  -0.14866  -0.13585
  Beta  occ. eigenvalues --   -0.09547
  Beta virt. eigenvalues --    0.06484   0.07015   0.07562   0.08249   0.08627
  Beta virt. eigenvalues --    0.08837   0.09183   0.10006   0.10281   0.10735
  Beta virt. eigenvalues --    0.10862   0.11236   0.11660   0.12132   0.12965

 Mulliken charges and spin densities:
               1          2
     1  C    1.785835  -2.175159
     2  C   -0.778805   1.053647
     3  C   -0.310941  -0.149718
     4  C   -0.059578  -0.017201
     5  N    0.047021   0.044754
     6  C   -0.530614  -0.079862
     7  C   -0.377219   0.992312
     8  C    0.962283  -1.886573
     9  N   -0.449144   0.053751
    10  N    0.009486   0.058273
    11  C   -0.329925   0.321732
    12  C    0.045920  -0.289582
    13  C   -0.357870   0.000604
    14  C    0.077273  -0.309436
    15  C    0.009438  -0.630889
    16  H    0.088859   0.075936
    17  H   -0.194382   0.329889
    18  H   -0.525135   0.717284
    19  H   -0.055214   0.189015
    20  H   -0.201422   0.389599
    21  H   -0.345922   0.536691
    22  H   -0.518148   0.778380
    23  H   -0.085077   0.300124
    24  H    0.383474  -0.039706
    25  H   -0.174416   0.355803
    26  H    0.024615   0.101403
    27  H    0.145927   0.021526
    28  H    0.122416   0.009215
    29  H    0.092788   0.006799
    30  H    0.169237   0.016768
    31  H    0.039433   0.086066
    32  H    0.064972   0.076894
    33  H    0.080448   0.063280
    34  H    0.144388  -0.001617
 Sum of Mulliken charges =  -1.00000   1.00000

 Dipole moment (field-independent basis, Debye):
    X=             -6.6932    Y=              7.3142    Z=             -1.4867  Tot=             10.0254
 Quadrupole moment (field-independent basis, Debye-Ang):
   XX=           -155.2643   YY=           -152.1375   ZZ=           -117.9039
   XY=             15.3291   XZ=             -6.8003   YZ=              5.0022

 Summary of Natural Population Analysis:

                                       Natural Population
                Natural  -----------------------------------------------
    Atom  No    Charge         Core      Valence    Rydberg      Total
 -----------------------------------------------------------------------
      C    1   -0.29844      0.99963     2.29259    0.00621     3.29844
      C    2    0.02277      0.99948     1.96815    0.00960     2.97723
      C    3   -0.15367      0.99946     2.14543    0.00878     3.15367
      C    4    0.12453      0.99955     1.86407    0.01185     2.87547
      N    5   -0.28472      0.99964     2.77464    0.01044     3.78472
      C    6    0.22307      0.99950     1.76277    0.01465     2.77693
      C    7   -0.06089      0.99943     2.05085    0.01061     3.06089
      C    8   -0.09927      0.99961     2.08754    0.01212     3.09927
      N    9   -0.43211      0.99977     2.92142    0.01092     3.93211
      N   10   -0.32365      0.99964     2.81409    0.00992     3.82365
      C   11   -0.00449      0.99959     1.99007    0.01484     3.00449
      C   12   -0.19792      0.99963     2.18984    0.00845     3.19792
      C   13   -0.19321      0.99966     2.18652    0.00703     3.19321
      C   14   -0.19376      0.99963     2.18693    0.00720     3.19376
      C   15   -0.29556      0.99964     2.29052    0.00541     3.29556
      H   16    0.10443      0.00000     0.39463    0.00094     0.39557
      H   17    0.10025      0.00000     0.39880    0.00095     0.39975
      H   18    0.11243      0.00000     0.38524    0.00233     0.38757
      H   19    0.09747      0.00000     0.40164    0.00089     0.40253
      H   20    0.09581      0.00000     0.40247    0.00172     0.40419
      H   21    0.09261      0.00000     0.40494    0.00245     0.40739
      H   22    0.18609      0.00000     0.30129    0.01262     0.31391
      H   23    0.18050      0.00000     0.31528    0.00422     0.31950
      H   24    0.21351      0.00000     0.28312    0.00338     0.28649
      H   25    0.09438      0.00000     0.40450    0.00113     0.40562
      H   26    0.09128      0.00000     0.40761    0.00111     0.40872
      H   27    0.11034      0.00000     0.38819    0.00147     0.38966
      H   28    0.09374      0.00000     0.40536    0.00089     0.40626
      H   29    0.09038      0.00000     0.40841    0.00121     0.40962
      H   30    0.11104      0.00000     0.38737    0.00159     0.38896
      H   31    0.09037      0.00000     0.40840    0.00123     0.40963
      H   32    0.09655      0.00000     0.40274    0.00072     0.40345
      H   33    0.10315      0.00000     0.39548    0.00137     0.39685
      H   34    0.10300      0.00000     0.39579    0.00121     0.39700
 =======================================================================
   * Total *    0.00000     14.99385    40.81668    0.18946    56.00000

 Normal termination of Gaussian 16 at Mon Jan  4 10:14:52 2021.
