 Gaussian 16, Revision A.03,

 -----------------------------------------------------------
 # opt freq B3LYP/6-31G(d) empiricaldispersion=gd3bj scf=xqc
 -----------------------------------------------------------

 -------------------------------
 CID_133674006_JID_3705_neutraal
 -------------------------------
 Symbolic Z-matrix:
 Charge =  0 Multiplicity = 1

 SCF Done:  E(RB3LYP) =  -647.233612812     A.U. after   14 cycles
 SCF Done:  E(RB3LYP) =  -647.238382061     A.U. after   12 cycles
 SCF Done:  E(RB3LYP) =  -647.238880093     A.U. after   12 cycles
 SCF Done:  E(RB3LYP) =  -647.239104274     A.U. after   12 cycles
 SCF Done:  E(RB3LYP) =  -647.239234018     A.U. after   11 cycles
 SCF Done:  E(RB3LYP) =  -647.239314021     A.U. after   10 cycles
 SCF Done:  E(RB3LYP) =  -647.239342738     A.U. after   10 cycles
 SCF Done:  E(RB3LYP) =  -647.239358271     A.U. after   10 cycles
 SCF Done:  E(RB3LYP) =  -647.239376090     A.U. after   10 cycles
 SCF Done:  E(RB3LYP) =  -647.239394962     A.U. after   11 cycles
 SCF Done:  E(RB3LYP) =  -647.252784837     A.U. after    9 cycles
 SCF Done:  E(RB3LYP) =  -647.252785867     A.U. after    9 cycles
 SCF Done:  E(RB3LYP) =  -647.252786484     A.U. after    9 cycles
 SCF Done:  E(RB3LYP) =  -647.252786636     A.U. after    8 cycles
 SCF Done:  E(RB3LYP) =  -647.252786905     A.U. after    7 cycles
 SCF Done:  E(RB3LYP) =  -647.252787008     A.U. after    8 cycles
 Optimization completed.
    -- Stationary point found.
 Normal termination of Gaussian 16 at Mon Dec 14 16:40:55 2020.

 --------------------------------------------------------------------
 #N Geom=AllCheck Guess=TCheck SCRF=Check GenChk RB3LYP/6-31G(d) Freq
 --------------------------------------------------------------------

 Structure from the checkpoint file:  "JID_3705.chk"
 -------------------------------
 CID_133674006_JID_3705_neutraal
 -------------------------------
 Charge =  0 Multiplicity = 1

 SCF Done:  E(RB3LYP) =  -647.252787008     A.U. after    1 cycles

  Exact polarizability: 133.745   1.148  95.167  -3.350   2.458  83.430
 Approx polarizability: 157.208  -0.248 142.930 -11.954   9.210 134.398

                      1                      2                      3
                      A                      A                      A
 Frequencies --     20.1280                51.2732                61.4684
 Red. masses --      4.8901                 5.5135                 6.4639
 Frc consts  --      0.0012                 0.0085                 0.0144
 IR Inten    --      1.5265                 0.5145                 1.3555

                      4                      5                      6
                      A                      A                      A
 Frequencies --     74.1232               100.6606               144.3565
 Red. masses --      4.6853                 4.3261                 5.1953
 Frc consts  --      0.0152                 0.0258                 0.0638
 IR Inten    --      0.3899                 2.4067                 5.9093

                      7                      8                      9
                      A                      A                      A
 Frequencies --    197.1453               222.8100               273.6306
 Red. masses --      3.9315                 5.4179                 4.1166
 Frc consts  --      0.0900                 0.1585                 0.1816
 IR Inten    --      3.1815                 0.4887                19.2723

                     10                     11                     12
                      A                      A                      A
 Frequencies --    300.6040               319.1877               358.8566
 Red. masses --      1.3270                 3.6500                 2.9040
 Frc consts  --      0.0706                 0.2191                 0.2203
 IR Inten    --     18.3780                 5.3178                10.5631

                     13                     14                     15
                      A                      A                      A
 Frequencies --    366.1420               465.3344               499.1487
 Red. masses --      3.5700                 3.6017                 3.1152
 Frc consts  --      0.2820                 0.4595                 0.4573
 IR Inten    --      6.4501                 9.6252                 9.3836

                     16                     17                     18
                      A                      A                      A
 Frequencies --    576.7971               588.7240               600.2764
 Red. masses --      2.9147                 2.4120                 1.4054
 Frc consts  --      0.5713                 0.4926                 0.2984
 IR Inten    --     19.3864                46.0171                55.9320

                     19                     20                     21
                      A                      A                      A
 Frequencies --    611.6731               696.3888               747.5593
 Red. masses --      1.2961                 3.1086                 4.6776
 Frc consts  --      0.2857                 0.8882                 1.5402
 IR Inten    --    107.3117                12.0130                 3.8535

                     22                     23                     24
                      A                      A                      A
 Frequencies --    761.9460               782.5666               823.4167
 Red. masses --      3.3504                 2.1981                 2.4605
 Frc consts  --      1.1460                 0.7931                 0.9829
 IR Inten    --     25.4147                 2.3847                 3.2388

                     25                     26                     27
                      A                      A                      A
 Frequencies --    840.5497               879.9663               891.3339
 Red. masses --      1.7111                 2.4318                 1.3655
 Frc consts  --      0.7123                 1.1095                 0.6392
 IR Inten    --     18.2362                 5.6352               110.8676

                     28                     29                     30
                      A                      A                      A
 Frequencies --    900.6594               930.8778               969.1876
 Red. masses --      4.5610                 2.0107                 2.7187
 Frc consts  --      2.1799                 1.0266                 1.5046
 IR Inten    --      4.7972                 0.3748                 9.8295

                     31                     32                     33
                      A                      A                      A
 Frequencies --    976.2286              1013.5964              1041.0231
 Red. masses --      2.0930                 2.4017                 1.7189
 Frc consts  --      1.1752                 1.4538                 1.0975
 IR Inten    --     26.3182                49.3070                37.8165

                     34                     35                     36
                      A                      A                      A
 Frequencies --   1054.8560              1072.3926              1095.5763
 Red. masses --      1.6070                 1.7610                 1.2758
 Frc consts  --      1.0535                 1.1932                 0.9022
 IR Inten    --     49.3112                 7.0353                 7.6453

                     37                     38                     39
                      A                      A                      A
 Frequencies --   1130.5316              1133.2341              1142.5361
 Red. masses --      1.1908                 1.0871                 1.3717
 Frc consts  --      0.8967                 0.8225                 1.0550
 IR Inten    --      4.4149                 8.5703                22.5438

                     40                     41                     42
                      A                      A                      A
 Frequencies --   1172.7949              1178.8617              1217.5660
 Red. masses --      1.6982                 2.1143                 1.6726
 Frc consts  --      1.3762                 1.7312                 1.4609
 IR Inten    --      6.4932                 7.7703               166.9620

                     43                     44                     45
                      A                      A                      A
 Frequencies --   1237.6683              1240.9343              1270.0512
 Red. masses --      1.8213                 1.6727                 1.7274
 Frc consts  --      1.6438                 1.5176                 1.6417
 IR Inten    --     54.9381                 7.0792                27.4762

                     46                     47                     48
                      A                      A                      A
 Frequencies --   1287.6109              1332.3580              1370.0289
 Red. masses --      1.4686                 1.4292                 1.6184
 Frc consts  --      1.4346                 1.4948                 1.7897
 IR Inten    --      3.5576                 0.9182                10.7748

                     49                     50                     51
                      A                      A                      A
 Frequencies --   1395.6642              1426.7871              1452.9385
 Red. masses --      2.2072                 1.6104                 1.7051
 Frc consts  --      2.5331                 1.9315                 2.1207
 IR Inten    --    107.2872                43.3305                 6.5686

                     52                     53                     54
                      A                      A                      A
 Frequencies --   1493.5691              1506.4011              1569.0341
 Red. masses --      1.4181                 1.5670                 2.5625
 Frc consts  --      1.8638                 2.0950                 3.7169
 IR Inten    --     17.1774                35.0895               450.6188

                     55                     56                     57
                      A                      A                      A
 Frequencies --   1693.0661              1766.3386              1844.4302
 Red. masses --      1.0946                 9.9487                 9.4537
 Frc consts  --      1.8487                18.2880                18.9485
 IR Inten    --     22.3223               221.3632               379.7163

                     58                     59                     60
                      A                      A                      A
 Frequencies --   3102.3507              3152.6645              3172.7107
 Red. masses --      1.0883                 1.0545                 1.0528
 Frc consts  --      6.1714                 6.1754                 6.2441
 IR Inten    --     46.3041                 9.2077                 5.6398

                     61                     62                     63
                      A                      A                      A
 Frequencies --   3193.3955              3223.2820              3232.1158
 Red. masses --      1.0900                 1.0921                 1.0900
 Frc consts  --      6.5489                 6.6848                 6.7091
 IR Inten    --      5.1961                 2.0692                 0.9797

                     64                     65                     66
                      A                      A                      A
 Frequencies --   3240.6234              3267.6333              3476.8323
 Red. masses --      1.1166                 1.1193                 1.0491
 Frc consts  --      6.9089                 7.0414                 7.4721
 IR Inten    --     10.0615                 0.5149                 0.3439

                     67                     68                     69
                      A                      A                      A
 Frequencies --   3557.5150              3579.6077              3700.1491
 Red. masses --      1.0937                 1.0773                 1.0642
 Frc consts  --      8.1556                 8.1331                 8.5846
 IR Inten    --      0.9286                82.9347                60.5730

 - Thermochemistry -
 -------------------
 Temperature   298.150 Kelvin.  Pressure   1.00000 Atm.
 Atom     1 has atomic number  6 and mass  12.00000

 Molecular mass:   184.08479 amu.
 Principal axes and moments of inertia in atomic units:
                           1         2         3
     Eigenvalues --  1088.471955366.360905841.64551
           X            0.99993  -0.00986   0.00621
           Y            0.00989   0.99994  -0.00521
           Z           -0.00616   0.00527   0.99997
 This molecule is an asymmetric top.
 Rotational symmetry number  1.
 Warning -- assumption of classical behavior for rotation
           may cause significant error
 Rotational temperatures (Kelvin)      0.07957     0.01614     0.01483
 Rotational constants (GHZ):           1.65805     0.33631     0.30894
 Zero-point vibrational energy     538748.7 (Joules/Mol)
                                  128.76403 (Kcal/Mol)
 Warning -- explicit consideration of  19 degrees of freedom as
           vibrations may cause significant error
 Vibrational temperatures:     28.96    73.77    88.44   106.65   144.83
          (Kelvin)            207.70   283.65   320.57   393.69   432.50
                              459.24   516.31   526.80   669.51   718.16
                              829.88   847.04   863.66   880.06  1001.95
                             1075.57  1096.27  1125.94  1184.71  1209.36
                             1266.08  1282.43  1295.85  1339.33  1394.44
                             1404.58  1458.34  1497.80  1517.70  1542.93
                             1576.29  1626.58  1630.47  1643.85  1687.39
                             1696.12  1751.81  1780.73  1785.43  1827.32
                             1852.58  1916.97  1971.17  2008.05  2052.83
                             2090.45  2148.91  2167.38  2257.49  2435.94
                             2541.37  2653.72  4463.59  4535.98  4564.82
                             4594.58  4637.58  4650.29  4662.53  4701.40
                             5002.39  5118.47  5150.26  5323.69

 Zero-point correction=                           0.205199 (Hartree/Particle)
 Thermal correction to Energy=                    0.218127
 Thermal correction to Enthalpy=                  0.219072
 Thermal correction to Gibbs Free Energy=         0.163752
 Sum of electronic and zero-point Energies=           -647.047588
 Sum of electronic and thermal Energies=              -647.034660
 Sum of electronic and thermal Enthalpies=            -647.033715
 Sum of electronic and thermal Free Energies=         -647.089035

                     E (Thermal)             CV                S
                      KCal/Mol        Cal/Mol-Kelvin    Cal/Mol-Kelvin
 Total                  136.877             47.755            116.430
 Electronic               0.000              0.000              0.000
 Translational            0.889              2.981             41.537
 Rotational               0.889              2.981             31.901
 Vibrational            135.100             41.794             42.992
 Vibration     1          0.593              1.986              6.622
 Vibration     2          0.596              1.977              4.768
 Vibration     3          0.597              1.973              4.409
 Vibration     4          0.599              1.966              4.041
 Vibration     5          0.604              1.949              3.441
 Vibration     6          0.616              1.909              2.745
 Vibration     7          0.637              1.844              2.160
 Vibration     8          0.648              1.806              1.936
 Vibration     9          0.676              1.722              1.573
 Vibration    10          0.693              1.673              1.414
 Vibration    11          0.705              1.637              1.314
 Vibration    12          0.734              1.557              1.127
 Vibration    13          0.739              1.542              1.096
 Vibration    14          0.823              1.327              0.751
 Vibration    15          0.855              1.252              0.660
 Vibration    16          0.933              1.081              0.491
 Vibration    17          0.946              1.056              0.469
 Vibration    18          0.958              1.031              0.449
 Vibration    19          0.971              1.007              0.430

 Optimization completed.
    -- Stationary point found.
 Normal termination of Gaussian 16 at Mon Dec 14 16:46:04 2020.

 ----------------------------------------------------------------------
 # B3LYP/6-311++G(d,p) empiricaldispersion=gd3bj scf=xqc pop=npa geom=c
 heck
 ----------------------------------------------------------------------

 ---------------------------------------
 CID_133674006_JID_3705_Energie_neutraal
 ---------------------------------------
 Structure from the checkpoint file:  "JID_3705.chk"
 Charge =  0 Multiplicity = 1

 SCF Done:  E(RB3LYP) =  -647.459922361     A.U. after   14 cycles
 Normal termination of Gaussian 16 at Mon Dec 14 16:48:16 2020.

 ----------------------------------------------------------------------
 # B3LYP/6-311++G(d,p) empiricaldispersion=gd3bj scf=xqc pop=npa geom=c
 heck
 ----------------------------------------------------------------------

 -------------------------------------
 CID_133674006_JID_3705_Energie_kation
 -------------------------------------
 Structure from the checkpoint file:  "JID_3705.chk"
 Charge =  1 Multiplicity = 2

 SCF Done:  E(UB3LYP) =  -647.146048436     A.U. after   24 cycles
 Normal termination of Gaussian 16 at Mon Dec 14 16:53:35 2020.
 Gaussian 16:  ES64L-G16RevA.03 25-Dec-2016

 ----------------------------------------------------------------------
 # B3LYP/6-311++G(d,p) empiricaldispersion=gd3bj scf=xqc pop=npa geom=c
 heck
 ----------------------------------------------------------------------

 ------------------------------------
 CID_133674006_JID_3705_Energie_anion
 ------------------------------------
 Structure from the checkpoint file:  "JID_3705.chk"
 Charge = -1 Multiplicity = 2

                         Standard orientation:
 ---------------------------------------------------------------------
 Center     Atomic      Atomic             Coordinates (Angstroms)
 Number     Number       Type             X           Y           Z
 ---------------------------------------------------------------------
      1          6           0        1.997987   -1.239121    1.071797
      2          6           0        0.976598   -0.269568    0.558299
      3          6           0        2.262537   -0.526330   -0.231512
      4          6           0        3.287463    0.537918   -0.320989
      5          8           0        3.965722    0.772612   -1.297696
      6          8           0        3.406687    1.258426    0.831504
      7          6           0       -0.273867   -0.842224   -0.043109
      8          8           0       -0.282485   -1.932108   -0.612218
      9          7           0       -1.374585   -0.056543    0.086060
     10          6           0       -2.648473   -0.420827   -0.448121
     11          6           0       -3.838536   -0.526907    0.476595
     12          6           0       -3.706584    0.657024   -0.453180
     13          7           0       -3.319086    1.913916    0.149830
     14          1           0        1.744423   -2.290637    0.989512
     15          1           0        2.583405   -0.942773    1.934808
     16          1           0        0.906218    0.691879    1.057469
     17          1           0        2.145406   -1.102250   -1.141596
     18          1           0        4.103566    1.916679    0.654921
     19          1           0       -1.334887    0.849289    0.538892
     20          1           0       -2.571762   -1.105569   -1.284440
     21          1           0       -4.600378   -1.270614    0.262428
     22          1           0       -3.653025   -0.343618    1.531121
     23          1           0       -4.375674    0.682166   -1.315654
     24          1           0       -3.053474    2.582576   -0.570973
     25          1           0       -4.100266    2.320030    0.660884
 ---------------------------------------------------------------------

 SCF Done:  E(UB3LYP) =  -647.451966501     A.U. after   31 cycles

 The electronic state is 2-A.
 Alpha  occ. eigenvalues --  -19.07926 -19.02641 -18.99318 -14.24498 -14.20298
 Alpha  occ. eigenvalues --  -10.22074 -10.18191 -10.11709 -10.11332 -10.11125
 Alpha  occ. eigenvalues --  -10.11106 -10.10388 -10.07960  -1.02017  -0.94618
 Alpha  occ. eigenvalues --   -0.93134  -0.85009  -0.79899  -0.79343  -0.72204
 Alpha  occ. eigenvalues --   -0.61139  -0.57696  -0.51502  -0.50688  -0.49631
 Alpha  occ. eigenvalues --   -0.49317  -0.44204  -0.42659  -0.41327  -0.39694
 Alpha  occ. eigenvalues --   -0.38637  -0.37925  -0.36438  -0.35415  -0.34250
 Alpha  occ. eigenvalues --   -0.33099  -0.32132  -0.30543  -0.30131  -0.29242
 Alpha  occ. eigenvalues --   -0.25270  -0.24521  -0.23557  -0.21891  -0.20425
 Alpha  occ. eigenvalues --   -0.19190  -0.17674  -0.16848  -0.14034   0.04039
 Alpha virt. eigenvalues --    0.05598   0.07075   0.07546   0.08112   0.08515
 Alpha virt. eigenvalues --    0.09459   0.09688   0.10930   0.11407   0.11719
 Alpha virt. eigenvalues --    0.11983   0.12036   0.13793   0.14300   0.14968

  Beta  occ. eigenvalues --  -19.07877 -19.02630 -18.99316 -14.24484 -14.20218
  Beta  occ. eigenvalues --  -10.22072 -10.18190 -10.11705 -10.11325 -10.11113
  Beta  occ. eigenvalues --  -10.11082 -10.10383 -10.07948  -1.01958  -0.94611
  Beta  occ. eigenvalues --   -0.93084  -0.84976  -0.79857  -0.79289  -0.72116
  Beta  occ. eigenvalues --   -0.61097  -0.57664  -0.51464  -0.50623  -0.49585
  Beta  occ. eigenvalues --   -0.49250  -0.44177  -0.42616  -0.41255  -0.39665
  Beta  occ. eigenvalues --   -0.38579  -0.37853  -0.36408  -0.35384  -0.34233
  Beta  occ. eigenvalues --   -0.33052  -0.32095  -0.30518  -0.30114  -0.29212
  Beta  occ. eigenvalues --   -0.25249  -0.24489  -0.23536  -0.21876  -0.20392
  Beta  occ. eigenvalues --   -0.19150  -0.17635  -0.16821  -0.14000
  Beta virt. eigenvalues --    0.06651   0.07011   0.07172   0.08311   0.08373
  Beta virt. eigenvalues --    0.08878   0.09773   0.10070   0.11380   0.11571
  Beta virt. eigenvalues --    0.11998   0.12192   0.12446   0.13771   0.14357

 Mulliken charges and spin densities:
               1          2
     1  C   -0.249440  -0.258422
     2  C    0.403664   0.323136
     3  C    0.007815  -0.091245
     4  C    0.072241  -0.197508
     5  O   -0.296094  -0.000179
     6  O   -0.202009   0.003545
     7  C    0.036121  -0.823785
     8  O   -0.380221  -0.007565
     9  N    0.168985  -0.202326
    10  C   -1.754399   1.780687
    11  C    0.639497  -1.115568
    12  C    1.429078  -1.687758
    13  N   -0.296079  -0.110003
    14  H    0.176090   0.012575
    15  H    0.056138   0.123571
    16  H   -0.248129   0.551674
    17  H    0.223397   0.067634
    18  H   -0.304383   0.608722
    19  H    0.545928  -0.240979
    20  H    0.082902   0.153864
    21  H   -0.014134   0.151687
    22  H    0.018872   0.141584
    23  H   -0.478262   0.676930
    24  H   -0.350100   0.598752
    25  H   -0.287479   0.540977
 Sum of Mulliken charges =  -1.00000   1.00000

 Dipole moment (field-independent basis, Debye):
    X=              3.1564    Y=             -6.3802    Z=              1.4563  Tot=              7.2657
 Quadrupole moment (field-independent basis, Debye-Ang):
   XX=           -169.3284   YY=           -123.8170   ZZ=           -103.3602
   XY=              7.8046   XZ=             -0.4922   YZ=             -4.0257

 Summary of Natural Population Analysis:

                                       Natural Population
                Natural  -----------------------------------------------
    Atom  No    Charge         Core      Valence    Rydberg      Total
 -----------------------------------------------------------------------
      C    1   -0.17799      0.99961     2.16942    0.00896     3.17799
      C    2   -0.14167      0.99954     2.13126    0.01087     3.14167
      C    3   -0.15605      0.99953     2.14534    0.01118     3.15605
      C    4    0.40265      0.99966     1.57269    0.02501     2.59735
      O    5   -0.30524      0.99987     3.29944    0.00593     4.30524
      O    6   -0.35085      0.99988     3.34413    0.00684     4.35085
      C    7    0.33503      0.99965     1.64161    0.02371     2.66497
      O    8   -0.33808      0.99988     3.33347    0.00473     4.33808
      N    9   -0.30900      0.99964     2.80020    0.00915     3.80900
      C   10   -0.01765      0.99956     2.00521    0.01288     3.01765
      C   11   -0.20352      0.99961     2.19579    0.00812     3.20352
      C   12   -0.01967      0.99959     2.00570    0.01438     3.01967
      N   13   -0.43278      0.99976     2.92145    0.01157     3.93278
      H   14    0.11431      0.00000     0.38482    0.00087     0.38569
      H   15    0.11204      0.00000     0.38710    0.00086     0.38796
      H   16    0.11901      0.00000     0.37949    0.00150     0.38099
      H   17    0.12499      0.00000     0.37409    0.00093     0.37501
      H   18    0.24526      0.00000     0.24020    0.01454     0.25474
      H   19    0.20915      0.00000     0.28747    0.00339     0.29085
      H   20    0.11320      0.00000     0.38569    0.00112     0.38680
      H   21    0.10418      0.00000     0.39494    0.00088     0.39582
      H   22    0.10653      0.00000     0.39229    0.00119     0.39347
      H   23    0.09406      0.00000     0.40357    0.00237     0.40594
      H   24    0.18570      0.00000     0.30722    0.00708     0.31430
      H   25    0.18640      0.00000     0.30513    0.00847     0.31360
 =======================================================================
   * Total *   -0.00000     12.99578    35.80771    0.19652    49.00000

 Normal termination of Gaussian 16 at Mon Dec 14 17:00:05 2020.
