 Gaussian 16, Revision A.03,

 -----------------------------------------------------------
 # opt freq B3LYP/6-31G(d) empiricaldispersion=gd3bj scf=xqc
 -----------------------------------------------------------

 -------------------------------
 CID_154073275_JID_1327_neutraal
 -------------------------------
 Symbolic Z-matrix:
 Charge =  0 Multiplicity = 1

 SCF Done:  E(RB3LYP) =  -533.954108149     A.U. after   15 cycles
 SCF Done:  E(RB3LYP) =  -533.957533505     A.U. after   13 cycles
 SCF Done:  E(RB3LYP) =  -533.958315553     A.U. after   13 cycles
 SCF Done:  E(RB3LYP) =  -533.958937024     A.U. after   12 cycles
 SCF Done:  E(RB3LYP) =  -533.959128839     A.U. after   12 cycles
 SCF Done:  E(RB3LYP) =  -533.959135636     A.U. after   12 cycles
 SCF Done:  E(RB3LYP) =  -533.959253600     A.U. after   11 cycles
 SCF Done:  E(RB3LYP) =  -533.959275761     A.U. after   10 cycles
 SCF Done:  E(RB3LYP) =  -533.959283164     A.U. after   10 cycles
 SCF Done:  E(RB3LYP) =  -533.959285897     A.U. after    9 cycles
 SCF Done:  E(RB3LYP) =  -533.959287972     A.U. after    9 cycles
 SCF Done:  E(RB3LYP) =  -533.959288205     A.U. after    8 cycles
 SCF Done:  E(RB3LYP) =  -533.959288294     A.U. after    7 cycles
 Optimization completed.
    -- Stationary point found.
 Normal termination of Gaussian 16 at Tue Dec  8 19:43:05 2020.

 --------------------------------------------------------------------
 #N Geom=AllCheck Guess=TCheck SCRF=Check GenChk RB3LYP/6-31G(d) Freq
 --------------------------------------------------------------------

 Structure from the checkpoint file:  "JID_1327.chk"
 -------------------------------
 CID_154073275_JID_1327_neutraal
 -------------------------------
 Charge =  0 Multiplicity = 1

 SCF Done:  E(RB3LYP) =  -533.959288294     A.U. after    1 cycles

  Exact polarizability: 128.406  -4.201  94.481  -0.873  -5.855  59.669
 Approx polarizability: 156.250 -22.884 167.269   1.675 -13.631  90.126

                      1                      2                      3
                      A                      A                      A
 Frequencies --     48.0389                58.0615                69.4488
 Red. masses --      4.8483                 3.8852                 4.1740
 Frc consts  --      0.0066                 0.0077                 0.0119
 IR Inten    --     11.5437                 0.8931                 4.5115

                      4                      5                      6
                      A                      A                      A
 Frequencies --    101.4626               133.6739               162.6450
 Red. masses --      3.2264                 1.6894                 3.0864
 Frc consts  --      0.0196                 0.0178                 0.0481
 IR Inten    --      7.9615                 1.7367                 0.3087

                      7                      8                      9
                      A                      A                      A
 Frequencies --    184.9490               194.7327               229.3467
 Red. masses --      4.4868                 2.2513                 1.2518
 Frc consts  --      0.0904                 0.0503                 0.0388
 IR Inten    --      4.8046                 2.1736                 2.4173

                     10                     11                     12
                      A                      A                      A
 Frequencies --    239.7565               321.7851               394.4526
 Red. masses --      1.8151                 2.6138                 3.1335
 Frc consts  --      0.0615                 0.1595                 0.2873
 IR Inten    --      1.1289                 4.9756                22.8362

                     13                     14                     15
                      A                      A                      A
 Frequencies --    405.4224               424.1039               456.4059
 Red. masses --      2.7896                 1.2481                 3.0270
 Frc consts  --      0.2702                 0.1323                 0.3715
 IR Inten    --      2.5350               174.5463                 1.8660

                     16                     17                     18
                      A                      A                      A
 Frequencies --    529.1721               540.5269               577.2892
 Red. masses --      1.5760                 3.1451                 2.7975
 Frc consts  --      0.2600                 0.5414                 0.5493
 IR Inten    --     29.0164                 5.0072                61.7955

                     19                     20                     21
                      A                      A                      A
 Frequencies --    627.2391               696.1618               744.1134
 Red. masses --      2.6205                 5.0715                 3.6748
 Frc consts  --      0.6074                 1.4481                 1.1989
 IR Inten    --     12.4089                 1.2046                12.7296

                     22                     23                     24
                      A                      A                      A
 Frequencies --    767.8915               800.9360               894.1109
 Red. masses --      5.5572                 1.1749                 2.5551
 Frc consts  --      1.9307                 0.4441                 1.2035
 IR Inten    --     31.1609                 8.1370                 1.0676

                     25                     26                     27
                      A                      A                      A
 Frequencies --    925.3282               950.5669              1021.4419
 Red. masses --      2.9865                 2.6435                 1.1331
 Frc consts  --      1.5066                 1.4074                 0.6965
 IR Inten    --      3.1998                 2.6556                43.2107

                     28                     29                     30
                      A                      A                      A
 Frequencies --   1044.1667              1104.8163              1112.3765
 Red. masses --      2.4302                 1.6507                 1.6974
 Frc consts  --      1.5611                 1.1871                 1.2375
 IR Inten    --     29.2817                15.2174                13.9704

                     31                     32                     33
                      A                      A                      A
 Frequencies --   1121.1600              1164.0528              1213.4502
 Red. masses --      1.6594                 1.3256                 2.4270
 Frc consts  --      1.2289                 1.0583                 2.1055
 IR Inten    --     26.4068                 3.4780                70.7899

                     34                     35                     36
                      A                      A                      A
 Frequencies --   1265.6884              1282.6578              1329.1007
 Red. masses --      2.3328                 1.3469                 1.3331
 Frc consts  --      2.2018                 1.3056                 1.3874
 IR Inten    --     15.3797                 7.9419                 1.0286

                     37                     38                     39
                      A                      A                      A
 Frequencies --   1350.0241              1380.6440              1406.8862
 Red. masses --      1.6310                 3.5985                 1.2554
 Frc consts  --      1.7514                 4.0415                 1.4640
 IR Inten    --    171.5677               170.8383                 2.3529

                     40                     41                     42
                      A                      A                      A
 Frequencies --   1436.2732              1459.3139              1496.1998
 Red. masses --      1.2756                 1.9193                 1.2291
 Frc consts  --      1.5504                 2.4082                 1.6212
 IR Inten    --     18.3351                95.3404                18.2787

                     43                     44                     45
                      A                      A                      A
 Frequencies --   1512.5546              1521.9998              1524.9159
 Red. masses --      1.1906                 1.0501                 1.0549
 Frc consts  --      1.6048                 1.4332                 1.4453
 IR Inten    --     19.2104                 6.1381                 8.8588

                     46                     47                     48
                      A                      A                      A
 Frequencies --   1537.7366              1553.6514              1646.2564
 Red. masses --      1.0558                 1.1868                 1.2462
 Frc consts  --      1.4710                 1.6878                 1.9899
 IR Inten    --      8.2341                46.2074               113.1629

                     49                     50                     51
                      A                      A                      A
 Frequencies --   1699.1084              1733.7840              1793.1479
 Red. masses --      7.3071                 9.0412                 7.9562
 Frc consts  --     12.4290                16.0128                15.0725
 IR Inten    --      7.7121               258.8502               294.5076

                     52                     53                     54
                      A                      A                      A
 Frequencies --   3039.6495              3056.1869              3067.1073
 Red. masses --      1.0414                 1.0372                 1.0679
 Frc consts  --      5.6689                 5.7077                 5.9187
 IR Inten    --     38.7476                22.4994                40.7186

                     55                     56                     57
                      A                      A                      A
 Frequencies --   3090.2648              3115.9315              3141.6731
 Red. masses --      1.1022                 1.1014                 1.0970
 Frc consts  --      6.2017                 6.3007                 6.3792
 IR Inten    --     28.8511                24.1784                15.8791

                     58                     59                     60
                      A                      A                      A
 Frequencies --   3153.4195              3188.2690              3196.3470
 Red. masses --      1.1030                 1.0960                 1.0913
 Frc consts  --      6.4621                 6.5641                 6.5692
 IR Inten    --     18.4174                 6.7942                 2.5808

                     61                     62                     63
                      A                      A                      A
 Frequencies --   3209.9258              3580.1466              3699.9677
 Red. masses --      1.0885                 1.0459                 1.1030
 Frc consts  --      6.6078                 7.8982                 8.8964
 IR Inten    --      3.4458                36.6054                29.3126

 - Thermochemistry -
 -------------------
 Temperature   298.150 Kelvin.  Pressure   1.00000 Atm.
 Atom     1 has atomic number  6 and mass  12.00000

 Molecular mass:   156.08988 amu.
 Principal axes and moments of inertia in atomic units:
                           1         2         3
     Eigenvalues --   685.591353703.155564203.39750
           X            0.99978   0.02115   0.00137
           Y           -0.02114   0.99975  -0.00671
           Z           -0.00152   0.00668   0.99998
 This molecule is an asymmetric top.
 Rotational symmetry number  1.
 Warning -- assumption of classical behavior for rotation
           may cause significant error
 Rotational temperatures (Kelvin)      0.12633     0.02339     0.02061
 Rotational constants (GHZ):           2.63239     0.48735     0.42935
 Zero-point vibrational energy     506785.5 (Joules/Mol)
                                  121.12464 (Kcal/Mol)
 Warning -- explicit consideration of  18 degrees of freedom as
           vibrations may cause significant error
 Vibrational temperatures:     69.12    83.54    99.92   145.98   192.33
          (Kelvin)            234.01   266.10   280.18   329.98   344.96
                              462.98   567.53   583.31   610.19   656.67
                              761.36   777.70   830.59   902.46  1001.62
                             1070.61  1104.82  1152.37  1286.43  1331.34
                             1367.65  1469.63  1502.32  1589.58  1600.46
                             1613.10  1674.81  1745.88  1821.04  1845.46
                             1912.28  1942.38  1986.44  2024.20  2066.48
                             2099.63  2152.70  2176.23  2189.82  2194.01
                             2212.46  2235.36  2368.60  2444.64  2494.53
                             2579.94  4373.38  4397.17  4412.88  4446.20
                             4483.13  4520.17  4537.07  4587.21  4598.83
                             4618.37  5151.03  5323.43

 Zero-point correction=                           0.193024 (Hartree/Particle)
 Thermal correction to Energy=                    0.205584
 Thermal correction to Enthalpy=                  0.206528
 Thermal correction to Gibbs Free Energy=         0.153610
 Sum of electronic and zero-point Energies=           -533.766264
 Sum of electronic and thermal Energies=              -533.753705
 Sum of electronic and thermal Enthalpies=            -533.752760
 Sum of electronic and thermal Free Energies=         -533.805678

                     E (Thermal)             CV                S
                      KCal/Mol        Cal/Mol-Kelvin    Cal/Mol-Kelvin
 Total                  129.006             44.459            111.374
 Electronic               0.000              0.000              0.000
 Translational            0.889              2.981             41.045
 Rotational               0.889              2.981             30.746
 Vibrational            127.228             38.497             39.583
 Vibration     1          0.595              1.978              4.897
 Vibration     2          0.596              1.974              4.522
 Vibration     3          0.598              1.969              4.169
 Vibration     4          0.604              1.948              3.426
 Vibration     5          0.613              1.920              2.892
 Vibration     6          0.623              1.888              2.519
 Vibration     7          0.631              1.860              2.278
 Vibration     8          0.635              1.847              2.182
 Vibration     9          0.652              1.796              1.884
 Vibration    10          0.657              1.780              1.805
 Vibration    11          0.707              1.632              1.301
 Vibration    12          0.761              1.482              0.983
 Vibration    13          0.770              1.458              0.943
 Vibration    14          0.786              1.418              0.878
 Vibration    15          0.815              1.347              0.777
 Vibration    16          0.884              1.185              0.589
 Vibration    17          0.896              1.160              0.564
 Vibration    18          0.934              1.080              0.490

                           ! Non-Optimized Parameters !
 Normal termination of Gaussian 16 at Tue Dec  8 19:47:06 2020.

 ----------------------------------------------------------------------
 # B3LYP/6-311++G(d,p) empiricaldispersion=gd3bj scf=xqc pop=npa geom=c
 heck
 ----------------------------------------------------------------------

 ---------------------------------------
 CID_154073275_JID_1327_Energie_neutraal
 ---------------------------------------
 Structure from the checkpoint file:  "JID_1327.chk"
 Charge =  0 Multiplicity = 1

 SCF Done:  E(RB3LYP) =  -534.126212366     A.U. after   15 cycles
 Normal termination of Gaussian 16 at Tue Dec  8 19:48:50 2020.

 ----------------------------------------------------------------------
 # B3LYP/6-311++G(d,p) empiricaldispersion=gd3bj scf=xqc pop=npa geom=c
 heck
 ----------------------------------------------------------------------

 -------------------------------------
 CID_154073275_JID_1327_Energie_kation
 -------------------------------------
 Structure from the checkpoint file:  "JID_1327.chk"
 Charge =  1 Multiplicity = 2

 SCF Done:  E(UB3LYP) =  -533.800946788     A.U. after   26 cycles
 Normal termination of Gaussian 16 at Tue Dec  8 19:52:20 2020.
 Gaussian 16:  ES64L-G16RevA.03 25-Dec-2016

 ----------------------------------------------------------------------
 # B3LYP/6-311++G(d,p) empiricaldispersion=gd3bj scf=xqc pop=npa geom=c
 heck
 ----------------------------------------------------------------------

 ------------------------------------
 CID_154073275_JID_1327_Energie_anion
 ------------------------------------
 Structure from the checkpoint file:  "JID_1327.chk"
 Charge = -1 Multiplicity = 2

                         Standard orientation:
 ---------------------------------------------------------------------
 Center     Atomic      Atomic             Coordinates (Angstroms)
 Number     Number       Type             X           Y           Z
 ---------------------------------------------------------------------
      1          6           0        3.891500   -0.097583    0.512042
      2          6           0        2.928463    0.268652   -0.618416
      3          7           0        1.543423    0.416610   -0.160627
      4          6           0        1.175214    1.715657    0.384395
      5          6           0        0.792380   -0.720944   -0.065645
      6          8           0        1.250184   -1.839477   -0.303382
      7          6           0       -0.663155   -0.625951    0.271017
      8          6           0       -1.536436    0.204267   -0.312606
      9          6           0       -3.008966    0.209018   -0.067744
     10          8           0       -3.664374    1.234193   -0.200747
     11          7           0       -3.558746   -0.976144    0.359482
     12          1           0        3.877733    0.651609    1.311866
     13          1           0        4.916832   -0.165058    0.131994
     14          1           0        3.613573   -1.066662    0.934648
     15          1           0        3.218011    1.215300   -1.088698
     16          1           0        2.939953   -0.509790   -1.383377
     17          1           0        1.033373    2.457011   -0.412494
     18          1           0        0.255172    1.642391    0.961570
     19          1           0        1.969841    2.075337    1.048562
     20          1           0       -1.002374   -1.409985    0.943286
     21          1           0       -1.204766    0.993725   -0.980842
     22          1           0       -3.102237   -1.849526    0.138427
     23          1           0       -4.568328   -0.994043    0.417843
 ---------------------------------------------------------------------

 SCF Done:  E(UB3LYP) =  -534.133331086     A.U. after   31 cycles

 The electronic state is 2-A.
 Alpha  occ. eigenvalues --  -18.93240 -18.92975 -14.20527 -14.18846 -10.11382
 Alpha  occ. eigenvalues --  -10.10914 -10.08485 -10.08240 -10.05118 -10.00762
 Alpha  occ. eigenvalues --  -10.00518  -0.88912  -0.88286  -0.80073  -0.76067
 Alpha  occ. eigenvalues --   -0.65027  -0.62317  -0.58194  -0.53086  -0.48756
 Alpha  occ. eigenvalues --   -0.42916  -0.41369  -0.39562  -0.36725  -0.34716
 Alpha  occ. eigenvalues --   -0.33627  -0.32168  -0.31074  -0.29130  -0.27771
 Alpha  occ. eigenvalues --   -0.27189  -0.26426  -0.26091  -0.25187  -0.24607
 Alpha  occ. eigenvalues --   -0.23290  -0.21064  -0.13908  -0.13619  -0.11510
 Alpha  occ. eigenvalues --   -0.11092  -0.10029   0.04983
 Alpha virt. eigenvalues --    0.07081   0.08982   0.09171   0.09773   0.11687
 Alpha virt. eigenvalues --    0.12262   0.12699   0.13050   0.13315   0.14244
 Alpha virt. eigenvalues --    0.15407   0.16319   0.16628   0.17497   0.17865

  Beta  occ. eigenvalues --  -18.93035 -18.92694 -14.20496 -14.18806 -10.11280
  Beta  occ. eigenvalues --  -10.10761 -10.08482 -10.08237 -10.05093 -10.00424
  Beta  occ. eigenvalues --  -10.00238  -0.88582  -0.87815  -0.79916  -0.75871
  Beta  occ. eigenvalues --   -0.64828  -0.61681  -0.58117  -0.52776  -0.48081
  Beta  occ. eigenvalues --   -0.42585  -0.41222  -0.39438  -0.36599  -0.34495
  Beta  occ. eigenvalues --   -0.33444  -0.31931  -0.30808  -0.29050  -0.27606
  Beta  occ. eigenvalues --   -0.27014  -0.25996  -0.25476  -0.24688  -0.24241
  Beta  occ. eigenvalues --   -0.22964  -0.20703  -0.13064  -0.12580  -0.11028
  Beta  occ. eigenvalues --   -0.09828  -0.09341
  Beta virt. eigenvalues --    0.07362   0.08949   0.09266   0.09721   0.11182
  Beta virt. eigenvalues --    0.11694   0.12315   0.12648   0.13059   0.13335
  Beta virt. eigenvalues --    0.14214   0.15393   0.16195   0.16855   0.17754

 Mulliken charges and spin densities:
               1          2
     1  C    0.333349  -0.745978
     2  C   -0.531965   0.328348
     3  N    0.084620   0.008720
     4  C   -0.303764  -0.101242
     5  C   -0.420478  -0.001963
     6  O   -0.380092   0.062444
     7  C    0.037989   0.227466
     8  C   -0.000914   0.171607
     9  C   -0.049496   0.131912
    10  O   -0.438508   0.089310
    11  N   -0.383737   0.010744
    12  H    0.063249   0.036642
    13  H   -0.227491   0.346358
    14  H    0.070974   0.116035
    15  H   -0.131920   0.261891
    16  H    0.168189   0.005323
    17  H    0.096670   0.048529
    18  H    0.203304  -0.021197
    19  H    0.080121   0.021121
    20  H    0.156201  -0.019040
    21  H    0.131487  -0.012392
    22  H    0.182104   0.028786
    23  H    0.260108   0.006576
 Sum of Mulliken charges =  -1.00000   1.00000

 Dipole moment (field-independent basis, Debye):
    X=              1.5873    Y=              0.2404    Z=              1.0355  Tot=              1.9104
 Quadrupole moment (field-independent basis, Debye-Ang):
   XX=           -122.9986   YY=            -86.8987   ZZ=            -76.2323
   XY=             17.8613   XZ=             -0.4450   YZ=             -0.0054

 Summary of Natural Population Analysis:

                                       Natural Population
                Natural  -----------------------------------------------
    Atom  No    Charge         Core      Valence    Rydberg      Total
 -----------------------------------------------------------------------
      C    1   -0.29406      0.99966     2.28908    0.00532     3.29406
      C    2   -0.08645      0.99964     2.07508    0.01173     3.08645
      N    3   -0.25766      0.99964     2.74814    0.00988     3.75766
      C    4   -0.17657      0.99965     2.16889    0.00803     3.17657
      C    5    0.34470      0.99962     1.63309    0.02259     2.65530
      O    6   -0.31902      0.99988     3.31350    0.00564     4.31902
      C    7   -0.06788      0.99950     2.05913    0.00924     3.06788
      C    8   -0.08886      0.99948     2.08075    0.00862     3.08886
      C    9    0.33982      0.99969     1.63867    0.02182     2.66018
      O   10   -0.30849      0.99988     3.30203    0.00658     4.30849
      N   11   -0.41436      0.99971     2.90561    0.00904     3.91436
      H   12    0.09162      0.00000     0.40756    0.00082     0.40838
      H   13    0.09464      0.00000     0.40392    0.00144     0.40536
      H   14    0.10851      0.00000     0.39047    0.00102     0.39149
      H   15    0.08687      0.00000     0.41196    0.00117     0.41313
      H   16    0.10754      0.00000     0.39118    0.00128     0.39246
      H   17    0.08708      0.00000     0.41166    0.00126     0.41292
      H   18    0.11460      0.00000     0.38457    0.00082     0.38540
      H   19    0.08466      0.00000     0.41432    0.00102     0.41534
      H   20    0.09103      0.00000     0.40767    0.00130     0.40897
      H   21    0.09194      0.00000     0.40693    0.00113     0.40806
      H   22    0.18907      0.00000     0.30882    0.00211     0.31093
      H   23    0.18127      0.00000     0.31485    0.00388     0.31873
 =======================================================================
   * Total *    0.00000     10.99635    30.86791    0.13575    42.00000

 Normal termination of Gaussian 16 at Tue Dec  8 19:56:23 2020.
