 Gaussian 16, Revision A.03,

 -----------------------------------------------------------
 # opt freq B3LYP/6-31G(d) empiricaldispersion=gd3bj scf=xqc
 -----------------------------------------------------------

 -------------------------------
 CID_113763048_JID_8756_neutraal
 -------------------------------
 Symbolic Z-matrix:
 Charge =  0 Multiplicity = 1

 SCF Done:  E(RB3LYP) =  -1143.31294958     A.U. after   15 cycles
 SCF Done:  E(RB3LYP) =  -1143.32072615     A.U. after   13 cycles
 SCF Done:  E(RB3LYP) =  -1143.32146085     A.U. after   12 cycles
 SCF Done:  E(RB3LYP) =  -1143.32163718     A.U. after   12 cycles
 SCF Done:  E(RB3LYP) =  -1143.32220824     A.U. after   12 cycles
 SCF Done:  E(RB3LYP) =  -1143.32233949     A.U. after   12 cycles
 SCF Done:  E(RB3LYP) =  -1143.32237268     A.U. after   11 cycles
 SCF Done:  E(RB3LYP) =  -1143.32239060     A.U. after   11 cycles
 SCF Done:  E(RB3LYP) =  -1143.32240013     A.U. after   10 cycles
 SCF Done:  E(RB3LYP) =  -1143.32241023     A.U. after   11 cycles
 SCF Done:  E(RB3LYP) =  -1143.32878543     A.U. after   10 cycles
 SCF Done:  E(RB3LYP) =  -1143.32878865     A.U. after    9 cycles
 SCF Done:  E(RB3LYP) =  -1143.32878949     A.U. after    8 cycles
 SCF Done:  E(RB3LYP) =  -1143.32878967     A.U. after    7 cycles
 SCF Done:  E(RB3LYP) =  -1143.32878972     A.U. after    6 cycles
 Optimization completed.
    -- Stationary point found.
 Normal termination of Gaussian 16 at Fri Dec 11 21:12:37 2020.

 --------------------------------------------------------------------
 #N Geom=AllCheck Guess=TCheck SCRF=Check GenChk RB3LYP/6-31G(d) Freq
 --------------------------------------------------------------------

 Structure from the checkpoint file:  "JID_8756.chk"
 -------------------------------
 CID_113763048_JID_8756_neutraal
 -------------------------------
 Charge =  0 Multiplicity = 1

 SCF Done:  E(RB3LYP) =  -1143.32878972     A.U. after    1 cycles

  Exact polarizability: 253.449 -11.942 190.740 -19.693  -2.435 104.674
 Approx polarizability: 363.728 -28.589 351.506 -43.344   3.127 166.307

                      1                      2                      3
                      A                      A                      A
 Frequencies --     30.1502                43.4882                65.6174
 Red. masses --      5.5389                 4.1763                 4.9931
 Frc consts  --      0.0030                 0.0047                 0.0127
 IR Inten    --      0.2556                 0.4378                 1.6152

                      4                      5                      6
                      A                      A                      A
 Frequencies --     83.6063               116.9630               128.6937
 Red. masses --      3.9958                 2.9586                 5.2644
 Frc consts  --      0.0165                 0.0238                 0.0514
 IR Inten    --      1.9167                11.0563                 1.7863

                      7                      8                      9
                      A                      A                      A
 Frequencies --    159.8367               178.0551               207.8905
 Red. masses --      5.0229                 1.2324                 2.4248
 Frc consts  --      0.0756                 0.0230                 0.0617
 IR Inten    --      4.5744                 0.3431                 0.7896

                     10                     11                     12
                      A                      A                      A
 Frequencies --    225.4025               241.2351               259.5881
 Red. masses --      3.0990                 3.2654                 2.9017
 Frc consts  --      0.0928                 0.1120                 0.1152
 IR Inten    --     12.0446                 8.8499                 1.9252

                     13                     14                     15
                      A                      A                      A
 Frequencies --    284.0869               298.0213               302.8999
 Red. masses --      1.4319                 2.4484                 2.8101
 Frc consts  --      0.0681                 0.1281                 0.1519
 IR Inten    --      2.7879                 4.3178                 7.6916

                     16                     17                     18
                      A                      A                      A
 Frequencies --    311.3902               325.2719               334.1349
 Red. masses --      1.4242                 3.4818                 2.6804
 Frc consts  --      0.0814                 0.2170                 0.1763
 IR Inten    --     22.6240                 5.3484                 4.5059

                     19                     20                     21
                      A                      A                      A
 Frequencies --    352.6439               417.5638               423.9047
 Red. masses --      3.0868                 2.3432                 3.7070
 Frc consts  --      0.2262                 0.2407                 0.3925
 IR Inten    --      9.6474                25.4916                 9.7862

                     22                     23                     24
                      A                      A                      A
 Frequencies --    450.6188               473.1139               492.7530
 Red. masses --      2.1265                 6.5545                 3.9901
 Frc consts  --      0.2544                 0.8644                 0.5708
 IR Inten    --     60.7434                 2.7375                 8.5688

                     25                     26                     27
                      A                      A                      A
 Frequencies --    525.8940               550.7911               562.1832
 Red. masses --      2.8818                 4.1641                 4.2372
 Frc consts  --      0.4696                 0.7443                 0.7890
 IR Inten    --     26.4019                10.0430                 8.2103

                     28                     29                     30
                      A                      A                      A
 Frequencies --    608.8267               624.9080               644.0775
 Red. masses --      1.7942                 3.4013                 3.4782
 Frc consts  --      0.3918                 0.7826                 0.8501
 IR Inten    --    325.6481                46.5507                 3.2080

                     31                     32                     33
                      A                      A                      A
 Frequencies --    653.1288               674.4042               677.3298
 Red. masses --      5.2304                 3.1741                 3.9141
 Frc consts  --      1.3146                 0.8506                 1.0580
 IR Inten    --     12.9725                70.1482                 8.4707

                     34                     35                     36
                      A                      A                      A
 Frequencies --    745.3094               760.8737               770.0358
 Red. masses --      4.8535                 3.9269                 2.2141
 Frc consts  --      1.5885                 1.3395                 0.7735
 IR Inten    --     12.6952                 3.3483                25.6659

                     37                     38                     39
                      A                      A                      A
 Frequencies --    806.8663               854.3618               870.1873
 Red. masses --      2.8092                 4.0644                 2.1676
 Frc consts  --      1.0776                 1.7480                 0.9671
 IR Inten    --     17.0719                25.5611                 9.8225

                     40                     41                     42
                      A                      A                      A
 Frequencies --    879.9573               895.8413               904.0660
 Red. masses --      1.6871                 1.4558                 1.2715
 Frc consts  --      0.7697                 0.6884                 0.6123
 IR Inten    --     17.5951                43.3528                 3.0864

                     43                     44                     45
                      A                      A                      A
 Frequencies --    941.2533               965.4378               971.7064
 Red. masses --      1.8135                 1.4535                 1.3077
 Frc consts  --      0.9466                 0.7982                 0.7275
 IR Inten    --      0.4497                 5.4174                27.8595

                     46                     47                     48
                      A                      A                      A
 Frequencies --    980.2319               991.7671              1017.5745
 Red. masses --      3.0320                 1.3702                 2.1561
 Frc consts  --      1.7165                 0.7941                 1.3154
 IR Inten    --      6.4611                 4.9204                11.5579

                     49                     50                     51
                      A                      A                      A
 Frequencies --   1054.0553              1066.2904              1100.7340
 Red. masses --      1.8878                 6.3765                 1.8042
 Frc consts  --      1.2357                 4.2716                 1.2879
 IR Inten    --     12.8611                73.0340                10.1077

                     52                     53                     54
                      A                      A                      A
 Frequencies --   1125.6375              1142.1373              1152.9551
 Red. masses --      1.4791                 2.3579                 2.1376
 Frc consts  --      1.1042                 1.8122                 1.6742
 IR Inten    --      0.0931                 0.9724                 2.3878

                     55                     56                     57
                      A                      A                      A
 Frequencies --   1179.1083              1217.7952              1226.3786
 Red. masses --      2.1292                 1.6614                 1.7229
 Frc consts  --      1.7441                 1.4517                 1.5267
 IR Inten    --     29.0096                19.2598                42.2948

                     58                     59                     60
                      A                      A                      A
 Frequencies --   1278.8661              1286.3915              1312.4793
 Red. masses --      1.5569                 1.3157                 2.7605
 Frc consts  --      1.5002                 1.2828                 2.8017
 IR Inten    --     77.6000                10.0321                 4.7441

                     61                     62                     63
                      A                      A                      A
 Frequencies --   1330.0049              1345.7618              1357.2059
 Red. masses --      1.4357                 1.6080                 1.8816
 Frc consts  --      1.4963                 1.7158                 2.0420
 IR Inten    --     51.3555                 3.2255                56.4528

                     64                     65                     66
                      A                      A                      A
 Frequencies --   1370.8461              1393.3846              1396.8291
 Red. masses --      1.1937                 1.9071                 3.1600
 Frc consts  --      1.3217                 2.1815                 3.6327
 IR Inten    --     11.1625               141.0065                 6.5582

                     67                     68                     69
                      A                      A                      A
 Frequencies --   1411.3575              1433.4516              1439.3336
 Red. masses --      1.5582                 1.9812                 1.3641
 Frc consts  --      1.8287                 2.3985                 1.6650
 IR Inten    --      1.5029                42.9560                 8.4473

                     70                     71                     72
                      A                      A                      A
 Frequencies --   1478.9662              1486.8896              1494.1144
 Red. masses --      1.0642                 2.2934                 1.0783
 Frc consts  --      1.3715                 2.9874                 1.4182
 IR Inten    --      6.5181                42.6479                10.0980

                     73                     74                     75
                      A                      A                      A
 Frequencies --   1517.0671              1519.2389              1526.8854
 Red. masses --      1.3361                 2.1497                 1.0742
 Frc consts  --      1.8117                 2.9233                 1.4756
 IR Inten    --     12.6133                15.1404                17.4535

                     76                     77                     78
                      A                      A                      A
 Frequencies --   1540.7073              1547.9476              1594.5886
 Red. masses --      1.0706                 2.0032                 2.7355
 Frc consts  --      1.4974                 2.8280                 4.0982
 IR Inten    --     21.3069                61.3724                97.1656

                     79                     80                     81
                      A                      A                      A
 Frequencies --   1628.8084              1651.7012              1680.9235
 Red. masses --      5.4642                 4.1201                 2.0583
 Frc consts  --      8.5411                 6.6226                 3.4266
 IR Inten    --    279.1665                36.3221                53.0614

                     82                     83                     84
                      A                      A                      A
 Frequencies --   1699.9788              3029.7685              3051.0494
 Red. masses --      1.8111                 1.0726                 1.0411
 Frc consts  --      3.0838                 5.8011                 5.7101
 IR Inten    --    246.3942                40.6833                18.7791

                     85                     86                     87
                      A                      A                      A
 Frequencies --   3058.8755              3082.4243              3110.9354
 Red. masses --      1.0800                 1.0311                 1.1012
 Frc consts  --      5.9539                 5.7719                 6.2790
 IR Inten    --     30.0750                11.5114                19.0789

                     88                     89                     90
                      A                      A                      A
 Frequencies --   3133.3107              3142.3439              3155.2082
 Red. masses --      1.0920                 1.1009                 1.0895
 Frc consts  --      6.3165                 6.4046                 6.3902
 IR Inten    --      0.9065                17.9753                45.4286

                     91                     92                     93
                      A                      A                      A
 Frequencies --   3166.1355              3169.0353              3188.3656
 Red. masses --      1.0852                 1.1050                 1.0942
 Frc consts  --      6.4096                 6.5384                 6.5534
 IR Inten    --     17.0492                 3.1361                28.3817

                     94                     95                     96
                      A                      A                      A
 Frequencies --   3201.2565              3207.0322              3213.0396
 Red. masses --      1.0906                 1.1041                 1.0944
 Frc consts  --      6.5850                 6.6906                 6.6569
 IR Inten    --     11.5890                10.7661                 9.6789

                     97                     98                     99
                      A                      A                      A
 Frequencies --   3550.7757              3641.0042              3650.2928
 Red. masses --      1.0478                 1.0750                 1.0982
 Frc consts  --      7.7835                 8.3962                 8.6216
 IR Inten    --     18.3882                10.9998                 8.7509

 - Thermochemistry -
 -------------------
 Temperature   298.150 Kelvin.  Pressure   1.00000 Atm.
 Atom     1 has atomic number  6 and mass  12.00000

 Molecular mass:   263.10923 amu.
 Principal axes and moments of inertia in atomic units:
                           1         2         3
     Eigenvalues --  2151.403079085.72050**********
           X            0.99997   0.00709   0.00027
           Y           -0.00709   0.99995  -0.00637
           Z           -0.00031   0.00637   0.99998
 This molecule is an asymmetric top.
 Rotational symmetry number  1.
 Warning -- assumption of classical behavior for rotation
           may cause significant error
 Rotational temperatures (Kelvin)      0.04026     0.00953     0.00840
 Rotational constants (GHZ):           0.83887     0.19863     0.17511
 Zero-point vibrational energy     758573.7 (Joules/Mol)
                                  181.30346 (Kcal/Mol)
 Warning -- explicit consideration of  28 degrees of freedom as
           vibrations may cause significant error
 Vibrational temperatures:     43.38    62.57    94.41   120.29   168.28
          (Kelvin)            185.16   229.97   256.18   299.11   324.30
                              347.08   373.49   408.74   428.79   435.81
                              448.02   467.99   480.75   507.38   600.78
                              609.90   648.34   680.71   708.96   756.64
                              792.47   808.86   875.97   899.10   926.68
                              939.71   970.32   974.53  1072.33  1094.73
                             1107.91  1160.90  1229.24  1252.01  1266.06
                             1288.92  1300.75  1354.25  1389.05  1398.07
                             1410.34  1426.93  1464.06  1516.55  1534.15
                             1583.71  1619.54  1643.28  1658.85  1696.47
                             1752.14  1764.49  1840.00  1850.83  1888.36
                             1913.58  1936.25  1952.72  1972.34  2004.77
                             2009.73  2030.63  2062.42  2070.88  2127.90
                             2139.30  2149.70  2182.72  2185.85  2196.85
                             2216.73  2227.15  2294.26  2343.49  2376.43
                             2418.47  2445.89  4359.16  4389.78  4401.04
                             4434.92  4475.94  4508.14  4521.13  4539.64
                             4555.36  4559.53  4587.35  4605.89  4614.20
                             4622.85  5108.77  5238.59  5251.96

 Zero-point correction=                           0.288925 (Hartree/Particle)
 Thermal correction to Energy=                    0.306461
 Thermal correction to Enthalpy=                  0.307405
 Thermal correction to Gibbs Free Energy=         0.243663
 Sum of electronic and zero-point Energies=          -1143.039864
 Sum of electronic and thermal Energies=             -1143.022329
 Sum of electronic and thermal Enthalpies=           -1143.021385
 Sum of electronic and thermal Free Energies=        -1143.085127

                     E (Thermal)             CV                S
                      KCal/Mol        Cal/Mol-Kelvin    Cal/Mol-Kelvin
 Total                  192.307             68.334            134.156
 Electronic               0.000              0.000              0.000
 Translational            0.889              2.981             42.602
 Rotational               0.889              2.981             33.665
 Vibrational            190.530             62.372             57.890
 Vibration     1          0.594              1.984              5.820
 Vibration     2          0.595              1.980              5.093
 Vibration     3          0.597              1.971              4.281
 Vibration     4          0.601              1.960              3.804
 Vibration     5          0.608              1.935              3.150
 Vibration     6          0.611              1.925              2.965
 Vibration     7          0.622              1.892              2.552
 Vibration     8          0.628              1.869              2.349
 Vibration     9          0.641              1.829              2.062
 Vibration    10          0.650              1.802              1.915
 Vibration    11          0.658              1.777              1.794
 Vibration    12          0.668              1.747              1.665
 Vibration    13          0.682              1.703              1.509
 Vibration    14          0.691              1.677              1.428
 Vibration    15          0.694              1.668              1.401
 Vibration    16          0.700              1.652              1.355
 Vibration    17          0.709              1.625              1.283
 Vibration    18          0.716              1.607              1.240
 Vibration    19          0.729              1.570              1.154
 Vibration    20          0.781              1.432              0.900
 Vibration    21          0.786              1.418              0.879
 Vibration    22          0.809              1.360              0.794
 Vibration    23          0.830              1.310              0.729
 Vibration    24          0.848              1.266              0.676
 Vibration    25          0.881              1.193              0.596
 Vibration    26          0.906              1.138              0.543
 Vibration    27          0.918              1.113              0.519
 Vibration    28          0.968              1.013              0.435

                           ! Non-Optimized Parameters !
 Normal termination of Gaussian 16 at Fri Dec 11 21:29:38 2020.

 ----------------------------------------------------------------------
 # B3LYP/6-311++G(d,p) empiricaldispersion=gd3bj scf=xqc pop=npa geom=c
 heck
 ----------------------------------------------------------------------

 ---------------------------------------
 CID_113763048_JID_8756_Energie_neutraal
 ---------------------------------------
 Structure from the checkpoint file:  "JID_8756.chk"
 Charge =  0 Multiplicity = 1

 SCF Done:  E(RB3LYP) =  -1143.56707716     A.U. after   17 cycles
 Normal termination of Gaussian 16 at Fri Dec 11 21:38:26 2020.

 ----------------------------------------------------------------------
 # B3LYP/6-311++G(d,p) empiricaldispersion=gd3bj scf=xqc pop=npa geom=c
 heck
 ----------------------------------------------------------------------

 -------------------------------------
 CID_113763048_JID_8756_Energie_kation
 -------------------------------------
 Structure from the checkpoint file:  "JID_8756.chk"
 Charge =  1 Multiplicity = 2

 SCF Done:  E(UB3LYP) =  -1143.30229328     A.U. after   30 cycles
 Normal termination of Gaussian 16 at Fri Dec 11 22:00:29 2020.
 Gaussian 16:  ES64L-G16RevA.03 25-Dec-2016

 ----------------------------------------------------------------------
 # B3LYP/6-311++G(d,p) empiricaldispersion=gd3bj scf=xqc pop=npa geom=c
 heck
 ----------------------------------------------------------------------

 ------------------------------------
 CID_113763048_JID_8756_Energie_anion
 ------------------------------------
 Structure from the checkpoint file:  "JID_8756.chk"
 Charge = -1 Multiplicity = 2

                         Standard orientation:
 ---------------------------------------------------------------------
 Center     Atomic      Atomic             Coordinates (Angstroms)
 Number     Number       Type             X           Y           Z
 ---------------------------------------------------------------------
      1          6           0       -3.085324   -2.395410   -0.313453
      2          6           0       -3.229545   -1.119910    0.507921
      3          6           0       -2.018641   -0.767046    1.381521
      4          7           0       -0.730878   -0.890261    0.717499
      5          6           0        0.155263    0.156429    0.529152
      6          6           0        1.537601   -0.124761    0.255952
      7          6           0        2.087644   -1.428602    0.172768
      8          6           0        3.422302   -1.635382   -0.082813
      9          6           0        4.303360   -0.535925   -0.269681
     10          6           0        3.789823    0.747890   -0.198249
     11          6           0        2.419644    0.986531    0.054058
     12          7           0        2.006398    2.289102    0.097026
     13          6           0        0.722565    2.489592    0.325425
     14          6           0       -0.243957    1.488432    0.542432
     15          7           0        5.642817   -0.776668   -0.580866
     16         16           0       -3.786697    0.325904   -0.539154
     17          8           0       -3.546509    1.566835    0.307008
     18          6           0       -2.520848    0.302247   -1.864810
     19          1           0       -2.172939   -2.371102   -0.915354
     20          1           0       -3.942188   -2.545616   -0.979728
     21          1           0       -3.030195   -3.265397    0.351757
     22          1           0       -4.088609   -1.213167    1.184570
     23          1           0       -2.151585    0.249282    1.759385
     24          1           0       -2.034213   -1.436860    2.252283
     25          1           0       -0.295380   -1.791150    0.836889
     26          1           0        1.458323   -2.307127    0.291216
     27          1           0        3.812915   -2.647393   -0.155136
     28          1           0        4.424284    1.617738   -0.340450
     29          1           0        0.397780    3.529954    0.343928
     30          1           0       -1.282166    1.770309    0.679137
     31          1           0        6.261776    0.006566   -0.411753
     32          1           0        6.020965   -1.636191   -0.202333
     33          1           0       -1.517001    0.409376   -1.455277
     34          1           0       -2.617928   -0.618468   -2.445281
     35          1           0       -2.752291    1.160377   -2.500396
 ---------------------------------------------------------------------

 SCF Done:  E(UB3LYP) =  -1143.56687626     A.U. after   33 cycles
 SCF Done:  E(UB3LYP) =  -1143.56687626     a.u. after    1 cycles

 The electronic state is 2-A.
 Alpha  occ. eigenvalues --  -88.84937 -18.98733 -14.22886 -14.22610 -14.16971
 Alpha  occ. eigenvalues --  -10.11310 -10.11238 -10.10771 -10.10565 -10.09941
 Alpha  occ. eigenvalues --  -10.09074 -10.07913 -10.07668 -10.06657 -10.06363
 Alpha  occ. eigenvalues --  -10.06025 -10.04765 -10.04296  -7.92676  -5.88951
 Alpha  occ. eigenvalues --   -5.88811  -5.88253  -0.91498  -0.84304  -0.82733
 Alpha  occ. eigenvalues --   -0.81056  -0.72688  -0.71725  -0.67492  -0.65396
 Alpha  occ. eigenvalues --   -0.63229  -0.62034  -0.59849  -0.55942  -0.53034
 Alpha  occ. eigenvalues --   -0.51254  -0.49292  -0.46990  -0.44443  -0.42331
 Alpha  occ. eigenvalues --   -0.42121  -0.39560  -0.38970  -0.37477  -0.37196
 Alpha  occ. eigenvalues --   -0.35230  -0.34086  -0.33798  -0.33381  -0.32622
 Alpha  occ. eigenvalues --   -0.31716  -0.31184  -0.30494  -0.30263  -0.29766
 Alpha  occ. eigenvalues --   -0.28564  -0.27736  -0.26601  -0.26411  -0.25825
 Alpha  occ. eigenvalues --   -0.24878  -0.23885  -0.22242  -0.19807  -0.17673
 Alpha  occ. eigenvalues --   -0.14651  -0.14048  -0.13402  -0.11317  -0.09712
 Alpha  occ. eigenvalues --    0.03702
 Alpha virt. eigenvalues --    0.05662   0.06062   0.07369   0.07723   0.08465
 Alpha virt. eigenvalues --    0.08902   0.09794   0.09906   0.10497   0.10750
 Alpha virt. eigenvalues --    0.10808   0.10990   0.11953   0.12561   0.13086

  Beta  occ. eigenvalues --  -88.84936 -18.98728 -14.22879 -14.22600 -14.16870
  Beta  occ. eigenvalues --  -10.11299 -10.11223 -10.10763 -10.10387 -10.09929
  Beta  occ. eigenvalues --  -10.09091 -10.07823 -10.07605 -10.06700 -10.06211
  Beta  occ. eigenvalues --  -10.05943 -10.04670 -10.04324  -7.92675  -5.88950
  Beta  occ. eigenvalues --   -5.88809  -5.88251  -0.91489  -0.84186  -0.82683
  Beta  occ. eigenvalues --   -0.80907  -0.72566  -0.71613  -0.67374  -0.65324
  Beta  occ. eigenvalues --   -0.63049  -0.61885  -0.59773  -0.55885  -0.52781
  Beta  occ. eigenvalues --   -0.51194  -0.49168  -0.46914  -0.44376  -0.42269
  Beta  occ. eigenvalues --   -0.42001  -0.39486  -0.38891  -0.37437  -0.37147
  Beta  occ. eigenvalues --   -0.35187  -0.34027  -0.33746  -0.33332  -0.32571
  Beta  occ. eigenvalues --   -0.31631  -0.31112  -0.30340  -0.30048  -0.29667
  Beta  occ. eigenvalues --   -0.28482  -0.27635  -0.26473  -0.26374  -0.25668
  Beta  occ. eigenvalues --   -0.24778  -0.23803  -0.21792  -0.19409  -0.17651
  Beta  occ. eigenvalues --   -0.14277  -0.13891  -0.13302  -0.11035  -0.09214
  Beta virt. eigenvalues --    0.05969   0.06508   0.07222   0.07836   0.08099
  Beta virt. eigenvalues --    0.08752   0.09096   0.09839   0.09980   0.10766
  Beta virt. eigenvalues --    0.10869   0.11001   0.11251   0.12159   0.12906

 Mulliken charges and spin densities:
               1          2
     1  C    1.241994  -1.949760
     2  C   -0.531441   0.796645
     3  C   -0.429422  -0.342161
     4  N    0.144246   0.014395
     5  C    0.158338   0.005960
     6  C    0.830010   0.074512
     7  C   -0.356596   0.007565
     8  C    0.017526  -0.009912
     9  C   -0.220682  -0.051540
    10  C   -0.674593   0.220410
    11  C   -1.167764  -0.025528
    12  N   -0.019020   0.043475
    13  C   -0.052686   0.061918
    14  C    0.281884  -0.425611
    15  N   -0.325602  -0.000674
    16  S    0.749038  -0.254825
    17  O   -0.440130   0.008109
    18  C   -0.573398  -0.137325
    19  H   -0.010939   0.202607
    20  H   -0.290292   0.440545
    21  H   -0.594965   0.766219
    22  H   -0.095981   0.394951
    23  H    0.264673  -0.061908
    24  H   -0.461116   0.656962
    25  H    0.441208  -0.127174
    26  H   -0.386935   0.433729
    27  H    0.045892   0.085371
    28  H    0.139793  -0.002787
    29  H    0.161671  -0.006153
    30  H    0.285964  -0.004245
    31  H    0.228905  -0.000393
    32  H    0.215289   0.007693
    33  H    0.274661   0.005316
    34  H   -0.017300   0.161665
    35  H    0.167770   0.011952
 Sum of Mulliken charges =  -1.00000   1.00000

 Dipole moment (field-independent basis, Debye):
    X=              3.7886    Y=              1.1036    Z=             -1.4021  Tot=              4.1877
 Quadrupole moment (field-independent basis, Debye-Ang):
   XX=           -172.0072   YY=           -167.7220   ZZ=           -138.7339
   XY=            -16.1207   XZ=             11.1730   YZ=              0.4520

 Summary of Natural Population Analysis:

                                       Natural Population
                Natural  -----------------------------------------------
    Atom  No    Charge         Core      Valence    Rydberg      Total
 -----------------------------------------------------------------------
      C    1   -0.29991      0.99963     2.29251    0.00778     3.29991
      C    2   -0.18880      0.99956     2.17149    0.01774     3.18880
      C    3   -0.09878      0.99957     2.08570    0.01352     3.09878
      N    4   -0.31560      0.99966     2.80474    0.01120     3.81560
      C    5    0.14310      0.99946     1.84626    0.01118     2.85690
      C    6   -0.07865      0.99946     2.07009    0.00911     3.07865
      C    7   -0.06025      0.99954     2.05096    0.00974     3.06025
      C    8   -0.11202      0.99953     2.10179    0.01070     3.11202
      C    9    0.08226      0.99949     1.90800    0.01025     2.91774
      C   10   -0.11317      0.99949     2.10458    0.00910     3.11317
      C   11    0.09068      0.99949     1.89378    0.01605     2.90932
      N   12   -0.24740      0.99969     2.73682    0.01089     3.74740
      C   13    0.05964      0.99962     1.92730    0.01343     2.94036
      C   14   -0.18890      0.99948     2.18003    0.00938     3.18890
      N   15   -0.39856      0.99972     2.88974    0.00911     3.89856
      S   16    0.57698      4.99943     2.36990    0.05370     7.42302
      O   17   -0.48802      0.99993     3.48171    0.00638     4.48802
      C   18   -0.38289      0.99960     2.37583    0.00746     3.38289
      H   19    0.10660      0.00000     0.39148    0.00192     0.39340
      H   20    0.10271      0.00000     0.39515    0.00214     0.39729
      H   21    0.11258      0.00000     0.38335    0.00408     0.38742
      H   22    0.10757      0.00000     0.39060    0.00183     0.39243
      H   23    0.11578      0.00000     0.38263    0.00159     0.38422
      H   24    0.10061      0.00000     0.39806    0.00133     0.39939
      H   25    0.18969      0.00000     0.30744    0.00287     0.31031
      H   26    0.09146      0.00000     0.40726    0.00128     0.40854
      H   27    0.09331      0.00000     0.40573    0.00096     0.40669
      H   28    0.09773      0.00000     0.40074    0.00153     0.40227
      H   29    0.08192      0.00000     0.41701    0.00108     0.41808
      H   30    0.11980      0.00000     0.37889    0.00131     0.38020
      H   31    0.18111      0.00000     0.31760    0.00130     0.31889
      H   32    0.18041      0.00000     0.31801    0.00158     0.31959
      H   33    0.12296      0.00000     0.37577    0.00128     0.37704
      H   34    0.10816      0.00000     0.39034    0.00150     0.39184
      H   35    0.10793      0.00000     0.39110    0.00097     0.39207
 =======================================================================
   * Total *    0.00001     21.99235    47.74237    0.26527    69.99999

 Normal termination of Gaussian 16 at Fri Dec 11 22:25:00 2020.
