 Gaussian 16, Revision A.03,

 -----------------------------------------------------------
 # opt freq B3LYP/6-31G(d) empiricaldispersion=gd3bj scf=xqc
 -----------------------------------------------------------

 -------------------------------
 CID_117043631_JID_4043_neutraal
 -------------------------------
 Symbolic Z-matrix:
 Charge =  0 Multiplicity = 1

 SCF Done:  E(RB3LYP) =  -562.846091735     A.U. after   14 cycles
 SCF Done:  E(RB3LYP) =  -562.849077551     A.U. after   12 cycles
 SCF Done:  E(RB3LYP) =  -562.849681257     A.U. after   12 cycles
 SCF Done:  E(RB3LYP) =  -562.850010979     A.U. after   12 cycles
 SCF Done:  E(RB3LYP) =  -562.850162056     A.U. after   10 cycles
 SCF Done:  E(RB3LYP) =  -562.850318870     A.U. after   11 cycles
 SCF Done:  E(RB3LYP) =  -562.850345907     A.U. after    9 cycles
 SCF Done:  E(RB3LYP) =  -562.850353385     A.U. after    9 cycles
 SCF Done:  E(RB3LYP) =  -562.850357592     A.U. after    9 cycles
 SCF Done:  E(RB3LYP) =  -562.850358979     A.U. after    8 cycles
 SCF Done:  E(RB3LYP) =  -562.850359385     A.U. after    7 cycles
 SCF Done:  E(RB3LYP) =  -562.850359448     A.U. after    7 cycles
 Optimization completed.
    -- Stationary point found.
 Normal termination of Gaussian 16 at Thu Dec 10 09:16:48 2020.

 --------------------------------------------------------------------
 #N Geom=AllCheck Guess=TCheck SCRF=Check GenChk RB3LYP/6-31G(d) Freq
 --------------------------------------------------------------------

 Structure from the checkpoint file:  "JID_4043.chk"
 -------------------------------
 CID_117043631_JID_4043_neutraal
 -------------------------------
 Charge =  0 Multiplicity = 1

 SCF Done:  E(RB3LYP) =  -562.850359448     A.U. after    1 cycles

  Exact polarizability: 195.404   0.358 142.929   0.890  -1.950  97.539
 Approx polarizability: 257.567   2.079 229.712  -1.424  -5.685 141.604

                      1                      2                      3
                      A                      A                      A
 Frequencies --     40.9652                63.9669                87.5224
 Red. masses --      2.8071                 3.3682                 2.9158
 Frc consts  --      0.0028                 0.0081                 0.0132
 IR Inten    --      0.0392                 0.3665                 1.6649

                      4                      5                      6
                      A                      A                      A
 Frequencies --    156.5183               162.8752               184.3110
 Red. masses --      2.5225                 2.7251                 1.2560
 Frc consts  --      0.0364                 0.0426                 0.0251
 IR Inten    --      0.7645                 0.0946                 0.5943

                      7                      8                      9
                      A                      A                      A
 Frequencies --    205.1784               224.9010               238.6871
 Red. masses --      1.4751                 1.6181                 1.1116
 Frc consts  --      0.0366                 0.0482                 0.0373
 IR Inten    --      0.5046                 1.5751                 0.1490

                     10                     11                     12
                      A                      A                      A
 Frequencies --    255.7161               268.5476               280.4126
 Red. masses --      1.9990                 2.6352                 1.1857
 Frc consts  --      0.0770                 0.1120                 0.0549
 IR Inten    --      0.2811                 0.3915                 0.0310

                     13                     14                     15
                      A                      A                      A
 Frequencies --    300.6381               306.4920               317.0015
 Red. masses --      1.0983                 2.4215                 2.7076
 Frc consts  --      0.0585                 0.1340                 0.1603
 IR Inten    --      0.3557                 0.4663                 0.7954

                     16                     17                     18
                      A                      A                      A
 Frequencies --    336.3021               362.7746               381.1409
 Red. masses --      1.0432                 2.6679                 2.4330
 Frc consts  --      0.0695                 0.2069                 0.2082
 IR Inten    --      0.0170                 1.7381                 0.1629

                     19                     20                     21
                      A                      A                      A
 Frequencies --    404.3035               439.5411               453.2211
 Red. masses --      2.5009                 2.9375                 3.1671
 Frc consts  --      0.2409                 0.3344                 0.3833
 IR Inten    --      1.8668                 1.3008                 2.1363

                     22                     23                     24
                      A                      A                      A
 Frequencies --    486.2701               507.4834               533.0764
 Red. masses --      3.4740                 3.1890                 2.9750
 Frc consts  --      0.4840                 0.4839                 0.4981
 IR Inten    --      1.5698                 3.2066                 0.3000

                     25                     26                     27
                      A                      A                      A
 Frequencies --    579.7348               636.4231               657.6545
 Red. masses --      4.1030                 2.8006                 4.1700
 Frc consts  --      0.8125                 0.6683                 1.0626
 IR Inten    --      1.2201                 8.0632                 2.0587

                     28                     29                     30
                      A                      A                      A
 Frequencies --    743.7135               764.7278               824.7440
 Red. masses --      4.9784                 3.9625                 3.0863
 Frc consts  --      1.6224                 1.3653                 1.2369
 IR Inten    --      2.0037                 0.1630                 0.8471

                     31                     32                     33
                      A                      A                      A
 Frequencies --    845.2989               908.1438               930.2938
 Red. masses --      1.5227                 1.3816                 2.9496
 Frc consts  --      0.6410                 0.6714                 1.5040
 IR Inten    --     16.3466                 4.5072                11.5513

                     34                     35                     36
                      A                      A                      A
 Frequencies --    939.8025               950.7926               952.9098
 Red. masses --      1.7022                 1.3333                 1.7022
 Frc consts  --      0.8858                 0.7102                 0.9107
 IR Inten    --      0.9410                 0.7053                 2.1820

                     37                     38                     39
                      A                      A                      A
 Frequencies --    974.5302               979.5591              1024.5462
 Red. masses --      1.1974                 3.4991                 1.5232
 Frc consts  --      0.6700                 1.9782                 0.9421
 IR Inten    --      0.0975                27.4486                 3.7345

                     40                     41                     42
                      A                      A                      A
 Frequencies --   1059.4681              1064.4156              1076.6693
 Red. masses --      1.4069                 1.3896                 1.4947
 Frc consts  --      0.9304                 0.9276                 1.0209
 IR Inten    --      2.2291                 0.0023                 2.0140

                     43                     44                     45
                      A                      A                      A
 Frequencies --   1083.6047              1131.6909              1139.8047
 Red. masses --      1.5545                 1.3057                 1.9767
 Frc consts  --      1.0755                 0.9853                 1.5130
 IR Inten    --     14.0717                15.2993                27.0657

                     46                     47                     48
                      A                      A                      A
 Frequencies --   1166.5767              1191.3541              1207.3400
 Red. masses --      2.1112                 1.4714                 1.8071
 Frc consts  --      1.6928                 1.2304                 1.5520
 IR Inten    --     26.0205                 8.3363                25.0424

                     49                     50                     51
                      A                      A                      A
 Frequencies --   1231.7098              1243.6836              1244.4871
 Red. masses --      1.7249                 2.7249                 2.8245
 Frc consts  --      1.5419                 2.4832                 2.5773
 IR Inten    --      9.7905                 5.7567                 1.4110

                     52                     53                     54
                      A                      A                      A
 Frequencies --   1251.1869              1309.9757              1339.8501
 Red. masses --      2.8271                 2.8345                 1.5802
 Frc consts  --      2.6076                 2.8658                 1.6714
 IR Inten    --     11.8498                25.0489                 2.3510

                     55                     56                     57
                      A                      A                      A
 Frequencies --   1350.0219              1364.6627              1424.5731
 Red. masses --      5.5348                 3.0275                 1.2992
 Frc consts  --      5.9434                 3.3219                 1.5534
 IR Inten    --      6.2657                55.0759                 5.6015

                     58                     59                     60
                      A                      A                      A
 Frequencies --   1426.1311              1436.3396              1455.0867
 Red. masses --      1.2150                 1.2560                 2.3403
 Frc consts  --      1.4560                 1.5267                 2.9194
 IR Inten    --      3.9241                 0.7061                 5.1710

                     61                     62                     63
                      A                      A                      A
 Frequencies --   1458.8066              1467.3904              1493.7587
 Red. masses --      1.3481                 1.1542                 1.2041
 Frc consts  --      1.6903                 1.4643                 1.5830
 IR Inten    --      6.6693                 0.5471                 4.5541

                     64                     65                     66
                      A                      A                      A
 Frequencies --   1508.2462              1512.5633              1514.8071
 Red. masses --      1.0528                 1.0499                 1.0616
 Frc consts  --      1.4111                 1.4152                 1.4352
 IR Inten    --      8.1060                 0.0507                 6.0992

                     67                     68                     69
                      A                      A                      A
 Frequencies --   1516.9235              1519.6862              1522.2870
 Red. masses --      1.0456                 1.0721                 1.0661
 Frc consts  --      1.4176                 1.4588                 1.4556
 IR Inten    --      0.1310                12.7307                19.2210

                     70                     71                     72
                      A                      A                      A
 Frequencies --   1529.7281              1533.4410              1536.9335
 Red. masses --      1.0684                 1.0747                 1.1165
 Frc consts  --      1.4731                 1.4889                 1.5538
 IR Inten    --     10.2989                 6.9258                 3.7787

                     73                     74                     75
                      A                      A                      A
 Frequencies --   1538.1314              1549.9031              1551.0854
 Red. masses --      1.0556                 1.1127                 1.0638
 Frc consts  --      1.4714                 1.5749                 1.5080
 IR Inten    --      3.2297                 0.7197                 3.5184

                     76                     77                     78
                      A                      A                      A
 Frequencies --   1563.7904              1623.6146              1671.0442
 Red. masses --      1.9068                 6.2700                 5.5986
 Frc consts  --      2.7473                 9.7382                 9.2109
 IR Inten    --     88.2042                 0.9580                 5.8686

                     79                     80                     81
                      A                      A                      A
 Frequencies --   2954.4352              2967.6463              3034.8331
 Red. masses --      1.0604                 1.0607                 1.0456
 Frc consts  --      5.4532                 5.5040                 5.6742
 IR Inten    --     60.5597               122.3924                37.0566

                     82                     83                     84
                      A                      A                      A
 Frequencies --   3043.0991              3043.9639              3051.7405
 Red. masses --      1.0356                 1.0349                 1.0363
 Frc consts  --      5.6503                 5.6499                 5.6864
 IR Inten    --     28.2341                26.0467                31.1555

                     85                     86                     87
                      A                      A                      A
 Frequencies --   3078.4683              3083.7119              3094.8857
 Red. masses --      1.0749                 1.0786                 1.0890
 Frc consts  --      6.0016                 6.0433                 6.1458
 IR Inten    --     32.4185                64.7833                24.4324

                     88                     89                     90
                      A                      A                      A
 Frequencies --   3108.8440              3109.7841              3117.2525
 Red. masses --      1.1015                 1.1021                 1.1027
 Frc consts  --      6.2726                 6.2795                 6.3134
 IR Inten    --      6.4389                 5.5709                26.7684

                     91                     92                     93
                      A                      A                      A
 Frequencies --   3117.8114              3123.6007              3125.9542
 Red. masses --      1.1014                 1.1021                 1.1013
 Frc consts  --      6.3081                 6.3357                 6.3404
 IR Inten    --    100.9371                20.5234                43.2279

                     94                     95                     96
                      A                      A                      A
 Frequencies --   3134.1770              3137.6127              3160.7216
 Red. masses --      1.1027                 1.1014                 1.0963
 Frc consts  --      6.3818                 6.3886                 6.4530
 IR Inten    --     11.4337                24.0053                18.6950

                     97                     98                     99
                      A                      A                      A
 Frequencies --   3185.6858              3205.5067              3211.4367
 Red. masses --      1.0870                 1.0882                 1.0921
 Frc consts  --      6.4994                 6.5881                 6.6362
 IR Inten    --     17.7556                19.2178                13.2853

 - Thermochemistry -
 -------------------
 Temperature   298.150 Kelvin.  Pressure   1.00000 Atm.
 Atom     1 has atomic number  6 and mass  12.00000

 Molecular mass:   191.16740 amu.
 Principal axes and moments of inertia in atomic units:
                           1         2         3
     Eigenvalues --  1266.211754832.022035463.60860
           X            1.00000  -0.00050   0.00244
           Y            0.00049   0.99999   0.00319
           Z           -0.00245  -0.00319   0.99999
 This molecule is an asymmetric top.
 Rotational symmetry number  1.
 Warning -- assumption of classical behavior for rotation
           may cause significant error
 Rotational temperatures (Kelvin)      0.06840     0.01792     0.01585
 Rotational constants (GHZ):           1.42531     0.37350     0.33032
 Zero-point vibrational energy     829087.9 (Joules/Mol)
                                  198.15675 (Kcal/Mol)
 Warning -- explicit consideration of  25 degrees of freedom as
           vibrations may cause significant error
 Vibrational temperatures:     58.94    92.03   125.93   225.19   234.34
          (Kelvin)            265.18   295.21   323.58   343.42   367.92
                              386.38   403.45   432.55   440.97   456.09
                              483.86   521.95   548.38   581.70   632.40
                              652.08   699.63   730.16   766.98   834.11
                              915.67   946.22  1070.04  1100.27  1186.62
                             1216.20  1306.62  1338.49  1352.17  1367.98
                             1371.02  1402.13  1409.37  1474.09  1524.34
                             1531.46  1549.09  1559.07  1628.25  1639.92
                             1678.44  1714.09  1737.09  1772.16  1789.38
                             1790.54  1800.18  1884.76  1927.75  1942.38
                             1963.45  2049.64  2051.88  2066.57  2093.55
                             2098.90  2111.25  2149.19  2170.03  2176.24
                             2179.47  2182.51  2186.49  2190.23  2200.94
                             2206.28  2211.30  2213.03  2229.96  2231.67
                             2249.95  2336.02  2404.26  4250.77  4269.78
                             4366.45  4378.34  4379.59  4390.77  4429.23
                             4436.77  4452.85  4472.93  4474.29  4485.03
                             4485.84  4494.16  4497.55  4509.38  4514.32
                             4547.57  4583.49  4612.01  4620.54

 Zero-point correction=                           0.315783 (Hartree/Particle)
 Thermal correction to Energy=                    0.331134
 Thermal correction to Enthalpy=                  0.332079
 Thermal correction to Gibbs Free Energy=         0.274691
 Sum of electronic and zero-point Energies=           -562.534577
 Sum of electronic and thermal Energies=              -562.519225
 Sum of electronic and thermal Enthalpies=            -562.518281
 Sum of electronic and thermal Free Energies=         -562.575669

                     E (Thermal)             CV                S
                      KCal/Mol        Cal/Mol-Kelvin    Cal/Mol-Kelvin
 Total                  207.790             59.851            120.783
 Electronic               0.000              0.000              0.000
 Translational            0.889              2.981             41.650
 Rotational               0.889              2.981             31.881
 Vibrational            206.013             53.889             47.253
 Vibration     1          0.594              1.981              5.212
 Vibration     2          0.597              1.971              4.331
 Vibration     3          0.601              1.958              3.715
 Vibration     4          0.620              1.895              2.591
 Vibration     5          0.623              1.888              2.516
 Vibration     6          0.631              1.861              2.284
 Vibration     7          0.640              1.833              2.086
 Vibration     8          0.650              1.803              1.919
 Vibration     9          0.657              1.781              1.813
 Vibration    10          0.666              1.753              1.691
 Vibration    11          0.673              1.731              1.606
 Vibration    12          0.680              1.710              1.531
 Vibration    13          0.693              1.672              1.413
 Vibration    14          0.697              1.661              1.381
 Vibration    15          0.704              1.641              1.326
 Vibration    16          0.717              1.603              1.230
 Vibration    17          0.737              1.549              1.110
 Vibration    18          0.751              1.510              1.035
 Vibration    19          0.769              1.461              0.947
 Vibration    20          0.800              1.384              0.828
 Vibration    21          0.812              1.354              0.786
 Vibration    22          0.842              1.280              0.693
 Vibration    23          0.863              1.233              0.640
 Vibration    24          0.888              1.177              0.580
 Vibration    25          0.936              1.075              0.486

 Optimization completed.
    -- Stationary point found.
 Normal termination of Gaussian 16 at Thu Dec 10 09:27:16 2020.

 ----------------------------------------------------------------------
 # B3LYP/6-311++G(d,p) empiricaldispersion=gd3bj scf=xqc pop=npa geom=c
 heck
 ----------------------------------------------------------------------

 ---------------------------------------
 CID_117043631_JID_4043_Energie_neutraal
 ---------------------------------------
 Structure from the checkpoint file:  "JID_4043.chk"
 Charge =  0 Multiplicity = 1

 SCF Done:  E(RB3LYP) =  -562.998823600     A.U. after   14 cycles
 Normal termination of Gaussian 16 at Thu Dec 10 09:31:41 2020.

 ----------------------------------------------------------------------
 # B3LYP/6-311++G(d,p) empiricaldispersion=gd3bj scf=xqc pop=npa geom=c
 heck
 ----------------------------------------------------------------------

 -------------------------------------
 CID_117043631_JID_4043_Energie_kation
 -------------------------------------
 Structure from the checkpoint file:  "JID_4043.chk"
 Charge =  1 Multiplicity = 2

 SCF Done:  E(UB3LYP) =  -562.730941049     A.U. after   22 cycles
 Normal termination of Gaussian 16 at Thu Dec 10 09:41:51 2020.
 Gaussian 16:  ES64L-G16RevA.03 25-Dec-2016

 ----------------------------------------------------------------------
 # B3LYP/6-311++G(d,p) empiricaldispersion=gd3bj scf=xqc pop=npa geom=c
 heck
 ----------------------------------------------------------------------

 ------------------------------------
 CID_117043631_JID_4043_Energie_anion
 ------------------------------------
 Structure from the checkpoint file:  "JID_4043.chk"
 Charge = -1 Multiplicity = 2

                         Standard orientation:
 ---------------------------------------------------------------------
 Center     Atomic      Atomic             Coordinates (Angstroms)
 Number     Number       Type             X           Y           Z
 ---------------------------------------------------------------------
      1          6           0        1.649590    2.357223   -0.378141
      2          6           0        0.901053    1.063332   -0.180241
      3          6           0        1.579327   -0.169459   -0.088813
      4          6           0        0.821960   -1.343692    0.026585
      5          6           0       -0.567636   -1.304281    0.064343
      6          6           0       -1.264163   -0.090614   -0.002479
      7          6           0       -0.497076    1.072040   -0.126959
      8          6           0       -2.797677   -0.080099    0.046482
      9          6           0       -3.354379   -0.899808   -1.137742
     10          6           0       -3.270189   -0.712919    1.373377
     11          6           0       -3.376533    1.341549   -0.039696
     12          7           0        3.003740   -0.191680   -0.149714
     13          6           0        3.607953   -1.419141   -0.640818
     14          6           0        3.667873    0.281194    1.062179
     15          1           0        1.947980    2.816846    0.574072
     16          1           0        2.563506    2.185835   -0.954957
     17          1           0        1.026949    3.087885   -0.904268
     18          1           0        1.323588   -2.303329    0.094026
     19          1           0       -1.111972   -2.240149    0.153991
     20          1           0       -0.990396    2.034767   -0.209754
     21          1           0       -3.010317   -1.938497   -1.107150
     22          1           0       -4.450953   -0.908265   -1.116386
     23          1           0       -3.033262   -0.469015   -2.092531
     24          1           0       -2.891727   -0.144962    2.230434
     25          1           0       -4.365726   -0.722596    1.424788
     26          1           0       -2.920687   -1.745203    1.475833
     27          1           0       -3.033572    1.969443    0.790005
     28          1           0       -3.102582    1.834592   -0.978895
     29          1           0       -4.470297    1.297984    0.005825
     30          1           0        4.661459   -1.224864   -0.870891
     31          1           0        3.575201   -2.253959    0.083623
     32          1           0        3.105620   -1.736935   -1.558261
     33          1           0        3.234873    1.226984    1.391127
     34          1           0        3.584043   -0.441191    1.894299
     35          1           0        4.731466    0.444436    0.854604
 ---------------------------------------------------------------------

 SCF Done:  E(UB3LYP) =  -562.983616955     A.U. after   33 cycles
 SCF Done:  E(UB3LYP) =  -562.983616955     a.u. after    1 cycles

 The electronic state is 2-A.
 Alpha  occ. eigenvalues --  -14.21884 -10.10228 -10.09361 -10.09251 -10.09215
 Alpha  occ. eigenvalues --  -10.07883 -10.07543 -10.06929 -10.06846 -10.06741
 Alpha  occ. eigenvalues --  -10.06654 -10.06268 -10.06260 -10.06226  -0.83987
 Alpha  occ. eigenvalues --   -0.75889  -0.71802  -0.67086  -0.63680  -0.61301
 Alpha  occ. eigenvalues --   -0.59822  -0.59050  -0.58364  -0.54942  -0.49396
 Alpha  occ. eigenvalues --   -0.48910  -0.44127  -0.41466  -0.38723  -0.37569
 Alpha  occ. eigenvalues --   -0.36386  -0.34585  -0.34507  -0.33900  -0.33298
 Alpha  occ. eigenvalues --   -0.32153  -0.31341  -0.30733  -0.29984  -0.29497
 Alpha  occ. eigenvalues --   -0.28965  -0.28398  -0.27448  -0.27176  -0.26891
 Alpha  occ. eigenvalues --   -0.25453  -0.25174  -0.23478  -0.22683  -0.22276
 Alpha  occ. eigenvalues --   -0.16285  -0.14658  -0.10873   0.04291
 Alpha virt. eigenvalues --    0.05906   0.06949   0.07721   0.07905   0.08443
 Alpha virt. eigenvalues --    0.08583   0.09045   0.09366   0.09733   0.09964
 Alpha virt. eigenvalues --    0.10372   0.10811   0.11607   0.11741   0.12074

  Beta  occ. eigenvalues --  -14.21880 -10.10224 -10.09358 -10.09217 -10.09183
  Beta  occ. eigenvalues --  -10.07879 -10.07540 -10.06919 -10.06835 -10.06733
  Beta  occ. eigenvalues --  -10.06636 -10.06242 -10.06238 -10.06202  -0.83971
  Beta  occ. eigenvalues --   -0.75875  -0.71786  -0.67063  -0.63657  -0.61250
  Beta  occ. eigenvalues --   -0.59782  -0.59005  -0.58322  -0.54897  -0.49361
  Beta  occ. eigenvalues --   -0.48868  -0.44087  -0.41433  -0.38699  -0.37546
  Beta  occ. eigenvalues --   -0.36346  -0.34553  -0.34475  -0.33869  -0.33271
  Beta  occ. eigenvalues --   -0.32123  -0.31308  -0.30709  -0.29956  -0.29465
  Beta  occ. eigenvalues --   -0.28938  -0.28367  -0.27414  -0.27150  -0.26862
  Beta  occ. eigenvalues --   -0.25429  -0.25150  -0.23454  -0.22662  -0.22253
  Beta  occ. eigenvalues --   -0.16262  -0.14637  -0.10849
  Beta virt. eigenvalues --    0.06218   0.06865   0.07487   0.08048   0.08570
  Beta virt. eigenvalues --    0.08714   0.08871   0.09288   0.09524   0.10101
  Beta virt. eigenvalues --    0.10383   0.10677   0.11085   0.11861   0.11983

 Mulliken charges and spin densities:
               1          2
     1  C    0.008010  -0.563369
     2  C    0.674671  -0.475732
     3  C   -0.015463  -0.422578
     4  C   -0.195729   0.125047
     5  C   -0.317899   0.002044
     6  C    0.193376   0.156078
     7  C   -0.448526  -0.002164
     8  C   -0.603105   1.176009
     9  C    0.422131  -1.096867
    10  C    0.334949  -1.016264
    11  C   -0.141008  -0.356111
    12  N    0.009985   0.177297
    13  C    0.555473  -0.868627
    14  C    0.672255  -1.041891
    15  H   -0.060518   0.231524
    16  H    0.117901   0.063227
    17  H   -0.147660   0.285418
    18  H   -0.191001   0.345913
    19  H   -0.115713   0.263200
    20  H    0.341079  -0.188795
    21  H   -0.139786   0.279648
    22  H   -0.104373   0.249698
    23  H    0.027119   0.114915
    24  H    0.021456   0.119800
    25  H   -0.162388   0.308959
    26  H   -0.083144   0.225779
    27  H   -0.142113   0.275630
    28  H   -0.115665   0.245354
    29  H   -0.287296   0.456042
    30  H   -0.407138   0.550135
    31  H   -0.145819   0.261138
    32  H   -0.083259   0.237031
    33  H   -0.084344   0.199869
    34  H   -0.152056   0.291726
    35  H   -0.234405   0.390918
 Sum of Mulliken charges =  -1.00000   1.00000

 Dipole moment (field-independent basis, Debye):
    X=             -1.1654    Y=              1.0064    Z=             -0.5298  Tot=              1.6284
 Quadrupole moment (field-independent basis, Debye-Ang):
   XX=           -187.0149   YY=           -129.9687   ZZ=           -122.1758
   XY=              3.0249   XZ=             -0.8014   YZ=             -0.3394

 Summary of Natural Population Analysis:

                                       Natural Population
                Natural  -----------------------------------------------
    Atom  No    Charge         Core      Valence    Rydberg      Total
 -----------------------------------------------------------------------
      C    1   -0.29449      0.99963     2.28999    0.00487     3.29449
      C    2   -0.01843      0.99948     2.00987    0.00907     3.01843
      C    3    0.08449      0.99942     1.90406    0.01203     2.91551
      C    4   -0.11258      0.99952     2.10407    0.00900     3.11258
      C    5   -0.09720      0.99952     2.08895    0.00873     3.09720
      C    6   -0.01297      0.99948     2.00169    0.01181     3.01297
      C    7   -0.09867      0.99947     2.09151    0.00768     3.09867
      C    8   -0.05292      0.99956     2.04160    0.01176     3.05292
      C    9   -0.27948      0.99963     2.27288    0.00698     3.27948
      C   10   -0.27971      0.99963     2.27314    0.00694     3.27971
      C   11   -0.28700      0.99964     2.27982    0.00754     3.28700
      N   12   -0.27390      0.99969     2.76077    0.01343     3.77390
      C   13   -0.17744      0.99965     2.16871    0.00908     3.17744
      C   14   -0.17194      0.99963     2.16389    0.00843     3.17194
      H   15    0.10145      0.00000     0.39703    0.00152     0.39855
      H   16    0.10944      0.00000     0.38887    0.00169     0.39056
      H   17    0.10090      0.00000     0.39810    0.00100     0.39910
      H   18    0.10342      0.00000     0.39513    0.00144     0.39658
      H   19    0.09918      0.00000     0.39924    0.00158     0.40082
      H   20    0.10007      0.00000     0.39831    0.00162     0.39993
      H   21    0.10028      0.00000     0.39866    0.00106     0.39972
      H   22    0.09770      0.00000     0.40135    0.00094     0.40230
      H   23    0.10083      0.00000     0.39830    0.00087     0.39917
      H   24    0.10125      0.00000     0.39785    0.00089     0.39875
      H   25    0.09797      0.00000     0.40104    0.00099     0.40203
      H   26    0.10002      0.00000     0.39891    0.00107     0.39998
      H   27    0.10130      0.00000     0.39767    0.00103     0.39870
      H   28    0.10064      0.00000     0.39833    0.00103     0.39936
      H   29    0.10143      0.00000     0.39757    0.00100     0.39857
      H   30    0.09761      0.00000     0.40113    0.00125     0.40239
      H   31    0.08229      0.00000     0.41595    0.00176     0.41771
      H   32    0.09941      0.00000     0.39939    0.00120     0.40059
      H   33    0.09830      0.00000     0.40044    0.00126     0.40170
      H   34    0.08363      0.00000     0.41492    0.00146     0.41637
      H   35    0.09511      0.00000     0.40347    0.00142     0.40489
 =======================================================================
   * Total *    0.00000     13.99393    38.85260    0.15346    53.00000

 Normal termination of Gaussian 16 at Thu Dec 10 09:56:49 2020.
