 Gaussian 16, Revision A.03,

 -----------------------------------------------------------
 # opt freq B3LYP/6-31G(d) empiricaldispersion=gd3bj scf=xqc
 -----------------------------------------------------------

 -------------------------------
 CID_131020887_JID_4655_neutraal
 -------------------------------
 Symbolic Z-matrix:
 Charge =  0 Multiplicity = 1

 SCF Done:  E(RB3LYP) =  -681.585545812     A.U. after   14 cycles
 SCF Done:  E(RB3LYP) =  -681.591826457     A.U. after   12 cycles
 SCF Done:  E(RB3LYP) =  -681.594172970     A.U. after   13 cycles
 SCF Done:  E(RB3LYP) =  -681.595208457     A.U. after   13 cycles
 SCF Done:  E(RB3LYP) =  -681.595918977     A.U. after   12 cycles
 SCF Done:  E(RB3LYP) =  -681.596226840     A.U. after   12 cycles
 SCF Done:  E(RB3LYP) =  -681.596470974     A.U. after   12 cycles
 SCF Done:  E(RB3LYP) =  -681.596636202     A.U. after   12 cycles
 SCF Done:  E(RB3LYP) =  -681.596725024     A.U. after   12 cycles
 SCF Done:  E(RB3LYP) =  -681.596906950     A.U. after   13 cycles
 SCF Done:  E(RB3LYP) =  -681.601887594     A.U. after    8 cycles
 SCF Done:  E(RB3LYP) =  -681.601887636     A.U. after    7 cycles
 SCF Done:  E(RB3LYP) =  -681.601887660     A.U. after    6 cycles
 SCF Done:  E(RB3LYP) =  -681.601887682     A.U. after    7 cycles
 Optimization completed.
    -- Stationary point found.
 Normal termination of Gaussian 16 at Thu Dec 10 10:37:40 2020.

 --------------------------------------------------------------------
 #N Geom=AllCheck Guess=TCheck SCRF=Check GenChk RB3LYP/6-31G(d) Freq
 --------------------------------------------------------------------

 Structure from the checkpoint file:  "JID_4655.chk"
 -------------------------------
 CID_131020887_JID_4655_neutraal
 -------------------------------
 Charge =  0 Multiplicity = 1

 SCF Done:  E(RB3LYP) =  -681.601887682     A.U. after    1 cycles

  Exact polarizability: 157.527  -2.653 121.589   8.777   0.395  70.831
 Approx polarizability: 231.967 -18.530 185.742  16.597   2.395 105.685

                      1                      2                      3
                      A                      A                      A
 Frequencies --     36.2535                48.8125                54.7661
 Red. masses --      7.2857                 5.1481                 3.7534
 Frc consts  --      0.0056                 0.0072                 0.0066
 IR Inten    --      2.6909                 7.5449                 0.9470

                      4                      5                      6
                      A                      A                      A
 Frequencies --     85.1818                99.7509               149.3292
 Red. masses --      3.8319                 1.1211                 3.9979
 Frc consts  --      0.0164                 0.0066                 0.0525
 IR Inten    --      2.7117                 0.1328                 0.7847

                      7                      8                      9
                      A                      A                      A
 Frequencies --    178.2958               179.0104               213.2538
 Red. masses --      3.7292                 3.5702                 3.9333
 Frc consts  --      0.0698                 0.0674                 0.1054
 IR Inten    --      0.1119                 7.5193                 0.3903

                     10                     11                     12
                      A                      A                      A
 Frequencies --    224.6872               273.9959               331.7515
 Red. masses --      4.7175                 4.9871                 3.4028
 Frc consts  --      0.1403                 0.2206                 0.2207
 IR Inten    --     16.1666                 2.0092                 7.1831

                     13                     14                     15
                      A                      A                      A
 Frequencies --    399.5582               403.9106               424.6131
 Red. masses --      1.1019                 2.7128                 1.3784
 Frc consts  --      0.1036                 0.2608                 0.1464
 IR Inten    --     44.2425                48.4938                62.8357

                     16                     17                     18
                      A                      A                      A
 Frequencies --    442.1617               460.6008               512.1959
 Red. masses --      2.1735                 1.6019                 2.4879
 Frc consts  --      0.2504                 0.2002                 0.3846
 IR Inten    --     19.8322               134.4754               118.7944

                     19                     20                     21
                      A                      A                      A
 Frequencies --    544.2110               561.8254               562.5216
 Red. masses --      3.6445                 3.0366                 4.6721
 Frc consts  --      0.6360                 0.5647                 0.8710
 IR Inten    --     12.9973                14.4425                 5.0959

                     22                     23                     24
                      A                      A                      A
 Frequencies --    616.2789               641.3003               667.6721
 Red. masses --      4.4344                 4.0663                 1.3349
 Frc consts  --      0.9923                 0.9853                 0.3506
 IR Inten    --     14.9650                 1.8353                11.7233

                     25                     26                     27
                      A                      A                      A
 Frequencies --    716.7142               765.5224               777.0878
 Red. masses --      3.5202                 3.1846                 3.0899
 Frc consts  --      1.0654                 1.0996                 1.0994
 IR Inten    --      7.6730                 3.1396                 5.7335

                     28                     29                     30
                      A                      A                      A
 Frequencies --    840.1019               880.2051               947.0726
 Red. masses --      1.5165                 4.6135                 2.6119
 Frc consts  --      0.6306                 2.1059                 1.3803
 IR Inten    --     25.2044                 3.3379                 2.7690

                     31                     32                     33
                      A                      A                      A
 Frequencies --    986.4761              1007.7351              1020.8926
 Red. masses --      3.7169                 7.0540                 2.3410
 Frc consts  --      2.1311                 4.2206                 1.4375
 IR Inten    --      6.0546                 1.2567                33.7893

                     34                     35                     36
                      A                      A                      A
 Frequencies --   1046.9834              1059.5776              1075.9997
 Red. masses --      1.9167                 2.1725                 1.6107
 Frc consts  --      1.2379                 1.4370                 1.0987
 IR Inten    --      0.5853                18.9842                 5.5770

                     37                     38                     39
                      A                      A                      A
 Frequencies --   1119.5883              1144.9931              1165.4702
 Red. masses --      3.1651                 3.1047                 1.8284
 Frc consts  --      2.3375                 2.3982                 1.4633
 IR Inten    --     59.7633                65.0528                13.1188

                     40                     41                     42
                      A                      A                      A
 Frequencies --   1230.5867              1252.6793              1259.2266
 Red. masses --      1.5959                 1.0722                 1.7284
 Frc consts  --      1.4239                 0.9913                 1.6147
 IR Inten    --     51.0281                 1.7283                10.3153

                     43                     44                     45
                      A                      A                      A
 Frequencies --   1299.0706              1338.8774              1358.6331
 Red. masses --      2.1924                 1.6153                 1.5510
 Frc consts  --      2.1799                 1.7060                 1.6869
 IR Inten    --     29.8230                 8.0174                34.3345

                     46                     47                     48
                      A                      A                      A
 Frequencies --   1396.6980              1406.9606              1425.1497
 Red. masses --      2.7814                 2.3921                 1.5400
 Frc consts  --      3.1968                 2.7900                 1.8429
 IR Inten    --    126.0359                47.2073                13.7235

                     49                     50                     51
                      A                      A                      A
 Frequencies --   1447.9746              1475.5890              1489.3170
 Red. masses --      1.7524                 2.0187                 1.1425
 Frc consts  --      2.1647                 2.5898                 1.4931
 IR Inten    --     32.5281               105.7931                74.3146

                     52                     53                     54
                      A                      A                      A
 Frequencies --   1502.6969              1513.4410              1523.9527
 Red. masses --      1.0448                 1.1179                 1.7726
 Frc consts  --      1.3900                 1.5086                 2.4256
 IR Inten    --      6.8147                 2.4707                40.6612

                     55                     56                     57
                      A                      A                      A
 Frequencies --   1534.1584              1567.8581              1622.8969
 Red. masses --      1.1673                 4.3139                 3.6684
 Frc consts  --      1.6187                 6.2479                 5.6926
 IR Inten    --     31.4261               194.2570                68.1257

                     58                     59                     60
                      A                      A                      A
 Frequencies --   1651.2448              1664.3965              1818.2171
 Red. masses --      1.2993                 5.1246                 9.0280
 Frc consts  --      2.0873                 8.3642                17.5847
 IR Inten    --    135.8168               559.7275               384.0747

                     61                     62                     63
                      A                      A                      A
 Frequencies --   2996.6876              3017.9788              3060.0858
 Red. masses --      1.0626                 1.0989                 1.0362
 Frc consts  --      5.6222                 5.8972                 5.7168
 IR Inten    --     44.7742                39.6827                10.8116

                     64                     65                     66
                      A                      A                      A
 Frequencies --   3100.5273              3120.2020              3147.0916
 Red. masses --      1.0599                 1.1005                 1.1034
 Frc consts  --      6.0030                 6.3127                 6.4385
 IR Inten    --     16.2637                 8.2937                15.3794

                     67                     68                     69
                      A                      A                      A
 Frequencies --   3164.4904              3206.8155              3504.8264
 Red. masses --      1.1073                 1.0920                 1.0522
 Frc consts  --      6.5333                 6.6164                 7.6152
 IR Inten    --      8.7199                 8.1566               164.4575

                     70                     71                     72
                      A                      A                      A
 Frequencies --   3598.4358              3637.7141              3670.4666
 Red. masses --      1.0647                 1.0772                 1.0992
 Frc consts  --      8.1230                 8.3987                 8.7253
 IR Inten    --    123.8850                46.4865                86.2074

 - Thermochemistry -
 -------------------
 Temperature   298.150 Kelvin.  Pressure   1.00000 Atm.
 Atom     1 has atomic number  6 and mass  12.00000

 Molecular mass:   196.09603 amu.
 Principal axes and moments of inertia in atomic units:
                           1         2         3
     Eigenvalues --  1664.922854365.092055616.76879
           X            0.99975   0.02049   0.00883
           Y           -0.02053   0.99978   0.00491
           Z           -0.00873  -0.00509   0.99995
 This molecule is an asymmetric top.
 Rotational symmetry number  1.
 Warning -- assumption of classical behavior for rotation
           may cause significant error
 Rotational temperatures (Kelvin)      0.05202     0.01984     0.01542
 Rotational constants (GHZ):           1.08398     0.41345     0.32131
 Zero-point vibrational energy     554297.5 (Joules/Mol)
                                  132.48028 (Kcal/Mol)
 Warning -- explicit consideration of  22 degrees of freedom as
           vibrations may cause significant error
 Vibrational temperatures:     52.16    70.23    78.80   122.56   143.52
          (Kelvin)            214.85   256.53   257.56   306.82   323.27
                              394.22   477.32   574.88   581.14   610.92
                              636.17   662.70   736.94   783.00   808.34
                              809.34   886.69   922.69   960.63  1031.19
                             1101.42  1118.06  1208.72  1266.42  1362.63
                             1419.32  1449.91  1468.84  1506.38  1524.50
                             1548.12  1610.84  1647.39  1676.85  1770.54
                             1802.33  1811.75  1869.07  1926.35  1954.77
                             2009.54  2024.30  2050.47  2083.31  2123.04
                             2142.80  2162.05  2177.50  2192.63  2207.31
                             2255.80  2334.99  2375.77  2394.70  2616.01
                             4311.57  4342.20  4402.78  4460.97  4489.27
                             4527.96  4553.00  4613.89  5042.66  5177.35
                             5233.86  5280.98

 Zero-point correction=                           0.211121 (Hartree/Particle)
 Thermal correction to Energy=                    0.225178
 Thermal correction to Enthalpy=                  0.226122
 Thermal correction to Gibbs Free Energy=         0.169083
 Sum of electronic and zero-point Energies=           -681.390767
 Sum of electronic and thermal Energies=              -681.376710
 Sum of electronic and thermal Enthalpies=            -681.375765
 Sum of electronic and thermal Free Energies=         -681.432805

                     E (Thermal)             CV                S
                      KCal/Mol        Cal/Mol-Kelvin    Cal/Mol-Kelvin
 Total                  141.301             51.437            120.050
 Electronic               0.000              0.000              0.000
 Translational            0.889              2.981             41.725
 Rotational               0.889              2.981             32.079
 Vibrational            139.524             45.476             46.245
 Vibration     1          0.594              1.982              5.454
 Vibration     2          0.595              1.978              4.865
 Vibration     3          0.596              1.976              4.637
 Vibration     4          0.601              1.959              3.768
 Vibration     5          0.604              1.949              3.459
 Vibration     6          0.618              1.903              2.681
 Vibration     7          0.629              1.869              2.346
 Vibration     8          0.629              1.868              2.339
 Vibration     9          0.644              1.821              2.016
 Vibration    10          0.649              1.803              1.921
 Vibration    11          0.676              1.721              1.571
 Vibration    12          0.714              1.612              1.252
 Vibration    13          0.766              1.471              0.964
 Vibration    14          0.769              1.462              0.948
 Vibration    15          0.787              1.417              0.876
 Vibration    16          0.802              1.378              0.820
 Vibration    17          0.818              1.337              0.764
 Vibration    18          0.867              1.223              0.628
 Vibration    19          0.899              1.152              0.556
 Vibration    20          0.918              1.114              0.520
 Vibration    21          0.918              1.112              0.519
 Vibration    22          0.976              0.997              0.422

                           ! Non-Optimized Parameters !
 Normal termination of Gaussian 16 at Thu Dec 10 10:44:37 2020.

 ----------------------------------------------------------------------
 # B3LYP/6-311++G(d,p) empiricaldispersion=gd3bj scf=xqc pop=npa geom=c
 heck
 ----------------------------------------------------------------------

 ---------------------------------------
 CID_131020887_JID_4655_Energie_neutraal
 ---------------------------------------
 Structure from the checkpoint file:  "JID_4655.chk"
 Charge =  0 Multiplicity = 1

 SCF Done:  E(RB3LYP) =  -681.814662687     A.U. after   16 cycles
 Normal termination of Gaussian 16 at Thu Dec 10 10:47:30 2020.

 ----------------------------------------------------------------------
 # B3LYP/6-311++G(d,p) empiricaldispersion=gd3bj scf=xqc pop=npa geom=c
 heck
 ----------------------------------------------------------------------

 -------------------------------------
 CID_131020887_JID_4655_Energie_kation
 -------------------------------------
 Structure from the checkpoint file:  "JID_4655.chk"
 Charge =  1 Multiplicity = 2

 SCF Done:  E(UB3LYP) =  -681.502280117     A.U. after   33 cycles
 SCF Done:  E(UB3LYP) =  -681.502280117     a.u. after    1 cycles
 Normal termination of Gaussian 16 at Thu Dec 10 10:54:55 2020.
 Gaussian 16:  ES64L-G16RevA.03 25-Dec-2016

 ----------------------------------------------------------------------
 # B3LYP/6-311++G(d,p) empiricaldispersion=gd3bj scf=xqc pop=npa geom=c
 heck
 ----------------------------------------------------------------------

 ------------------------------------
 CID_131020887_JID_4655_Energie_anion
 ------------------------------------
 Structure from the checkpoint file:  "JID_4655.chk"
 Charge = -1 Multiplicity = 2

                         Standard orientation:
 ---------------------------------------------------------------------
 Center     Atomic      Atomic             Coordinates (Angstroms)
 Number     Number       Type             X           Y           Z
 ---------------------------------------------------------------------
      1          6           0        3.161766    2.267505    0.572626
      2          6           0        2.026255    1.353829    0.211953
      3          6           0        0.747046    1.816537   -0.021391
      4          6           0       -0.245999    0.864065   -0.355850
      5          7           0        0.048731   -0.447877   -0.423585
      6          6           0        1.323945   -0.784793   -0.189758
      7          7           0        2.321929    0.032890    0.120032
      8          6           0        1.676876   -2.256436   -0.274202
      9          8           0        3.029854   -2.499932    0.008346
     10          7           0       -1.517930    1.249899   -0.638088
     11          6           0       -2.595276    0.330774   -0.981305
     12          6           0       -3.253027   -0.299230    0.261195
     13          8           0       -4.321304    0.103096    0.698329
     14          7           0       -2.530312   -1.317237    0.802398
     15          1           0        3.588581    1.971022    1.537103
     16          1           0        3.961870    2.182160   -0.170945
     17          1           0        2.841944    3.311168    0.631564
     18          1           0        0.509614    2.873755    0.037809
     19          1           0        1.027242   -2.805497    0.426955
     20          1           0        1.415961   -2.613073   -1.283014
     21          1           0        3.412968   -1.618487    0.189806
     22          1           0       -1.773240    2.201058   -0.416936
     23          1           0       -3.366861    0.890936   -1.510966
     24          1           0       -2.188435   -0.440827   -1.639821
     25          1           0       -1.577134   -1.469197    0.484490
     26          1           0       -2.827349   -1.685567    1.695644
 ---------------------------------------------------------------------

 SCF Done:  E(UB3LYP) =  -681.810211460     A.U. after   33 cycles
 SCF Done:  E(UB3LYP) =  -681.810211460     a.u. after    1 cycles

 The electronic state is 2-A.
 Alpha  occ. eigenvalues --  -19.01061 -18.99523 -14.23835 -14.23067 -14.19558
 Alpha  occ. eigenvalues --  -14.19309 -10.17669 -10.14863 -10.13114 -10.11711
 Alpha  occ. eigenvalues --  -10.11627 -10.10068 -10.06280 -10.05897  -0.94332
 Alpha  occ. eigenvalues --   -0.92325  -0.88538  -0.84002  -0.80695  -0.76787
 Alpha  occ. eigenvalues --   -0.69161  -0.63798  -0.61057  -0.59346  -0.52717
 Alpha  occ. eigenvalues --   -0.51121  -0.48725  -0.44449  -0.44083  -0.42157
 Alpha  occ. eigenvalues --   -0.39058  -0.37811  -0.36926  -0.36433  -0.35327
 Alpha  occ. eigenvalues --   -0.33369  -0.32915  -0.32207  -0.30528  -0.29655
 Alpha  occ. eigenvalues --   -0.29327  -0.28681  -0.27999  -0.24387  -0.23439
 Alpha  occ. eigenvalues --   -0.20206  -0.18770  -0.17990  -0.17034  -0.16152
 Alpha  occ. eigenvalues --   -0.15497  -0.12401   0.04393
 Alpha virt. eigenvalues --    0.06842   0.07101   0.07624   0.08559   0.09220
 Alpha virt. eigenvalues --    0.09612   0.10161   0.10645   0.11040   0.11688
 Alpha virt. eigenvalues --    0.12436   0.12715   0.13493   0.14207   0.14776

  Beta  occ. eigenvalues --  -19.01058 -18.99511 -14.23788 -14.23037 -14.19606
  Beta  occ. eigenvalues --  -14.19140 -10.17664 -10.14825 -10.13026 -10.11714
  Beta  occ. eigenvalues --  -10.11618 -10.09799 -10.06280 -10.05856  -0.94311
  Beta  occ. eigenvalues --   -0.92304  -0.88375  -0.83893  -0.80645  -0.76556
  Beta  occ. eigenvalues --   -0.68937  -0.63671  -0.60990  -0.59235  -0.52628
  Beta  occ. eigenvalues --   -0.50930  -0.48628  -0.44392  -0.43960  -0.42080
  Beta  occ. eigenvalues --   -0.39005  -0.37749  -0.36778  -0.36258  -0.35170
  Beta  occ. eigenvalues --   -0.33303  -0.32670  -0.32060  -0.30469  -0.29508
  Beta  occ. eigenvalues --   -0.29141  -0.28616  -0.27860  -0.24321  -0.23213
  Beta  occ. eigenvalues --   -0.20088  -0.18352  -0.17911  -0.16932  -0.15745
  Beta  occ. eigenvalues --   -0.15389  -0.12125
  Beta virt. eigenvalues --    0.06924   0.07691   0.08221   0.08531   0.08941
  Beta virt. eigenvalues --    0.09466   0.09912   0.10447   0.10707   0.11174
  Beta virt. eigenvalues --    0.11880   0.12689   0.12714   0.13591   0.14204

 Mulliken charges and spin densities:
               1          2
     1  C    1.749889  -2.243139
     2  C   -0.050507   0.187569
     3  C   -1.475715   1.554617
     4  C    1.672833  -1.900352
     5  N   -0.188737   0.069464
     6  C   -0.593286   0.420821
     7  N   -0.158084   0.060873
     8  C   -0.179236  -0.151990
     9  O   -0.316887   0.001049
    10  N   -0.269126   0.235981
    11  C    0.343485  -0.792435
    12  C   -0.051084   0.241585
    13  O   -0.382725   0.022579
    14  N   -0.324955  -0.016218
    15  H    0.109808   0.038230
    16  H   -0.136563   0.297780
    17  H   -0.199074   0.357400
    18  H   -1.255134   1.426190
    19  H    0.021619   0.148595
    20  H    0.151625   0.023914
    21  H    0.282947   0.011315
    22  H   -0.180650   0.488102
    23  H   -0.219159   0.413724
    24  H    0.196867   0.008707
    25  H    0.331887  -0.053875
    26  H    0.119962   0.149514
 Sum of Mulliken charges =  -1.00000   1.00000

 Dipole moment (field-independent basis, Debye):
    X=              0.5953    Y=             -4.9563    Z=              0.4392  Tot=              5.0112
 Quadrupole moment (field-independent basis, Debye-Ang):
   XX=           -151.9616   YY=           -136.5710   ZZ=            -99.4400
   XY=              8.3833   XZ=              4.6687   YZ=              3.7846

 Summary of Natural Population Analysis:

                                       Natural Population
                Natural  -----------------------------------------------
    Atom  No    Charge         Core      Valence    Rydberg      Total
 -----------------------------------------------------------------------
      C    1   -0.30096      0.99963     2.29520    0.00612     3.30096
      C    2    0.17262      0.99955     1.81520    0.01263     2.82738
      C    3   -0.15986      0.99946     2.15121    0.00920     3.15986
      C    4    0.23092      0.99953     1.75426    0.01529     2.76908
      N    5   -0.29238      0.99962     2.78203    0.01072     3.79238
      C    6    0.23761      0.99961     1.74779    0.01498     2.76239
      N    7   -0.31285      0.99962     2.80177    0.01147     3.81285
      C    8   -0.02337      0.99957     2.01149    0.01231     3.02337
      O    9   -0.37997      0.99990     3.37303    0.00704     4.37997
      N   10   -0.29718      0.99966     2.78585    0.01168     3.79718
      C   11   -0.12910      0.99958     2.11734    0.01218     3.12910
      C   12    0.33168      0.99971     1.64633    0.02227     2.66832
      O   13   -0.32266      0.99988     3.31641    0.00638     4.32266
      N   14   -0.40851      0.99970     2.90117    0.00764     3.90851
      H   15    0.10501      0.00000     0.39402    0.00096     0.39499
      H   16    0.10937      0.00000     0.38912    0.00152     0.39063
      H   17    0.10278      0.00000     0.39625    0.00097     0.39722
      H   18    0.10880      0.00000     0.38806    0.00314     0.39120
      H   19    0.08352      0.00000     0.41435    0.00213     0.41648
      H   20    0.08511      0.00000     0.41316    0.00173     0.41489
      H   21    0.24309      0.00000     0.25326    0.00364     0.25691
      H   22    0.19905      0.00000     0.29414    0.00681     0.30095
      H   23    0.10836      0.00000     0.39053    0.00112     0.39164
      H   24    0.10795      0.00000     0.39048    0.00158     0.39205
      H   25    0.21100      0.00000     0.28646    0.00254     0.28900
      H   26    0.18998      0.00000     0.30789    0.00213     0.31002
 =======================================================================
   * Total *   -0.00000     13.99501    37.81679    0.18819    52.00000

 Normal termination of Gaussian 16 at Thu Dec 10 11:02:49 2020.
