 Gaussian 16, Revision A.03,

 -----------------------------------------------------------
 # opt freq B3LYP/6-31G(d) empiricaldispersion=gd3bj scf=xqc
 -----------------------------------------------------------

 -----------------------------
 CID_64992365_JID_481_neutraal
 -----------------------------
 Symbolic Z-matrix:
 Charge =  0 Multiplicity = 1

 SCF Done:  E(RB3LYP) =  -479.801204598     A.U. after   14 cycles
 SCF Done:  E(RB3LYP) =  -479.804271009     A.U. after   12 cycles
 SCF Done:  E(RB3LYP) =  -479.804672571     A.U. after   12 cycles
 SCF Done:  E(RB3LYP) =  -479.804956393     A.U. after   12 cycles
 SCF Done:  E(RB3LYP) =  -479.805075444     A.U. after   12 cycles
 SCF Done:  E(RB3LYP) =  -479.805140490     A.U. after   11 cycles
 SCF Done:  E(RB3LYP) =  -479.805283534     A.U. after   12 cycles
 SCF Done:  E(RB3LYP) =  -479.805445030     A.U. after   12 cycles
 SCF Done:  E(RB3LYP) =  -479.805586402     A.U. after   12 cycles
 SCF Done:  E(RB3LYP) =  -479.805616601     A.U. after   11 cycles
 SCF Done:  E(RB3LYP) =  -479.805670963     A.U. after    9 cycles
 SCF Done:  E(RB3LYP) =  -479.805671398     A.U. after    8 cycles
 SCF Done:  E(RB3LYP) =  -479.805671932     A.U. after    8 cycles
 SCF Done:  E(RB3LYP) =  -479.805672681     A.U. after    9 cycles
 SCF Done:  E(RB3LYP) =  -479.805673040     A.U. after    8 cycles
 SCF Done:  E(RB3LYP) =  -479.805673120     A.U. after    7 cycles
 Optimization completed.
    -- Stationary point found.
 Normal termination of Gaussian 16 at Tue Dec  8 10:57:38 2020.

 --------------------------------------------------------------------
 #N Geom=AllCheck Guess=TCheck SCRF=Check GenChk RB3LYP/6-31G(d) Freq
 --------------------------------------------------------------------

 Structure from the checkpoint file:  "JID_481.chk"
 -----------------------------
 CID_64992365_JID_481_neutraal
 -----------------------------
 Charge =  0 Multiplicity = 1

 SCF Done:  E(RB3LYP) =  -479.805673120     A.U. after    1 cycles

  Exact polarizability: 104.801   6.591  75.523   2.663  -0.878  72.398
 Approx polarizability: 133.879  16.626 106.631   2.057  -3.623 109.768

                      1                      2                      3
                      A                      A                      A
 Frequencies --     31.2434                41.1880                72.8533
 Red. masses --      4.2975                 3.0265                 4.3765
 Frc consts  --      0.0025                 0.0030                 0.0137
 IR Inten    --      0.5542                 1.1885                 3.5397

                      4                      5                      6
                      A                      A                      A
 Frequencies --    141.0995               192.5801               224.3602
 Red. masses --      1.8723                 2.4697                 1.3632
 Frc consts  --      0.0220                 0.0540                 0.0404
 IR Inten    --      0.0125                 1.2316                 1.0124

                      7                      8                      9
                      A                      A                      A
 Frequencies --    243.7682               280.3069               290.4923
 Red. masses --      2.8771                 1.9991                 2.6228
 Frc consts  --      0.1007                 0.0925                 0.1304
 IR Inten    --      7.0165                 3.2783                 0.4928

                     10                     11                     12
                      A                      A                      A
 Frequencies --    364.6542               422.2518               574.6808
 Red. masses --      6.5689                 3.4078                 1.9050
 Frc consts  --      0.5146                 0.3580                 0.3707
 IR Inten    --      3.8930                 2.9986                 2.3819

                     13                     14                     15
                      A                      A                      A
 Frequencies --    610.1586               617.1820               633.9027
 Red. masses --      2.0557                 1.5702                 3.3634
 Frc consts  --      0.4509                 0.3524                 0.7963
 IR Inten    --     53.4267                77.7739                10.9580

                     16                     17                     18
                      A                      A                      A
 Frequencies --    668.8340               827.4498               896.3399
 Red. masses --      3.5917                 2.9472                 1.9858
 Frc consts  --      0.9466                 1.1889                 0.9400
 IR Inten    --      8.4960                 2.4286                 8.8424

                     19                     20                     21
                      A                      A                      A
 Frequencies --    902.6263               930.9420               943.0593
 Red. masses --      1.6325                 1.7581                 2.3011
 Frc consts  --      0.7836                 0.8977                 1.2058
 IR Inten    --      7.4286                 0.8192                 5.6721

                     22                     23                     24
                      A                      A                      A
 Frequencies --    961.5996               993.3226              1039.1729
 Red. masses --      2.5887                 1.8684                 1.7379
 Frc consts  --      1.4103                 1.0862                 1.1057
 IR Inten    --     22.7820                14.4952                 5.2532

                     25                     26                     27
                      A                      A                      A
 Frequencies --   1042.0444              1057.2508              1111.7138
 Red. masses --      1.6541                 1.3540                 6.0224
 Frc consts  --      1.0582                 0.8917                 4.3854
 IR Inten    --      6.8706                 2.3084               159.9574

                     28                     29                     30
                      A                      A                      A
 Frequencies --   1155.9815              1173.5053              1197.7118
 Red. masses --      2.6185                 2.0204                 2.1588
 Frc consts  --      2.0616                 1.6393                 1.8246
 IR Inten    --      2.5068                 4.2244                34.7545

                     31                     32                     33
                      A                      A                      A
 Frequencies --   1218.2975              1221.7166              1273.8267
 Red. masses --      1.4490                 1.6167                 1.2536
 Frc consts  --      1.2671                 1.4217                 1.1985
 IR Inten    --     14.0475                 4.6297                 7.8232

                     34                     35                     36
                      A                      A                      A
 Frequencies --   1291.4571              1324.7089              1330.0945
 Red. masses --      2.6479                 1.3660                 1.2359
 Frc consts  --      2.6020                 1.4124                 1.2883
 IR Inten    --    135.0217                13.8649                 6.8923

                     37                     38                     39
                      A                      A                      A
 Frequencies --   1348.4366              1366.5513              1370.2912
 Red. masses --      1.3309                 1.2650                 1.3750
 Frc consts  --      1.4258                 1.3919                 1.5211
 IR Inten    --      0.4663                 2.3164                 4.7616

                     40                     41                     42
                      A                      A                      A
 Frequencies --   1407.4403              1420.4088              1432.7283
 Red. masses --      1.3257                 1.3273                 1.2145
 Frc consts  --      1.5473                 1.5777                 1.4689
 IR Inten    --      1.9480                10.3084                18.5575

                     43                     44                     45
                      A                      A                      A
 Frequencies --   1442.9079              1501.0016              1515.7881
 Red. masses --      1.3027                 1.6668                 1.0922
 Frc consts  --      1.5979                 2.2126                 1.4786
 IR Inten    --     15.7276                33.7146                 1.4797

                     46                     47                     48
                      A                      A                      A
 Frequencies --   1525.4820              1532.9963              1535.2590
 Red. masses --      1.0824                 1.0822                 1.0933
 Frc consts  --      1.4841                 1.4984                 1.5183
 IR Inten    --      1.6268                10.9101                 2.7545

                     49                     50                     51
                      A                      A                      A
 Frequencies --   1559.5543              1824.2435              2956.5018
 Red. masses --      1.0971                 7.1130                 1.0846
 Frc consts  --      1.5721                13.9466                 5.5859
 IR Inten    --      1.7547               521.3733                77.1405

                     52                     53                     54
                      A                      A                      A
 Frequencies --   3006.5295              3010.2626              3057.9817
 Red. masses --      1.0760                 1.0813                 1.0495
 Frc consts  --      5.7306                 5.7732                 5.7823
 IR Inten    --    114.6244                 2.6534                 2.4668

                     55                     56                     57
                      A                      A                      A
 Frequencies --   3067.1337              3069.3716              3070.8219
 Red. masses --      1.0645                 1.0790                 1.0592
 Frc consts  --      5.9001                 5.9890                 5.8851
 IR Inten    --      8.2889                23.8642                36.6437

                     58                     59                     60
                      A                      A                      A
 Frequencies --   3100.3293              3122.3945              3126.8143
 Red. masses --      1.0931                 1.0999                 1.0992
 Frc consts  --      6.1904                 6.3182                 6.3321
 IR Inten    --     54.9303                22.3298                30.7468

                     61                     62                     63
                      A                      A                      A
 Frequencies --   3132.3620              3154.3682              3583.1888
 Red. masses --      1.1032                 1.1028                 1.0756
 Frc consts  --      6.3777                 6.4649                 8.1364
 IR Inten    --     34.1421                14.9386                12.3069

 - Thermochemistry -
 -------------------
 Temperature   298.150 Kelvin.  Pressure   1.00000 Atm.
 Atom     1 has atomic number  6 and mass  12.00000

 Molecular mass:   143.09463 amu.
 Principal axes and moments of inertia in atomic units:
                           1         2         3
     Eigenvalues --   661.035342595.492122854.70934
           X            0.99979  -0.01871   0.00790
           Y            0.01851   0.99953   0.02430
           Z           -0.00835  -0.02415   0.99967
 This molecule is an asymmetric top.
 Rotational symmetry number  1.
 Warning -- assumption of classical behavior for rotation
           may cause significant error
 Rotational temperatures (Kelvin)      0.13103     0.03337     0.03034
 Rotational constants (GHZ):           2.73017     0.69534     0.63220
 Zero-point vibrational energy     529607.9 (Joules/Mol)
                                  126.57933 (Kcal/Mol)
 Warning -- explicit consideration of  14 degrees of freedom as
           vibrations may cause significant error
 Vibrational temperatures:     44.95    59.26   104.82   203.01   277.08
          (Kelvin)            322.80   350.73   403.30   417.95   524.66
                              607.53   826.84   877.88   887.99   912.04
                              962.30  1190.52  1289.63  1298.68  1339.42
                             1356.85  1383.53  1429.17  1495.14  1499.27
                             1521.15  1599.51  1663.20  1688.41  1723.24
                             1752.86  1757.78  1832.75  1858.12  1905.96
                             1913.71  1940.10  1966.16  1971.54  2024.99
                             2043.65  2061.38  2076.02  2159.61  2180.88
                             2194.83  2205.64  2208.90  2243.85  2624.68
                             4253.75  4325.73  4331.10  4399.75  4412.92
                             4416.14  4418.23  4460.68  4492.43  4498.79
                             4506.77  4538.43  5155.41

 Zero-point correction=                           0.201717 (Hartree/Particle)
 Thermal correction to Energy=                    0.212256
 Thermal correction to Enthalpy=                  0.213200
 Thermal correction to Gibbs Free Energy=         0.164132
 Sum of electronic and zero-point Energies=           -479.603956
 Sum of electronic and thermal Energies=              -479.593418
 Sum of electronic and thermal Enthalpies=            -479.592473
 Sum of electronic and thermal Free Energies=         -479.641541

                     E (Thermal)             CV                S
                      KCal/Mol        Cal/Mol-Kelvin    Cal/Mol-Kelvin
 Total                  133.192             37.933            103.271
 Electronic               0.000              0.000              0.000
 Translational            0.889              2.981             40.786
 Rotational               0.889              2.981             29.972
 Vibrational            131.415             31.972             32.513
 Vibration     1          0.594              1.983              5.749
 Vibration     2          0.594              1.981              5.201
 Vibration     3          0.599              1.967              4.075
 Vibration     4          0.615              1.912              2.789
 Vibration     5          0.635              1.850              2.203
 Vibration     6          0.649              1.804              1.924
 Vibration     7          0.659              1.773              1.775
 Vibration     8          0.680              1.710              1.532
 Vibration     9          0.686              1.691              1.471
 Vibration    10          0.738              1.545              1.102
 Vibration    11          0.785              1.422              0.884
 Vibration    12          0.931              1.086              0.495
 Vibration    13          0.969              1.010              0.433
 Vibration    14          0.977              0.996              0.421

 Optimization completed.
    -- Stationary point found.
 Normal termination of Gaussian 16 at Tue Dec  8 11:02:24 2020.

 ----------------------------------------------------------------------
 # B3LYP/6-311++G(d,p) empiricaldispersion=gd3bj scf=xqc pop=npa geom=c
 heck
 ----------------------------------------------------------------------

 -------------------------------------
 CID_64992365_JID_481_Energie_neutraal
 -------------------------------------
 Structure from the checkpoint file:  "JID_481.chk"
 Charge =  0 Multiplicity = 1

 SCF Done:  E(RB3LYP) =  -479.950964432     A.U. after   14 cycles
 Normal termination of Gaussian 16 at Tue Dec  8 11:06:09 2020.

 ----------------------------------------------------------------------
 # B3LYP/6-311++G(d,p) empiricaldispersion=gd3bj scf=xqc pop=npa geom=c
 heck
 ----------------------------------------------------------------------

 -----------------------------------
 CID_64992365_JID_481_Energie_kation
 -----------------------------------
 Structure from the checkpoint file:  "JID_481.chk"
 Charge =  1 Multiplicity = 2

 SCF Done:  E(UB3LYP) =  -479.623974431     A.U. after   29 cycles
 Normal termination of Gaussian 16 at Tue Dec  8 11:11:31 2020.
 Gaussian 16:  ES64L-G16RevA.03 25-Dec-2016

 ----------------------------------------------------------------------
 # B3LYP/6-311++G(d,p) empiricaldispersion=gd3bj scf=xqc pop=npa geom=c
 heck
 ----------------------------------------------------------------------

 ----------------------------------
 CID_64992365_JID_481_Energie_anion
 ----------------------------------
 Structure from the checkpoint file:  "JID_481.chk"
 Charge = -1 Multiplicity = 2

                         Standard orientation:
 ---------------------------------------------------------------------
 Center     Atomic      Atomic             Coordinates (Angstroms)
 Number     Number       Type             X           Y           Z
 ---------------------------------------------------------------------
      1          6           0       -0.186509    1.918132    0.760312
      2          6           0       -0.588237    0.783203   -0.181912
      3          6           0        0.551254   -0.215056   -0.469323
      4          6           0        1.075761   -1.010438    0.738287
      5          6           0        2.557982   -1.193264    0.384644
      6          6           0        2.868904    0.135656   -0.305620
      7          8           0        1.674181    0.496702   -1.006646
      8          7           0       -1.763138    0.075832    0.310387
      9          6           0       -2.851368   -0.262638   -0.436678
     10          8           0       -3.791874   -0.927826   -0.041174
     11          1           0        0.016699    1.552247    1.773325
     12          1           0       -0.991751    2.655320    0.827668
     13          1           0        0.715661    2.407406    0.384565
     14          1           0       -0.870704    1.223586   -1.145303
     15          1           0        0.186296   -0.913736   -1.237067
     16          1           0        0.982398   -0.430029    1.663646
     17          1           0        0.540163   -1.953223    0.875574
     18          1           0        3.193134   -1.382503    1.255003
     19          1           0        2.682653   -2.024334   -0.318682
     20          1           0        3.119149    0.913634    0.431984
     21          1           0        3.686142    0.074969   -1.031200
     22          1           0       -1.750264   -0.290879    1.255578
     23          1           0       -2.792790    0.152138   -1.463507
 ---------------------------------------------------------------------

 SCF Done:  E(UB3LYP) =  -479.937441337     A.U. after   32 cycles

 The electronic state is 2-A.
 Alpha  occ. eigenvalues --  -19.01873 -19.00345 -14.24884 -10.18130 -10.12285
 Alpha  occ. eigenvalues --  -10.12232 -10.10706 -10.06719 -10.06404 -10.06329
 Alpha  occ. eigenvalues --   -0.94966  -0.93584  -0.84046  -0.68920  -0.67668
 Alpha  occ. eigenvalues --   -0.62199  -0.54801  -0.53964  -0.49490  -0.47311
 Alpha  occ. eigenvalues --   -0.41815  -0.40642  -0.39310  -0.36818  -0.35747
 Alpha  occ. eigenvalues --   -0.33570  -0.33123  -0.31590  -0.30442  -0.28969
 Alpha  occ. eigenvalues --   -0.28367  -0.27365  -0.25355  -0.24101  -0.23113
 Alpha  occ. eigenvalues --   -0.21811  -0.17845  -0.17254  -0.14860   0.04727
 Alpha virt. eigenvalues --    0.07322   0.07515   0.08301   0.09148   0.09552
 Alpha virt. eigenvalues --    0.10155   0.10620   0.11157   0.11529   0.12742
 Alpha virt. eigenvalues --    0.13238   0.13802   0.14437   0.16045   0.16376

  Beta  occ. eigenvalues --  -19.01874 -19.00340 -14.24874 -10.18129 -10.12279
  Beta  occ. eigenvalues --  -10.12225 -10.10672 -10.06680 -10.06363 -10.06283
  Beta  occ. eigenvalues --   -0.94958  -0.93573  -0.84030  -0.68881  -0.67618
  Beta  occ. eigenvalues --   -0.62139  -0.54734  -0.53936  -0.49380  -0.47259
  Beta  occ. eigenvalues --   -0.41781  -0.40610  -0.39248  -0.36777  -0.35699
  Beta  occ. eigenvalues --   -0.33534  -0.33104  -0.31552  -0.30408  -0.28930
  Beta  occ. eigenvalues --   -0.28311  -0.27324  -0.25295  -0.24040  -0.23060
  Beta  occ. eigenvalues --   -0.21781  -0.17831  -0.17236  -0.14844
  Beta virt. eigenvalues --    0.07218   0.08015   0.08275   0.09109   0.09378
  Beta virt. eigenvalues --    0.10377   0.10693   0.11131   0.11628   0.12138
  Beta virt. eigenvalues --    0.13216   0.13758   0.14311   0.14929   0.16266

 Mulliken charges and spin densities:
               1          2
     1  C    1.691919  -2.174754
     2  C   -0.649614   0.210664
     3  C   -1.296663   1.149123
     4  C    0.745829  -0.989215
     5  C    0.532852  -0.908890
     6  C    0.899662  -1.138966
     7  O   -0.146012   0.021435
     8  N    0.038300   0.025615
     9  C    0.246503  -0.110738
    10  O   -0.367766   0.003729
    11  H   -0.781778   0.944416
    12  H   -0.049156   0.224670
    13  H   -0.122160   0.275574
    14  H    0.036233   0.132770
    15  H   -0.172491   0.383534
    16  H    0.076341   0.097163
    17  H   -0.351777   0.515946
    18  H   -0.978811   1.153681
    19  H    0.024723   0.121959
    20  H   -0.059061   0.205755
    21  H   -0.515830   0.677969
    22  H    0.171027   0.125130
    23  H    0.027730   0.053429
 Sum of Mulliken charges =  -1.00000   1.00000

 Dipole moment (field-independent basis, Debye):
    X=             -3.7965    Y=              1.3024    Z=             -4.2225  Tot=              5.8257
 Quadrupole moment (field-independent basis, Debye-Ang):
   XX=           -134.1511   YY=            -99.7483   ZZ=            -97.9546
   XY=             -1.7827   XZ=             -3.0666   YZ=             -2.6241

 Summary of Natural Population Analysis:

                                       Natural Population
                Natural  -----------------------------------------------
    Atom  No    Charge         Core      Valence    Rydberg      Total
 -----------------------------------------------------------------------
      C    1   -0.29204      0.99964     2.28590    0.00650     3.29204
      C    2   -0.01708      0.99957     2.00364    0.01387     3.01708
      C    3    0.06990      0.99953     1.91581    0.01475     2.93010
      C    4   -0.20841      0.99962     2.19994    0.00885     3.20841
      C    5   -0.20111      0.99964     2.19339    0.00808     3.20111
      C    6   -0.00707      0.99959     1.99482    0.01265     3.00707
      O    7   -0.31031      0.99989     3.30158    0.00884     4.31031
      N    8   -0.31583      0.99969     2.80622    0.00992     3.81583
      C    9    0.27385      0.99973     1.70487    0.02154     2.72615
      O   10   -0.31723      0.99988     3.31062    0.00673     4.31723
      H   11    0.10248      0.00000     0.39547    0.00205     0.39752
      H   12    0.10202      0.00000     0.39680    0.00117     0.39798
      H   13    0.11095      0.00000     0.38763    0.00142     0.38905
      H   14    0.09666      0.00000     0.40108    0.00226     0.40334
      H   15    0.08384      0.00000     0.41437    0.00179     0.41616
      H   16    0.10229      0.00000     0.39481    0.00290     0.39771
      H   17    0.10774      0.00000     0.39075    0.00151     0.39226
      H   18    0.10927      0.00000     0.38695    0.00378     0.39073
      H   19    0.09709      0.00000     0.40125    0.00166     0.40291
      H   20    0.08119      0.00000     0.41662    0.00219     0.41881
      H   21    0.08892      0.00000     0.40936    0.00172     0.41108
      H   22    0.19535      0.00000     0.30188    0.00276     0.30465
      H   23    0.04750      0.00000     0.45081    0.00169     0.45250
 =======================================================================
   * Total *   -0.00000      9.99678    28.86459    0.13863    39.00000

 Normal termination of Gaussian 16 at Tue Dec  8 11:17:36 2020.
