 Gaussian 16, Revision A.03,

 -----------------------------------------------------------
 # opt freq B3LYP/6-31G(d) empiricaldispersion=gd3bj scf=xqc
 -----------------------------------------------------------

 ------------------------------
 CID_82324078_JID_9481_neutraal
 ------------------------------
 Symbolic Z-matrix:
 Charge =  0 Multiplicity = 1

 SCF Done:  E(RB3LYP) =  -880.805837698     A.U. after   15 cycles
 SCF Done:  E(RB3LYP) =  -880.811930765     A.U. after   13 cycles
 SCF Done:  E(RB3LYP) =  -880.814613350     A.U. after   15 cycles
 SCF Done:  E(RB3LYP) =  -880.817175304     A.U. after   13 cycles
 SCF Done:  E(RB3LYP) =  -880.815958694     A.U. after   13 cycles
 SCF Done:  E(RB3LYP) =  -880.817901179     A.U. after   12 cycles
 SCF Done:  E(RB3LYP) =  -880.818814058     A.U. after   12 cycles
 SCF Done:  E(RB3LYP) =  -880.819288593     A.U. after   12 cycles
 SCF Done:  E(RB3LYP) =  -880.819513415     A.U. after   13 cycles
 SCF Done:  E(RB3LYP) =  -880.819797489     A.U. after   12 cycles
 SCF Done:  E(RB3LYP) =  -880.822416866     A.U. after   11 cycles
 SCF Done:  E(RB3LYP) =  -880.822417352     A.U. after    9 cycles
 SCF Done:  E(RB3LYP) =  -880.822417427     A.U. after    7 cycles
 SCF Done:  E(RB3LYP) =  -880.822417440     A.U. after    7 cycles
 Optimization completed.
    -- Stationary point found.
 Normal termination of Gaussian 16 at Sat Dec 12 10:18:12 2020.

 --------------------------------------------------------------------
 #N Geom=AllCheck Guess=TCheck SCRF=Check GenChk RB3LYP/6-31G(d) Freq
 --------------------------------------------------------------------

 Structure from the checkpoint file:  "JID_9481.chk"
 ------------------------------
 CID_82324078_JID_9481_neutraal
 ------------------------------
 Charge =  0 Multiplicity = 1

 SCF Done:  E(RB3LYP) =  -880.822417440     A.U. after    1 cycles

  Exact polarizability: 162.448  16.423 160.564   5.467   0.350 155.129
 Approx polarizability: 210.140  25.651 253.101   5.203  -5.938 256.772

                      1                      2                      3
                      A                      A                      A
 Frequencies --     22.1054                34.3112                47.2724
 Red. masses --      4.6892                 2.9318                 3.6717
 Frc consts  --      0.0014                 0.0020                 0.0048
 IR Inten    --      1.9424                 0.2343                 0.0599

                      4                      5                      6
                      A                      A                      A
 Frequencies --     56.1656                65.8684                80.2487
 Red. masses --      4.9110                 5.6307                 5.2091
 Frc consts  --      0.0091                 0.0144                 0.0198
 IR Inten    --      1.1318                 2.3667                 1.4841

                      7                      8                      9
                      A                      A                      A
 Frequencies --     99.8246               117.2478               125.1501
 Red. masses --      4.3387                 5.8094                 4.8704
 Frc consts  --      0.0255                 0.0471                 0.0449
 IR Inten    --      1.1671                 4.0475                 0.0689

                     10                     11                     12
                      A                      A                      A
 Frequencies --    165.1784               177.6906               199.9060
 Red. masses --      5.3176                 3.9432                 3.8600
 Frc consts  --      0.0855                 0.0734                 0.0909
 IR Inten    --      3.7550                 2.6465                 2.1141

                     13                     14                     15
                      A                      A                      A
 Frequencies --    233.6132               239.8449               269.7373
 Red. masses --      4.7533                 1.0479                 1.0853
 Frc consts  --      0.1528                 0.0355                 0.0465
 IR Inten    --      1.9880                 0.1786                 0.0483

                     16                     17                     18
                      A                      A                      A
 Frequencies --    296.7742               333.4905               346.8068
 Red. masses --      3.2365                 2.3093                 2.9677
 Frc consts  --      0.1679                 0.1513                 0.2103
 IR Inten    --      2.4328                 3.2095                 2.0931

                     19                     20                     21
                      A                      A                      A
 Frequencies --    386.3155               394.7786               411.2019
 Red. masses --      2.9818                 3.0010                 2.2507
 Frc consts  --      0.2622                 0.2756                 0.2242
 IR Inten    --      4.4497                 2.5321                 0.8741

                     22                     23                     24
                      A                      A                      A
 Frequencies --    418.0489               444.8873               460.8099
 Red. masses --      3.3281                 2.5394                 2.7850
 Frc consts  --      0.3427                 0.2961                 0.3484
 IR Inten    --      5.0724                 2.7790                 3.7302

                     25                     26                     27
                      A                      A                      A
 Frequencies --    494.5083               513.9886               527.1863
 Red. masses --      1.8560                 3.7205                 2.6059
 Frc consts  --      0.2674                 0.5791                 0.4267
 IR Inten    --      4.1797                32.3430                13.1034

                     28                     29                     30
                      A                      A                      A
 Frequencies --    590.1566               617.4588               631.8934
 Red. masses --      3.7895                 3.2092                 3.9408
 Frc consts  --      0.7776                 0.7209                 0.9271
 IR Inten    --     17.7110                11.5908                12.9781

                     31                     32                     33
                      A                      A                      A
 Frequencies --    648.7345               672.0241               687.3490
 Red. masses --      4.7447                 2.5400                 2.3890
 Frc consts  --      1.1765                 0.6759                 0.6650
 IR Inten    --     14.3301                66.8818                74.5661

                     34                     35                     36
                      A                      A                      A
 Frequencies --    757.6634               769.2116               808.3452
 Red. masses --      4.2768                 1.3191                 3.6584
 Frc consts  --      1.4465                 0.4599                 1.4084
 IR Inten    --      2.1386                28.8133                 4.0499

                     37                     38                     39
                      A                      A                      A
 Frequencies --    817.7738               846.7449               854.9635
 Red. masses --      3.0537                 2.9936                 3.9562
 Frc consts  --      1.2032                 1.2646                 1.7038
 IR Inten    --     12.3995                 0.2325                 5.3943

                     40                     41                     42
                      A                      A                      A
 Frequencies --    901.5937               907.4427               928.8636
 Red. masses --      1.3471                 1.5978                 2.2419
 Frc consts  --      0.6452                 0.7752                 1.1396
 IR Inten    --      0.2278                 5.2752                 1.3450

                     43                     44                     45
                      A                      A                      A
 Frequencies --    948.2772               969.6859               975.3710
 Red. masses --      1.1812                 1.4342                 1.7933
 Frc consts  --      0.6258                 0.7945                 1.0052
 IR Inten    --      1.7821                 1.6754                 1.7352

                     46                     47                     48
                      A                      A                      A
 Frequencies --    982.2077               984.1644               996.2950
 Red. masses --      2.4096                 1.6975                 1.9754
 Frc consts  --      1.3696                 0.9687                 1.1553
 IR Inten    --     16.2703                 1.8886                13.9803

                     49                     50                     51
                      A                      A                      A
 Frequencies --   1002.3942              1021.3886              1049.7181
 Red. masses --      1.2963                 6.6766                 2.8994
 Frc consts  --      0.7674                 4.1038                 1.8823
 IR Inten    --      0.0221                12.2871                11.7093

                     52                     53                     54
                      A                      A                      A
 Frequencies --   1079.1148              1086.7486              1129.7234
 Red. masses --      2.2832                 2.3734                 1.5355
 Frc consts  --      1.5665                 1.6515                 1.1547
 IR Inten    --      2.9326                16.4778                 8.2017

                     55                     56                     57
                      A                      A                      A
 Frequencies --   1136.7916              1154.5919              1181.2398
 Red. masses --      1.6886                 2.0845                 2.4628
 Frc consts  --      1.2857                 1.6373                 2.0247
 IR Inten    --      5.0199                26.3564               228.2025

                     58                     59                     60
                      A                      A                      A
 Frequencies --   1186.5292              1208.6444              1217.8464
 Red. masses --      1.1294                 1.7713                 2.1282
 Frc consts  --      0.9368                 1.5245                 1.8597
 IR Inten    --      4.2962                18.0782                31.6712

                     61                     62                     63
                      A                      A                      A
 Frequencies --   1237.7419              1257.8967              1263.0512
 Red. masses --      1.3412                 2.3405                 1.4602
 Frc consts  --      1.2107                 2.1819                 1.3725
 IR Inten    --     15.0173                11.6383                27.7181

                     64                     65                     66
                      A                      A                      A
 Frequencies --   1285.1044              1314.3826              1323.9270
 Red. masses --      1.3212                 3.9237                 1.4568
 Frc consts  --      1.2855                 3.9939                 1.5044
 IR Inten    --     11.0032                 3.8390                 1.8838

                     67                     68                     69
                      A                      A                      A
 Frequencies --   1328.3934              1343.5510              1361.9623
 Red. masses --      1.8174                 1.5117                 1.5665
 Frc consts  --      1.8896                 1.6077                 1.7120
 IR Inten    --      3.0616                 4.0112                27.0802

                     70                     71                     72
                      A                      A                      A
 Frequencies --   1389.0702              1393.1048              1408.7857
 Red. masses --      1.4612                 1.3509                 1.4065
 Frc consts  --      1.6612                 1.5446                 1.6447
 IR Inten    --      2.6952                 7.1062                28.6337

                     73                     74                     75
                      A                      A                      A
 Frequencies --   1418.9670              1431.8014              1437.3230
 Red. masses --      1.3703                 1.2989                 2.0890
 Frc consts  --      1.6256                 1.5689                 2.5427
 IR Inten    --     38.6679                 0.8851                88.6658

                     76                     77                     78
                      A                      A                      A
 Frequencies --   1450.1849              1468.4796              1478.8004
 Red. masses --      1.2456                 1.5672                 1.1424
 Frc consts  --      1.5434                 1.9912                 1.4720
 IR Inten    --      4.7507                71.4060                 9.1394

                     79                     80                     81
                      A                      A                      A
 Frequencies --   1485.3715              1495.1996              1504.6370
 Red. masses --      2.1874                 1.1621                 1.1902
 Frc consts  --      2.8435                 1.5307                 1.5876
 IR Inten    --     22.6443                27.1143                22.3768

                     82                     83                     84
                      A                      A                      A
 Frequencies --   1519.7740              1525.7814              1527.4109
 Red. masses --      1.0543                 1.0586                 2.1678
 Frc consts  --      1.4348                 1.4520                 2.9797
 IR Inten    --      3.2214                 5.8425                18.2577

                     85                     86                     87
                      A                      A                      A
 Frequencies --   1535.5356              1537.6418              1541.6505
 Red. masses --      1.0765                 1.1398                 1.0501
 Frc consts  --      1.4955                 1.5878                 1.4704
 IR Inten    --      3.8248                32.7646                14.8011

                     88                     89                     90
                      A                      A                      A
 Frequencies --   1635.3648              1655.5198              1740.9152
 Red. masses --      6.0337                 5.5210                10.2624
 Frc consts  --      9.5075                 8.9153                18.3254
 IR Inten    --     11.6746                45.5223               207.7797

                     91                     92                     93
                      A                      A                      A
 Frequencies --   1835.8760              3032.6635              3036.5733
 Red. masses --      9.2016                 1.0390                 1.0404
 Frc consts  --     18.2725                 5.6301                 5.6524
 IR Inten    --    205.9110                23.4329                28.2394

                     94                     95                     96
                      A                      A                      A
 Frequencies --   3044.3097              3051.4597              3072.4009
 Red. masses --      1.0711                 1.0651                 1.0835
 Frc consts  --      5.8488                 5.8431                 6.0263
 IR Inten    --     17.3590                16.2147                 2.2803

                     97                     98                     99
                      A                      A                      A
 Frequencies --   3087.3832              3095.3068              3097.1380
 Red. masses --      1.0590                 1.0983                 1.0710
 Frc consts  --      5.9473                 6.1997                 6.0528
 IR Inten    --     15.3151                 5.5159                28.7995

                    100                    101                    102
                      A                      A                      A
 Frequencies --   3103.5054              3110.6826              3115.9058
 Red. masses --      1.0918                 1.1019                 1.0961
 Frc consts  --      6.1956                 6.2822                 6.2699
 IR Inten    --     21.1589                37.3862                66.9369

                    103                    104                    105
                      A                      A                      A
 Frequencies --   3130.3909              3139.5145              3145.1723
 Red. masses --      1.1006                 1.1044                 1.0992
 Frc consts  --      6.3546                 6.4138                 6.4064
 IR Inten    --     18.7305                 8.1038                18.3327

                    106                    107                    108
                      A                      A                      A
 Frequencies --   3154.9410              3172.4052              3193.7004
 Red. masses --      1.0930                 1.0889                 1.0878
 Frc consts  --      6.4100                 6.4570                 6.5371
 IR Inten    --      3.4741                15.4033                 6.7359

                    109                    110                    111
                      A                      A                      A
 Frequencies --   3210.3887              3218.2577              3687.5019
 Red. masses --      1.0924                 1.0980                 1.0639
 Frc consts  --      6.6337                 6.7005                 8.5231
 IR Inten    --     20.0624                16.8967                41.2290

 - Thermochemistry -
 -------------------
 Temperature   298.150 Kelvin.  Pressure   1.00000 Atm.
 Atom     1 has atomic number  6 and mass  12.00000

 Molecular mass:   264.14739 amu.
 Principal axes and moments of inertia in atomic units:
                           1         2         3
     Eigenvalues --  4007.768975735.053667074.16316
           X            0.99943   0.02771  -0.01911
           Y           -0.02731   0.99941   0.02070
           Z            0.01967  -0.02017   0.99960
 This molecule is an asymmetric top.
 Rotational symmetry number  1.
 Warning -- assumption of classical behavior for rotation
           may cause significant error
 Rotational temperatures (Kelvin)      0.02161     0.01510     0.01224
 Rotational constants (GHZ):           0.45031     0.31469     0.25512
 Zero-point vibrational energy     871759.0 (Joules/Mol)
                                  208.35540 (Kcal/Mol)
 Warning -- explicit consideration of  29 degrees of freedom as
           vibrations may cause significant error
 Vibrational temperatures:     31.80    49.37    68.01    80.81    94.77
          (Kelvin)            115.46   143.63   168.69   180.06   237.65
                              255.66   287.62   336.12   345.08   388.09
                              426.99   479.82   498.98   555.82   568.00
                              591.63   601.48   640.09   663.00   711.49
                              739.51   758.50   849.10   888.39   909.15
                              933.38   966.89   988.94  1090.11  1106.72
                             1163.03  1176.59  1218.28  1230.10  1297.19
                             1305.61  1336.43  1364.36  1395.16  1403.34
                             1413.18  1415.99  1433.45  1442.22  1469.55
                             1510.31  1552.61  1563.59  1625.42  1635.59
                             1661.20  1699.54  1707.15  1738.97  1752.21
                             1780.83  1809.83  1817.25  1848.98  1891.10
                             1904.84  1911.26  1933.07  1959.56  1998.56
                             2004.37  2026.93  2041.58  2060.04  2067.99
                             2086.49  2112.81  2127.66  2137.12  2151.26
                             2164.84  2186.62  2195.26  2197.60  2209.29
                             2212.32  2218.09  2352.93  2381.92  2504.79
                             2641.42  4363.33  4368.95  4380.08  4390.37
                             4420.50  4442.06  4453.46  4456.09  4465.25
                             4475.58  4483.09  4503.93  4517.06  4525.20
                             4539.26  4564.38  4595.02  4619.03  4630.35
                             5305.49

 Zero-point correction=                           0.332035 (Hartree/Particle)
 Thermal correction to Energy=                    0.350994
 Thermal correction to Enthalpy=                  0.351938
 Thermal correction to Gibbs Free Energy=         0.283280
 Sum of electronic and zero-point Energies=           -880.490382
 Sum of electronic and thermal Energies=              -880.471424
 Sum of electronic and thermal Enthalpies=            -880.470480
 Sum of electronic and thermal Free Energies=         -880.539138

                     E (Thermal)             CV                S
                      KCal/Mol        Cal/Mol-Kelvin    Cal/Mol-Kelvin
 Total                  220.252             71.197            144.503
 Electronic               0.000              0.000              0.000
 Translational            0.889              2.981             42.613
 Rotational               0.889              2.981             33.452
 Vibrational            218.474             65.236             68.438
 Vibration     1          0.593              1.985              6.435
 Vibration     2          0.594              1.983              5.563
 Vibration     3          0.595              1.979              4.928
 Vibration     4          0.596              1.975              4.588
 Vibration     5          0.597              1.971              4.273
 Vibration     6          0.600              1.963              3.885
 Vibration     7          0.604              1.949              3.458
 Vibration     8          0.608              1.935              3.145
 Vibration     9          0.610              1.928              3.019
 Vibration    10          0.624              1.885              2.490
 Vibration    11          0.628              1.870              2.353
 Vibration    12          0.638              1.840              2.134
 Vibration    13          0.654              1.789              1.851
 Vibration    14          0.657              1.779              1.804
 Vibration    15          0.674              1.729              1.598
 Vibration    16          0.690              1.680              1.435
 Vibration    17          0.715              1.609              1.243
 Vibration    18          0.725              1.582              1.181
 Vibration    19          0.755              1.499              1.014
 Vibration    20          0.762              1.481              0.982
 Vibration    21          0.775              1.446              0.922
 Vibration    22          0.781              1.431              0.899
 Vibration    23          0.804              1.372              0.811
 Vibration    24          0.819              1.337              0.764
 Vibration    25          0.850              1.262              0.672
 Vibration    26          0.869              1.219              0.624
 Vibration    27          0.882              1.190              0.594
 Vibration    28          0.947              1.053              0.467
 Vibration    29          0.977              0.995              0.421

                           ! Non-Optimized Parameters !
 Normal termination of Gaussian 16 at Sat Dec 12 10:41:46 2020.

 ----------------------------------------------------------------------
 # B3LYP/6-311++G(d,p) empiricaldispersion=gd3bj scf=xqc pop=npa geom=c
 heck
 ----------------------------------------------------------------------

 --------------------------------------
 CID_82324078_JID_9481_Energie_neutraal
 --------------------------------------
 Structure from the checkpoint file:  "JID_9481.chk"
 Charge =  0 Multiplicity = 1

 SCF Done:  E(RB3LYP) =  -881.076012658     A.U. after   16 cycles
 Normal termination of Gaussian 16 at Sat Dec 12 10:52:45 2020.

 ----------------------------------------------------------------------
 # B3LYP/6-311++G(d,p) empiricaldispersion=gd3bj scf=xqc pop=npa geom=c
 heck
 ----------------------------------------------------------------------

 ------------------------------------
 CID_82324078_JID_9481_Energie_kation
 ------------------------------------
 Structure from the checkpoint file:  "JID_9481.chk"
 Charge =  1 Multiplicity = 2

 SCF Done:  E(UB3LYP) =  -880.765164088     A.U. after   33 cycles
 SCF Done:  E(UB3LYP) =  -880.765164088     a.u. after    3 cycles
 Normal termination of Gaussian 16 at Sat Dec 12 12:21:36 2020.
 Gaussian 16:  ES64L-G16RevA.03 25-Dec-2016

 ----------------------------------------------------------------------
 # B3LYP/6-311++G(d,p) empiricaldispersion=gd3bj scf=xqc pop=npa geom=c
 heck
 ----------------------------------------------------------------------

 -----------------------------------
 CID_82324078_JID_9481_Energie_anion
 -----------------------------------
 Structure from the checkpoint file:  "JID_9481.chk"
 Charge = -1 Multiplicity = 2

                         Standard orientation:
 ---------------------------------------------------------------------
 Center     Atomic      Atomic             Coordinates (Angstroms)
 Number     Number       Type             X           Y           Z
 ---------------------------------------------------------------------
      1          6           0        2.228253   -0.638298   -1.757579
      2          6           0        3.204496   -0.776308   -0.582861
      3          6           0        4.636477   -0.439862   -1.008656
      4          6           0        2.769385    0.108863    0.600828
      5          6           0        1.447292   -0.384733    1.180177
      6          8           0        1.285442   -1.584677    1.397911
      7          7           0        0.438855    0.507358    1.445589
      8          6           0        0.505778    1.944197    1.201198
      9          6           0        0.092043    2.378802   -0.210856
     10          6           0       -1.408021    2.428649   -0.393376
     11          8           0       -2.226586    2.507125    0.499046
     12          8           0       -1.753757    2.480678   -1.700646
     13          6           0       -0.835599   -0.091962    1.838848
     14          6           0       -1.464633   -0.903122    0.721307
     15          6           0       -2.083013   -2.130644    0.969731
     16          6           0       -2.677090   -2.811400   -0.089119
     17          6           0       -2.630669   -2.248766   -1.364795
     18          6           0       -1.985075   -1.023236   -1.516019
     19          7           0       -1.415077   -0.363237   -0.502807
     20          1           0        2.233174    0.387897   -2.150199
     21          1           0        1.203850   -0.882136   -1.458926
     22          1           0        2.509456   -1.306010   -2.579963
     23          1           0        3.170028   -1.812207   -0.227832
     24          1           0        4.712594    0.600620   -1.351386
     25          1           0        5.343139   -0.571933   -0.180767
     26          1           0        4.960836   -1.083767   -1.834244
     27          1           0        3.518752    0.042967    1.400598
     28          1           0        2.737372    1.152379    0.275986
     29          1           0       -0.148438    2.436694    1.925262
     30          1           0        1.519683    2.289264    1.407841
     31          1           0        0.465427    3.395265   -0.401009
     32          1           0        0.521892    1.725894   -0.972254
     33          1           0       -2.727567    2.535911   -1.713083
     34          1           0       -0.681142   -0.733233    2.710610
     35          1           0       -1.512427    0.722061    2.108925
     36          1           0       -2.078801   -2.546933    1.972113
     37          1           0       -3.158237   -3.771488    0.075359
     38          1           0       -3.075453   -2.747243   -2.220273
     39          1           0       -1.919133   -0.540958   -2.489692
 ---------------------------------------------------------------------

 SCF Done:  E(UB3LYP) =  -881.066082741     A.U. after   33 cycles
 SCF Done:  E(UB3LYP) =  -881.066082741     a.u. after    1 cycles

 The electronic state is 2-A.
 Alpha  occ. eigenvalues --  -19.06683 -19.00712 -18.97721 -14.23695 -14.18292
 Alpha  occ. eigenvalues --  -10.20042 -10.16165 -10.10847 -10.09821 -10.09723
 Alpha  occ. eigenvalues --  -10.09068 -10.07853 -10.07536 -10.07267 -10.06955
 Alpha  occ. eigenvalues --  -10.06851 -10.06544 -10.06334 -10.05362  -1.00586
 Alpha  occ. eigenvalues --   -0.93199  -0.91526  -0.83911  -0.82083  -0.71244
 Alpha  occ. eigenvalues --   -0.69007  -0.68632  -0.66428  -0.62093  -0.59112
 Alpha  occ. eigenvalues --   -0.58551  -0.57165  -0.52075  -0.50846  -0.49390
 Alpha  occ. eigenvalues --   -0.46912  -0.43213  -0.41504  -0.40778  -0.39836
 Alpha  occ. eigenvalues --   -0.38469  -0.37926  -0.37277  -0.35930  -0.35821
 Alpha  occ. eigenvalues --   -0.35535  -0.33931  -0.33076  -0.32344  -0.31526
 Alpha  occ. eigenvalues --   -0.30880  -0.30175  -0.29455  -0.28954  -0.28782
 Alpha  occ. eigenvalues --   -0.28015  -0.27418  -0.26822  -0.26539  -0.26124
 Alpha  occ. eigenvalues --   -0.25051  -0.23659  -0.22785  -0.22511  -0.22184
 Alpha  occ. eigenvalues --   -0.18182  -0.17819  -0.15890  -0.14659  -0.14156
 Alpha  occ. eigenvalues --   -0.14111   0.04547
 Alpha virt. eigenvalues --    0.06266   0.06904   0.07123   0.07722   0.08490
 Alpha virt. eigenvalues --    0.08927   0.09097   0.09283   0.09913   0.10339
 Alpha virt. eigenvalues --    0.10734   0.10974   0.11400   0.11765   0.12247

  Beta  occ. eigenvalues --  -19.06672 -19.00677 -18.97714 -14.23692 -14.18058
  Beta  occ. eigenvalues --  -10.19997 -10.16154 -10.10826 -10.09824 -10.09684
  Beta  occ. eigenvalues --  -10.09014 -10.07834 -10.07531 -10.07250 -10.06878
  Beta  occ. eigenvalues --  -10.06732 -10.06534 -10.06316 -10.05354  -1.00535
  Beta  occ. eigenvalues --   -0.93183  -0.91473  -0.83771  -0.81890  -0.71225
  Beta  occ. eigenvalues --   -0.68719  -0.68532  -0.66310  -0.62036  -0.59045
  Beta  occ. eigenvalues --   -0.58524  -0.57109  -0.51842  -0.50726  -0.49284
  Beta  occ. eigenvalues --   -0.46859  -0.43145  -0.41427  -0.40738  -0.39784
  Beta  occ. eigenvalues --   -0.38417  -0.37842  -0.37218  -0.35859  -0.35732
  Beta  occ. eigenvalues --   -0.35420  -0.33876  -0.33033  -0.32294  -0.31445
  Beta  occ. eigenvalues --   -0.30818  -0.30111  -0.29405  -0.28824  -0.28705
  Beta  occ. eigenvalues --   -0.27848  -0.27178  -0.26739  -0.26476  -0.26044
  Beta  occ. eigenvalues --   -0.24987  -0.23623  -0.22753  -0.22479  -0.22070
  Beta  occ. eigenvalues --   -0.18036  -0.16846  -0.15710  -0.14385  -0.14109
  Beta  occ. eigenvalues --   -0.13875
  Beta virt. eigenvalues --    0.06665   0.07050   0.07634   0.07995   0.08220
  Beta virt. eigenvalues --    0.08798   0.09104   0.09275   0.09359   0.10166
  Beta virt. eigenvalues --    0.10374   0.10914   0.11449   0.11628   0.11874

 Mulliken charges and spin densities:
               1          2
     1  C   -0.071548  -0.533716
     2  C   -0.717576   1.095315
     3  C    0.248574  -0.947965
     4  C    0.682899  -0.881040
     5  C   -0.956492   0.459786
     6  O   -0.236717  -0.003861
     7  N    0.328478  -0.006223
     8  C    0.027719  -0.433415
     9  C    0.432714  -0.406884
    10  C    0.034610  -0.385641
    11  O   -0.229787  -0.003339
    12  O   -0.126562   0.024655
    13  C   -0.229162  -0.563359
    14  C    0.389250   0.291743
    15  C   -0.348442   0.203567
    16  C   -0.575097   0.162525
    17  C    0.053263  -0.279437
    18  C   -0.256513   0.176027
    19  N    0.137329   0.057215
    20  H   -0.057498   0.194271
    21  H    0.157048  -0.032068
    22  H    0.102180   0.037625
    23  H    0.181509   0.023219
    24  H   -0.196890   0.339999
    25  H   -0.034953   0.155433
    26  H    0.006197   0.124150
    27  H    0.044895   0.151149
    28  H    0.271360  -0.129976
    29  H    0.176616   0.019903
    30  H   -0.619151   0.808489
    31  H   -0.961293   1.179383
    32  H    0.532511  -0.279664
    33  H    0.180602   0.097631
    34  H    0.141444  -0.004251
    35  H    0.155342   0.044869
    36  H    0.131013   0.013049
    37  H    0.089214   0.042962
    38  H    0.050814   0.090794
    39  H    0.062100   0.097081
 Sum of Mulliken charges =  -1.00000   1.00000

 Dipole moment (field-independent basis, Debye):
    X=             -3.3203    Y=             -4.0614    Z=              0.3691  Tot=              5.2588
 Quadrupole moment (field-independent basis, Debye-Ang):
   XX=           -167.2085   YY=           -170.7948   ZZ=           -137.8837
   XY=             -6.3744   XZ=              3.7679   YZ=              0.7967

 Summary of Natural Population Analysis:

                                       Natural Population
                Natural  -----------------------------------------------
    Atom  No    Charge         Core      Valence    Rydberg      Total
 -----------------------------------------------------------------------
      C    1   -0.28888      0.99964     2.28343    0.00581     3.28888
      C    2   -0.11259      0.99962     2.10429    0.00868     3.11259
      C    3   -0.28327      0.99965     2.27817    0.00545     3.28327
      C    4   -0.22986      0.99957     2.22092    0.00937     3.22986
      C    5    0.35342      0.99964     1.62425    0.02270     2.64658
      O    6   -0.33035      0.99988     3.32546    0.00501     4.33035
      N    7   -0.25019      0.99963     2.73947    0.01109     3.75019
      C    8   -0.08256      0.99959     2.07054    0.01243     3.08256
      C    9   -0.24728      0.99955     2.23767    0.01007     3.24728
      C   10    0.42321      0.99972     1.55024    0.02683     2.57679
      O   11   -0.31957      0.99986     3.31412    0.00559     4.31957
      O   12   -0.34511      0.99987     3.33918    0.00606     4.34511
      C   13   -0.09970      0.99957     2.08883    0.01130     3.09970
      C   14    0.12070      0.99953     1.86581    0.01396     2.87930
      C   15   -0.11689      0.99950     2.10924    0.00815     3.11689
      C   16   -0.04995      0.99957     2.04040    0.00998     3.04995
      C   17   -0.13495      0.99956     2.12688    0.00851     3.13495
      C   18    0.03575      0.99959     1.94975    0.01492     2.96425
      N   19   -0.22465      0.99966     2.71251    0.01248     3.72465
      H   20    0.09401      0.00000     0.40491    0.00107     0.40599
      H   21    0.11082      0.00000     0.38786    0.00132     0.38918
      H   22    0.09620      0.00000     0.40310    0.00070     0.40380
      H   23    0.10301      0.00000     0.39520    0.00179     0.39699
      H   24    0.09782      0.00000     0.40117    0.00101     0.40218
      H   25    0.09653      0.00000     0.40266    0.00081     0.40347
      H   26    0.09688      0.00000     0.40237    0.00075     0.40312
      H   27    0.10876      0.00000     0.39022    0.00101     0.39124
      H   28    0.10217      0.00000     0.39615    0.00168     0.39783
      H   29    0.10585      0.00000     0.39291    0.00124     0.39415
      H   30    0.10367      0.00000     0.39483    0.00150     0.39633
      H   31    0.11789      0.00000     0.37770    0.00440     0.38211
      H   32    0.11884      0.00000     0.37900    0.00216     0.38116
      H   33    0.23705      0.00000     0.26006    0.00290     0.26295
      H   34    0.10267      0.00000     0.39641    0.00092     0.39733
      H   35    0.11324      0.00000     0.38562    0.00115     0.38676
      H   36    0.09859      0.00000     0.40045    0.00096     0.40141
      H   37    0.09345      0.00000     0.40566    0.00090     0.40655
      H   38    0.09797      0.00000     0.40123    0.00080     0.40203
      H   39    0.08732      0.00000     0.41163    0.00104     0.41268
 =======================================================================
   * Total *   -0.00000     18.99321    51.77029    0.23650    71.00000

 Normal termination of Gaussian 16 at Sat Dec 12 12:54:30 2020.
