 Gaussian 16, Revision A.03,

 -----------------------------------------------------------
 # opt freq B3LYP/6-31G(d) empiricaldispersion=gd3bj scf=xqc
 -----------------------------------------------------------

 ------------------------------
 CID_79950861_JID_3258_neutraal
 ------------------------------
 Symbolic Z-matrix:
 Charge =  0 Multiplicity = 1

 SCF Done:  E(RB3LYP) =  -933.136326369     A.U. after   14 cycles
 SCF Done:  E(RB3LYP) =  -933.140812733     A.U. after   13 cycles
 SCF Done:  E(RB3LYP) =  -933.141410399     A.U. after   13 cycles
 SCF Done:  E(RB3LYP) =  -933.143071446     A.U. after   12 cycles
 SCF Done:  E(RB3LYP) =  -933.144498200     A.U. after   12 cycles
 SCF Done:  E(RB3LYP) =  -933.145420481     A.U. after   12 cycles
 SCF Done:  E(RB3LYP) =  -933.145762032     A.U. after   11 cycles
 SCF Done:  E(RB3LYP) =  -933.145874588     A.U. after   10 cycles
 SCF Done:  E(RB3LYP) =  -933.145943308     A.U. after   10 cycles
 SCF Done:  E(RB3LYP) =  -933.146113284     A.U. after   12 cycles
 SCF Done:  E(RB3LYP) =  -933.143838686     A.U. after   13 cycles
 SCF Done:  E(RB3LYP) =  -933.147893657     A.U. after   11 cycles
 SCF Done:  E(RB3LYP) =  -933.147964792     A.U. after   10 cycles
 SCF Done:  E(RB3LYP) =  -933.147971870     A.U. after    9 cycles
 SCF Done:  E(RB3LYP) =  -933.147972769     A.U. after    8 cycles
 Optimization completed.
    -- Stationary point found.
 Normal termination of Gaussian 16 at Wed Dec  9 22:35:21 2020.

 --------------------------------------------------------------------
 #N Geom=AllCheck Guess=TCheck SCRF=Check GenChk RB3LYP/6-31G(d) Freq
 --------------------------------------------------------------------

 Structure from the checkpoint file:  "JID_3258.chk"
 ------------------------------
 CID_79950861_JID_3258_neutraal
 ------------------------------
 Charge =  0 Multiplicity = 1

 SCF Done:  E(RB3LYP) =  -933.147972769     A.U. after    1 cycles

  Exact polarizability: 142.975  -0.249 125.821  -7.773   6.364  87.544
 Approx polarizability: 202.357  -1.428 225.693 -17.793  17.053 140.768

                      1                      2                      3
                      A                      A                      A
 Frequencies --     73.1150                92.6530               121.4067
 Red. masses --      5.5288                 5.0818                 4.8510
 Frc consts  --      0.0174                 0.0257                 0.0421
 IR Inten    --      0.6634                 0.3257                 1.8554

                      4                      5                      6
                      A                      A                      A
 Frequencies --    181.6164               235.6087               258.6961
 Red. masses --      3.5586                 3.1714                 4.2390
 Frc consts  --      0.0692                 0.1037                 0.1671
 IR Inten    --      1.9662                 2.2874                 2.8622

                      7                      8                      9
                      A                      A                      A
 Frequencies --    301.5522               320.0774               343.2805
 Red. masses --      3.9391                 2.9037                 2.6619
 Frc consts  --      0.2110                 0.1753                 0.1848
 IR Inten    --      4.8568                 3.0333                 9.4125

                     10                     11                     12
                      A                      A                      A
 Frequencies --    387.3359               424.9596               440.0668
 Red. masses --      2.6485                 1.5655                 3.2599
 Frc consts  --      0.2341                 0.1666                 0.3720
 IR Inten    --      6.3565                70.2726                12.3210

                     13                     14                     15
                      A                      A                      A
 Frequencies --    474.9061               492.8793               517.5986
 Red. masses --      1.5698                 3.5996                 2.1281
 Frc consts  --      0.2086                 0.5152                 0.3359
 IR Inten    --     96.9356                 3.1720                60.0985

                     16                     17                     18
                      A                      A                      A
 Frequencies --    539.9761               569.8239               594.3456
 Red. masses --      3.8999                 6.1985                 4.1463
 Frc consts  --      0.6700                 1.1858                 0.8630
 IR Inten    --      3.9400                 6.0065                 8.3365

                     19                     20                     21
                      A                      A                      A
 Frequencies --    627.7019               678.2342               701.2706
 Red. masses --      4.0520                 3.0483                 1.3382
 Frc consts  --      0.9407                 0.8262                 0.3877
 IR Inten    --      5.7531                18.4310               181.6981

                     22                     23                     24
                      A                      A                      A
 Frequencies --    735.9891               760.5067               779.0921
 Red. masses --      5.2556                 4.9321                 4.3718
 Frc consts  --      1.6773                 1.6807                 1.5634
 IR Inten    --      4.2527                 6.9754                12.5728

                     25                     26                     27
                      A                      A                      A
 Frequencies --    833.3310               845.5482               876.7321
 Red. masses --      1.4233                 1.8367                 3.2186
 Frc consts  --      0.5824                 0.7737                 1.4576
 IR Inten    --     27.0366                 5.1349                10.0728

                     28                     29                     30
                      A                      A                      A
 Frequencies --    913.5294               944.5844               953.4523
 Red. masses --      2.1830                 1.3717                 1.6737
 Frc consts  --      1.0734                 0.7211                 0.8965
 IR Inten    --      2.1150                 3.8852                12.3954

                     31                     32                     33
                      A                      A                      A
 Frequencies --    983.6978              1002.7575              1040.7928
 Red. masses --      1.4243                 2.3447                 2.0065
 Frc consts  --      0.8120                 1.3891                 1.2806
 IR Inten    --      1.6661                14.6993                33.4077

                     34                     35                     36
                      A                      A                      A
 Frequencies --   1050.9063              1080.6691              1094.2478
 Red. masses --      2.4072                 2.2170                 2.1206
 Frc consts  --      1.5663                 1.5255                 1.4960
 IR Inten    --     50.3116                 6.7115                 6.4316

                     37                     38                     39
                      A                      A                      A
 Frequencies --   1130.4229              1140.5382              1173.0598
 Red. masses --      1.4692                 1.2701                 1.6508
 Frc consts  --      1.1061                 0.9734                 1.3384
 IR Inten    --      0.2971                19.5278                 3.7190

                     40                     41                     42
                      A                      A                      A
 Frequencies --   1208.7180              1237.3872              1269.1299
 Red. masses --      1.4468                 1.5922                 1.4073
 Frc consts  --      1.2454                 1.4364                 1.3355
 IR Inten    --      5.5217                20.3556                 8.0586

                     43                     44                     45
                      A                      A                      A
 Frequencies --   1305.5538              1319.4888              1334.3120
 Red. masses --      1.7881                 1.3426                 5.1880
 Frc consts  --      1.7957                 1.3772                 5.4420
 IR Inten    --     25.9540                26.0329                14.0967

                     46                     47                     48
                      A                      A                      A
 Frequencies --   1346.9445              1356.1542              1378.1342
 Red. masses --      2.3065                 1.4890                 1.7743
 Frc consts  --      2.4655                 1.6135                 1.9855
 IR Inten    --      8.9144                 3.2573                22.8521

                     49                     50                     51
                      A                      A                      A
 Frequencies --   1390.5671              1469.5259              1515.2898
 Red. masses --      1.4978                 2.5775                 1.0858
 Frc consts  --      1.7064                 3.2794                 1.4689
 IR Inten    --     32.8195                32.6816                 6.2437

                     52                     53                     54
                      A                      A                      A
 Frequencies --   1521.9219              1534.7848              1548.1055
 Red. masses --      1.1231                 1.1858                 1.9542
 Frc consts  --      1.5326                 1.6457                 2.7594
 IR Inten    --      2.5415                14.7525                44.0499

                     55                     56                     57
                      A                      A                      A
 Frequencies --   1618.6046              1651.2024              1688.6936
 Red. masses --      5.2119                 3.4574                 1.3604
 Frc consts  --      8.0451                 5.5539                 2.2857
 IR Inten    --     37.8384                63.2110               194.9783

                     58                     59                     60
                      A                      A                      A
 Frequencies --   3074.0817              3090.4724              3091.4779
 Red. masses --      1.0618                 1.0586                 1.0583
 Frc consts  --      5.9120                 5.9570                 5.9590
 IR Inten    --     15.4287                36.2804                 4.7436

                     61                     62                     63
                      A                      A                      A
 Frequencies --   3130.2716              3141.4064              3148.2049
 Red. masses --      1.1020                 1.1095                 1.1083
 Frc consts  --      6.3619                 6.4512                 6.4718
 IR Inten    --      8.0735                 8.3898                14.6658

                     64                     65                     66
                      A                      A                      A
 Frequencies --   3165.9630              3188.7158              3199.7623
 Red. masses --      1.0874                 1.0941                 1.0899
 Frc consts  --      6.4217                 6.5547                 6.5744
 IR Inten    --     23.5474                37.6831                 5.8574

                     67                     68                     69
                      A                      A                      A
 Frequencies --   3530.6857              3654.0068              3721.0734
 Red. masses --      1.0495                 1.0981                 1.0660
 Frc consts  --      7.7081                 8.6386                 8.6966
 IR Inten    --     72.5551                45.4164                20.1430

 - Thermochemistry -
 -------------------
 Temperature   298.150 Kelvin.  Pressure   1.00000 Atm.
 Atom     1 has atomic number  6 and mass  12.00000

 Molecular mass:   196.06703 amu.
 Principal axes and moments of inertia in atomic units:
                           1         2         3
     Eigenvalues --  1563.357683081.375373836.02886
           X            0.99999   0.00268  -0.00246
           Y           -0.00266   0.99995   0.00952
           Z            0.00249  -0.00951   0.99995
 This molecule is an asymmetric top.
 Rotational symmetry number  1.
 Warning -- assumption of classical behavior for rotation
           may cause significant error
 Rotational temperatures (Kelvin)      0.05540     0.02811     0.02258
 Rotational constants (GHZ):           1.15440     0.58569     0.47047
 Zero-point vibrational energy     541594.9 (Joules/Mol)
                                  129.44430 (Kcal/Mol)
 Warning -- explicit consideration of  18 degrees of freedom as
           vibrations may cause significant error
 Vibrational temperatures:    105.20   133.31   174.68   261.31   338.99
          (Kelvin)            372.21   433.87   460.52   493.90   557.29
                              611.42   633.16   683.28   709.14   744.71
                              776.91   819.85   855.13   903.12   975.83
                             1008.97  1058.92  1094.20  1120.94  1198.98
                             1216.56  1261.42  1314.36  1359.05  1371.81
                             1415.32  1442.74  1497.47  1512.02  1554.84
                             1574.38  1626.43  1640.98  1687.77  1739.08
                             1780.32  1825.99  1878.40  1898.45  1919.78
                             1937.95  1951.20  1982.83  2000.72  2114.32
                             2180.16  2189.71  2208.21  2227.38  2328.81
                             2375.71  2429.65  4422.92  4446.50  4447.95
                             4503.76  4519.78  4529.56  4555.11  4587.85
                             4603.74  5079.87  5257.30  5353.79

 Zero-point correction=                           0.206283 (Hartree/Particle)
 Thermal correction to Energy=                    0.217581
 Thermal correction to Enthalpy=                  0.218525
 Thermal correction to Gibbs Free Energy=         0.169410
 Sum of electronic and zero-point Energies=           -932.941690
 Sum of electronic and thermal Energies=              -932.930392
 Sum of electronic and thermal Enthalpies=            -932.929448
 Sum of electronic and thermal Free Energies=         -932.978563

                     E (Thermal)             CV                S
                      KCal/Mol        Cal/Mol-Kelvin    Cal/Mol-Kelvin
 Total                  136.534             46.045            103.372
 Electronic               0.000              0.000              0.000
 Translational            0.889              2.981             41.725
 Rotational               0.889              2.981             31.292
 Vibrational            134.756             40.083             30.355
 Vibration     1          0.599              1.967              4.068
 Vibration     2          0.602              1.954              3.603
 Vibration     3          0.609              1.931              3.078
 Vibration     4          0.630              1.865              2.312
 Vibration     5          0.655              1.786              1.836
 Vibration     6          0.668              1.748              1.671
 Vibration     7          0.694              1.671              1.408
 Vibration     8          0.706              1.635              1.310
 Vibration     9          0.722              1.589              1.197
 Vibration    10          0.756              1.497              1.010
 Vibration    11          0.787              1.416              0.875
 Vibration    12          0.800              1.383              0.826
 Vibration    13          0.832              1.306              0.724
 Vibration    14          0.849              1.266              0.676
 Vibration    15          0.873              1.211              0.616
 Vibration    16          0.895              1.162              0.565
 Vibration    17          0.926              1.097              0.505
 Vibration    18          0.952              1.044              0.459

 Optimization completed.
    -- Stationary point found.
 Normal termination of Gaussian 16 at Wed Dec  9 22:42:55 2020.

 ----------------------------------------------------------------------
 # B3LYP/6-311++G(d,p) empiricaldispersion=gd3bj scf=xqc pop=npa geom=c
 heck
 ----------------------------------------------------------------------

 --------------------------------------
 CID_79950861_JID_3258_Energie_neutraal
 --------------------------------------
 Structure from the checkpoint file:  "JID_3258.chk"
 Charge =  0 Multiplicity = 1

 SCF Done:  E(RB3LYP) =  -933.332490840     A.U. after   15 cycles
 Normal termination of Gaussian 16 at Wed Dec  9 22:46:18 2020.

 ----------------------------------------------------------------------
 # B3LYP/6-311++G(d,p) empiricaldispersion=gd3bj scf=xqc pop=npa geom=c
 heck
 ----------------------------------------------------------------------

 ------------------------------------
 CID_79950861_JID_3258_Energie_kation
 ------------------------------------
 Structure from the checkpoint file:  "JID_3258.chk"
 Charge =  1 Multiplicity = 2

 SCF Done:  E(UB3LYP) =  -933.037296719     A.U. after   27 cycles
 Normal termination of Gaussian 16 at Wed Dec  9 22:55:14 2020.
 Gaussian 16:  ES64L-G16RevA.03 25-Dec-2016

 ----------------------------------------------------------------------
 # B3LYP/6-311++G(d,p) empiricaldispersion=gd3bj scf=xqc pop=npa geom=c
 heck
 ----------------------------------------------------------------------

 -----------------------------------
 CID_79950861_JID_3258_Energie_anion
 -----------------------------------
 Structure from the checkpoint file:  "JID_3258.chk"
 Charge = -1 Multiplicity = 2

                         Standard orientation:
 ---------------------------------------------------------------------
 Center     Atomic      Atomic             Coordinates (Angstroms)
 Number     Number       Type             X           Y           Z
 ---------------------------------------------------------------------
      1          6           0        1.299088    1.109061    0.923599
      2          6           0        1.868509   -0.173028    1.521681
      3         16           0        2.680348   -1.072242    0.119515
      4          6           0        1.799743   -0.074825   -1.155563
      5          6           0        0.693807    0.732092   -0.442774
      6          6           0       -0.625900   -0.011557   -0.270583
      7          6           0       -1.781681    0.679397    0.184157
      8          6           0       -2.955719   -0.070156    0.366511
      9          6           0       -2.943936   -1.432637    0.107173
     10          7           0       -1.866579   -2.107194   -0.314347
     11          6           0       -0.750312   -1.386806   -0.485709
     12          7           0       -1.753066    2.026164    0.484577
     13          8           0        0.480185    1.967736   -1.164773
     14          1           0        2.095499    1.840519    0.747432
     15          1           0        0.550103    1.561183    1.579713
     16          1           0        2.613075    0.023158    2.295836
     17          1           0        1.077269   -0.800170    1.941095
     18          1           0        1.407268   -0.727290   -1.939523
     19          1           0        2.490471    0.640384   -1.607491
     20          1           0       -3.864129    0.418411    0.709880
     21          1           0       -3.852892   -2.016716    0.243305
     22          1           0        0.119149   -1.958017   -0.798379
     23          1           0       -2.652689    2.479533    0.570111
     24          1           0       -1.048447    2.559875   -0.013136
     25          1           0        0.054203    1.731076   -2.005456
 ---------------------------------------------------------------------

 SCF Done:  E(UB3LYP) =  -933.324368730     A.U. after   33 cycles
 SCF Done:  E(UB3LYP) =  -933.324368730     a.u. after    1 cycles

 The electronic state is 2-A.
 Alpha  occ. eigenvalues --  -88.74007 -19.02477 -14.20691 -14.18842 -10.14647
 Alpha  occ. eigenvalues --  -10.11813 -10.10659 -10.09766 -10.09463 -10.09311
 Alpha  occ. eigenvalues --  -10.08056 -10.07441 -10.06339  -7.82630  -5.79021
 Alpha  occ. eigenvalues --   -5.78683  -5.77988  -0.92967  -0.83385  -0.80614
 Alpha  occ. eigenvalues --   -0.74943  -0.67277  -0.65650  -0.63730  -0.61043
 Alpha  occ. eigenvalues --   -0.53355  -0.51561  -0.49243  -0.47179  -0.43030
 Alpha  occ. eigenvalues --   -0.42513  -0.40256  -0.38568  -0.36847  -0.35115
 Alpha  occ. eigenvalues --   -0.34021  -0.32861  -0.31192  -0.30526  -0.29755
 Alpha  occ. eigenvalues --   -0.28434  -0.27895  -0.26701  -0.25641  -0.23705
 Alpha  occ. eigenvalues --   -0.23130  -0.22595  -0.18364  -0.15440  -0.14794
 Alpha  occ. eigenvalues --   -0.12811  -0.11921   0.04574
 Alpha virt. eigenvalues --    0.07139   0.07566   0.08627   0.08699   0.09151
 Alpha virt. eigenvalues --    0.09658   0.10174   0.10766   0.11013   0.12015
 Alpha virt. eigenvalues --    0.12452   0.12840   0.13182   0.14554   0.15112

  Beta  occ. eigenvalues --  -88.73997 -19.02390 -14.20618 -14.18830 -10.14636
  Beta  occ. eigenvalues --  -10.11752 -10.10655 -10.09726 -10.09457 -10.09265
  Beta  occ. eigenvalues --  -10.08050 -10.07436 -10.06335  -7.82619  -5.78997
  Beta  occ. eigenvalues --   -5.78671  -5.77980  -0.92784  -0.83320  -0.80522
  Beta  occ. eigenvalues --   -0.74889  -0.67206  -0.65586  -0.63678  -0.60975
  Beta  occ. eigenvalues --   -0.53299  -0.51459  -0.49192  -0.47099  -0.42934
  Beta  occ. eigenvalues --   -0.42436  -0.40187  -0.38517  -0.36803  -0.35053
  Beta  occ. eigenvalues --   -0.33958  -0.32793  -0.31125  -0.30461  -0.29685
  Beta  occ. eigenvalues --   -0.28343  -0.27861  -0.26651  -0.25579  -0.23642
  Beta  occ. eigenvalues --   -0.22987  -0.22525  -0.18283  -0.15344  -0.14755
  Beta  occ. eigenvalues --   -0.12775  -0.11788
  Beta virt. eigenvalues --    0.07307   0.07759   0.08287   0.08774   0.09214
  Beta virt. eigenvalues --    0.09357   0.10211   0.10335   0.11175   0.11558
  Beta virt. eigenvalues --    0.12142   0.12487   0.13141   0.13570   0.14774

 Mulliken charges and spin densities:
               1          2
     1  C   -0.493335  -0.241507
     2  C   -0.456250   0.111462
     3  S   -0.169613   0.091174
     4  C    0.343347  -0.855036
     5  C    2.430368  -2.182021
     6  C    0.077581   0.484746
     7  C   -0.811376   0.786513
     8  C    0.146052  -0.227371
     9  C    0.289205  -0.610924
    10  N   -0.068809   0.032647
    11  C   -0.834209   0.059049
    12  N   -0.328075   0.059994
    13  O   -0.166553  -0.013279
    14  H    0.148448   0.017519
    15  H    0.126279   0.042200
    16  H    0.221302  -0.004736
    17  H    0.178977   0.015079
    18  H   -0.102441   0.286812
    19  H    0.097098   0.152295
    20  H   -0.780948   0.942451
    21  H    0.112913   0.039740
    22  H    0.197513  -0.004088
    23  H   -0.510457   0.790871
    24  H   -0.075761   0.371301
    25  H   -0.571256   0.855109
 Sum of Mulliken charges =  -1.00000   1.00000

 Dipole moment (field-independent basis, Debye):
    X=              5.8892    Y=             -4.0076    Z=              3.9573  Tot=              8.1488
 Quadrupole moment (field-independent basis, Debye-Ang):
   XX=           -136.2166   YY=           -134.9562   ZZ=           -113.6493
   XY=             13.1671   XZ=              3.3091   YZ=              4.8905

 Summary of Natural Population Analysis:

                                       Natural Population
                Natural  -----------------------------------------------
    Atom  No    Charge         Core      Valence    Rydberg      Total
 -----------------------------------------------------------------------
      C    1   -0.20242      0.99957     2.19225    0.01061     3.20242
      C    2   -0.23984      0.99960     2.23354    0.00670     3.23984
      S    3    0.06956      4.99966     2.91426    0.01652     7.93044
      C    4   -0.25131      0.99953     2.24040    0.01137     3.25131
      C    5    0.12384      0.99945     1.85782    0.01889     2.87616
      C    6   -0.08319      0.99941     2.07001    0.01376     3.08319
      C    7    0.11932      0.99946     1.86754    0.01368     2.88068
      C    8   -0.14725      0.99951     2.13791    0.00983     3.14725
      C    9    0.03764      0.99958     1.94818    0.01460     2.96236
      N   10   -0.25760      0.99971     2.74654    0.01134     3.75760
      C   11    0.03419      0.99953     1.95146    0.01483     2.96581
      N   12   -0.39438      0.99970     2.88471    0.00998     3.89438
      O   13   -0.37901      0.99989     3.37120    0.00791     4.37901
      H   14    0.10446      0.00000     0.39442    0.00111     0.39554
      H   15    0.11481      0.00000     0.38391    0.00128     0.38519
      H   16    0.10191      0.00000     0.39704    0.00105     0.39809
      H   17    0.10225      0.00000     0.39656    0.00119     0.39775
      H   18    0.10971      0.00000     0.38885    0.00144     0.39029
      H   19    0.10971      0.00000     0.38858    0.00172     0.39029
      H   20    0.10464      0.00000     0.39395    0.00141     0.39536
      H   21    0.08574      0.00000     0.41312    0.00114     0.41426
      H   22    0.09327      0.00000     0.40463    0.00211     0.40673
      H   23    0.19306      0.00000     0.29564    0.01129     0.30694
      H   24    0.20657      0.00000     0.28912    0.00432     0.29343
      H   25    0.24434      0.00000     0.23228    0.02337     0.25566
 =======================================================================
   * Total *   -0.00000     16.99461    34.79393    0.21146    52.00000

 Normal termination of Gaussian 16 at Wed Dec  9 23:05:40 2020.
