 Gaussian 16, Revision A.03,

 -----------------------------------------------------------
 # opt freq B3LYP/6-31G(d) empiricaldispersion=gd3bj scf=xqc
 -----------------------------------------------------------

 ------------------------------
 CID_39225102_JID_6204_neutraal
 ------------------------------
 Symbolic Z-matrix:
 Charge =  0 Multiplicity = 1

 SCF Done:  E(RB3LYP) =  -760.367344513     A.U. after   15 cycles
 SCF Done:  E(RB3LYP) =  -760.370243739     A.U. after   12 cycles
 SCF Done:  E(RB3LYP) =  -760.370612019     A.U. after   12 cycles
 SCF Done:  E(RB3LYP) =  -760.369931942     A.U. after   13 cycles
 SCF Done:  E(RB3LYP) =  -760.370890275     A.U. after   12 cycles
 SCF Done:  E(RB3LYP) =  -760.371051544     A.U. after   12 cycles
 SCF Done:  E(RB3LYP) =  -760.371518049     A.U. after   14 cycles
 SCF Done:  E(RB3LYP) =  -760.358478320     A.U. after   13 cycles
 SCF Done:  E(RB3LYP) =  -760.372734555     A.U. after   13 cycles
 SCF Done:  E(RB3LYP) =  -760.373290144     A.U. after   12 cycles
 SCF Done:  E(RB3LYP) =  -760.373997537     A.U. after   11 cycles
 SCF Done:  E(RB3LYP) =  -760.374007872     A.U. after   10 cycles
 SCF Done:  E(RB3LYP) =  -760.374013080     A.U. after    9 cycles
 SCF Done:  E(RB3LYP) =  -760.374013402     A.U. after    8 cycles
 SCF Done:  E(RB3LYP) =  -760.374013444     A.U. after    7 cycles
 Optimization completed.
    -- Stationary point found.
 Normal termination of Gaussian 16 at Thu Dec 10 21:19:21 2020.

 --------------------------------------------------------------------
 #N Geom=AllCheck Guess=TCheck SCRF=Check GenChk RB3LYP/6-31G(d) Freq
 --------------------------------------------------------------------

 Structure from the checkpoint file:  "JID_6204.chk"
 ------------------------------
 CID_39225102_JID_6204_neutraal
 ------------------------------
 Charge =  0 Multiplicity = 1

 SCF Done:  E(RB3LYP) =  -760.374013444     A.U. after    1 cycles

  Exact polarizability: 192.895  -2.035 166.253   1.341  -5.977  57.750
 Approx polarizability: 299.178  -9.172 278.461   1.935 -13.301  91.134

                      1                      2                      3
                      A                      A                      A
 Frequencies --     40.1565                57.9566                80.1827
 Red. masses --      3.7699                 3.7731                 6.3846
 Frc consts  --      0.0036                 0.0075                 0.0242
 IR Inten    --      6.2989                 0.6488                 0.6182

                      4                      5                      6
                      A                      A                      A
 Frequencies --     91.7384               114.6472               171.2503
 Red. masses --      6.0497                 6.7332                 5.4186
 Frc consts  --      0.0300                 0.0521                 0.0936
 IR Inten    --      3.6046                 5.3952                 3.2356

                      7                      8                      9
                      A                      A                      A
 Frequencies --    177.7800               210.8104               239.0849
 Red. masses --      3.2484                 1.6754                 4.3140
 Frc consts  --      0.0605                 0.0439                 0.1453
 IR Inten    --      7.0452                 3.3428                 0.2503

                     10                     11                     12
                      A                      A                      A
 Frequencies --    248.0356               296.6902               313.9926
 Red. masses --      2.3093                 2.6180                 7.5799
 Frc consts  --      0.0837                 0.1358                 0.4403
 IR Inten    --      2.0038                 0.1276                 1.7153

                     13                     14                     15
                      A                      A                      A
 Frequencies --    332.1752               381.3788               404.6600
 Red. masses --      5.7596                 5.9366                 5.6241
 Frc consts  --      0.3744                 0.5087                 0.5426
 IR Inten    --      3.5433                 1.0585                 0.2504

                     16                     17                     18
                      A                      A                      A
 Frequencies --    447.3263               481.6645               500.7684
 Red. masses --      5.2648                 1.1030                 1.6776
 Frc consts  --      0.6207                 0.1508                 0.2479
 IR Inten    --      3.8110               102.8976                66.0872

                     19                     20                     21
                      A                      A                      A
 Frequencies --    522.5977               544.5032               574.7835
 Red. masses --      4.0455                 6.5031                 6.2058
 Frc consts  --      0.6510                 1.1360                 1.2080
 IR Inten    --      2.5300                 1.2512                60.9234

                     22                     23                     24
                      A                      A                      A
 Frequencies --    620.8306               672.3512               697.2603
 Red. masses --      3.9681                 2.3169                 3.1127
 Frc consts  --      0.9011                 0.6171                 0.8916
 IR Inten    --      2.2730                 6.9213                30.3932

                     25                     26                     27
                      A                      A                      A
 Frequencies --    707.5934               716.1925               788.5390
 Red. masses --      3.9311                 6.1254                 1.4466
 Frc consts  --      1.1597                 1.8512                 0.5299
 IR Inten    --      9.1695                 0.7528                11.2850

                     28                     29                     30
                      A                      A                      A
 Frequencies --    816.5903               865.9130               874.6697
 Red. masses --      6.0124                 1.3341                 2.9208
 Frc consts  --      2.3621                 0.5894                 1.3166
 IR Inten    --     40.5701                33.8143                 8.9150

                     31                     32                     33
                      A                      A                      A
 Frequencies --    875.6529               914.1681               953.2524
 Red. masses --      2.1965                 1.3677                 5.6094
 Frc consts  --      0.9923                 0.6734                 3.0032
 IR Inten    --      7.9519                 8.4092                 5.3738

                     34                     35                     36
                      A                      A                      A
 Frequencies --    960.4369              1020.8946              1033.4748
 Red. masses --      5.0977                 3.1992                 1.8023
 Frc consts  --      2.7705                 1.9645                 1.1342
 IR Inten    --     61.7323                49.1288                 0.0872

                     37                     38                     39
                      A                      A                      A
 Frequencies --   1067.2297              1120.7778              1141.1170
 Red. masses --      2.0445                 3.1516                 3.1749
 Frc consts  --      1.3720                 2.3325                 2.4358
 IR Inten    --     29.4341                20.6354                61.3240

                     40                     41                     42
                      A                      A                      A
 Frequencies --   1177.7105              1187.6046              1221.6545
 Red. masses --      1.9664                 1.2651                 1.4737
 Frc consts  --      1.6069                 1.0513                 1.2959
 IR Inten    --      3.7917                 0.6687                 6.1012

                     43                     44                     45
                      A                      A                      A
 Frequencies --   1241.3672              1256.5081              1282.4155
 Red. masses --      1.7844                 1.6269                 3.8553
 Frc consts  --      1.6201                 1.5133                 3.7356
 IR Inten    --     78.4541                10.9804               189.1898

                     46                     47                     48
                      A                      A                      A
 Frequencies --   1294.5681              1322.5989              1355.3620
 Red. masses --      2.7159                 1.7638                 3.0667
 Frc consts  --      2.6817                 1.8179                 3.3192
 IR Inten    --     54.6482                78.8294                67.8490

                     49                     50                     51
                      A                      A                      A
 Frequencies --   1379.9452              1416.6157              1443.3066
 Red. masses --      3.0860                 3.9797                 2.0130
 Frc consts  --      3.4624                 4.7055                 2.4707
 IR Inten    --    206.4806                23.4785                31.7252

                     52                     53                     54
                      A                      A                      A
 Frequencies --   1447.7857              1482.1267              1505.0957
 Red. masses --      1.9112                 2.8394                 1.6459
 Frc consts  --      2.3603                 3.6749                 2.1967
 IR Inten    --     30.8194                17.8404                16.4993

                     55                     56                     57
                      A                      A                      A
 Frequencies --   1516.5662              1518.5541              1533.6537
 Red. masses --      1.9891                 1.0511                 1.2104
 Frc consts  --      2.6954                 1.4282                 1.6774
 IR Inten    --     36.6982                 7.0936                98.7346

                     58                     59                     60
                      A                      A                      A
 Frequencies --   1547.9900              1623.9872              1659.5728
 Red. masses --      2.6450                 4.8525                 5.8847
 Frc consts  --      3.7343                 7.5402                 9.5492
 IR Inten    --    130.8408                29.8940                33.0565

                     61                     62                     63
                      A                      A                      A
 Frequencies --   1672.2066              1785.1718              2987.9317
 Red. masses --      6.4795                 9.0240                 1.0857
 Frc consts  --     10.6751                16.9437                 5.7106
 IR Inten    --     55.8782               228.3927                97.3956

                     64                     65                     66
                      A                      A                      A
 Frequencies --   3036.6374              3099.5015              3168.1322
 Red. masses --      1.0337                 1.1073                 1.1012
 Frc consts  --      5.6163                 6.2675                 6.5120
 IR Inten    --     42.0129                34.1851                22.5063

                     67                     68                     69
                      A                      A                      A
 Frequencies --   3221.5516              3227.9611              3255.9901
 Red. masses --      1.0899                 1.0894                 1.0953
 Frc consts  --      6.6643                 6.6880                 6.8415
 IR Inten    --      3.6601                 4.3552                 5.2154

                     70                     71                     72
                      A                      A                      A
 Frequencies --   3283.6104              3668.7395              3689.2838
 Red. masses --      1.0977                 1.0817                 1.0647
 Frc consts  --      6.9736                 8.5781                 8.5382
 IR Inten    --      0.0242               106.1614               124.5628

 - Thermochemistry -
 -------------------
 Temperature   298.150 Kelvin.  Pressure   1.00000 Atm.
 Atom     1 has atomic number  6 and mass  12.00000

 Molecular mass:   218.06914 amu.
 Principal axes and moments of inertia in atomic units:
                           1         2         3
     Eigenvalues --  2536.454854950.404797422.20227
           X            0.99962  -0.02736   0.00134
           Y            0.02736   0.99962  -0.00239
           Z           -0.00127   0.00243   1.00000
 This molecule is an asymmetric top.
 Rotational symmetry number  1.
 Warning -- assumption of classical behavior for rotation
           may cause significant error
 Rotational temperatures (Kelvin)      0.03415     0.01750     0.01167
 Rotational constants (GHZ):           0.71152     0.36456     0.24315
 Zero-point vibrational energy     523909.5 (Joules/Mol)
                                  125.21738 (Kcal/Mol)
 Warning -- explicit consideration of  21 degrees of freedom as
           vibrations may cause significant error
 Vibrational temperatures:     57.78    83.39   115.37   131.99   164.95
          (Kelvin)            246.39   255.79   303.31   343.99   356.87
                              426.87   451.77   477.93   548.72   582.22
                              643.60   693.01   720.49   751.90   783.42
                              826.99   893.24   967.36  1003.20  1018.07
                             1030.44  1134.53  1174.89  1245.86  1258.45
                             1259.87  1315.28  1371.52  1381.85  1468.84
                             1486.94  1535.51  1612.55  1641.81  1694.46
                             1708.70  1757.69  1786.05  1807.83  1845.11
                             1862.59  1902.92  1950.06  1985.43  2038.19
                             2076.60  2083.04  2132.45  2165.50  2182.00
                             2184.86  2206.59  2227.21  2336.56  2387.76
                             2405.93  2568.46  4298.97  4369.04  4459.49
                             4558.24  4635.09  4644.32  4684.64  4724.38
                             5278.50  5308.06

 Zero-point correction=                           0.199547 (Hartree/Particle)
 Thermal correction to Energy=                    0.213568
 Thermal correction to Enthalpy=                  0.214512
 Thermal correction to Gibbs Free Energy=         0.157834
 Sum of electronic and zero-point Energies=           -760.174467
 Sum of electronic and thermal Energies=              -760.160445
 Sum of electronic and thermal Enthalpies=            -760.159501
 Sum of electronic and thermal Free Energies=         -760.216180

                     E (Thermal)             CV                S
                      KCal/Mol        Cal/Mol-Kelvin    Cal/Mol-Kelvin
 Total                  134.016             52.742            119.290
 Electronic               0.000              0.000              0.000
 Translational            0.889              2.981             42.042
 Rotational               0.889              2.981             32.899
 Vibrational            132.239             46.780             44.349
 Vibration     1          0.594              1.981              5.251
 Vibration     2          0.596              1.974              4.526
 Vibration     3          0.600              1.963              3.886
 Vibration     4          0.602              1.955              3.623
 Vibration     5          0.608              1.937              3.189
 Vibration     6          0.626              1.878              2.422
 Vibration     7          0.628              1.870              2.352
 Vibration     8          0.643              1.824              2.037
 Vibration     9          0.657              1.781              1.810
 Vibration    10          0.662              1.766              1.744
 Vibration    11          0.690              1.680              1.436
 Vibration    12          0.702              1.647              1.341
 Vibration    13          0.714              1.611              1.249
 Vibration    14          0.751              1.510              1.034
 Vibration    15          0.770              1.460              0.946
 Vibration    16          0.806              1.367              0.804
 Vibration    17          0.838              1.291              0.706
 Vibration    18          0.856              1.248              0.656
 Vibration    19          0.878              1.200              0.604
 Vibration    20          0.900              1.152              0.556
 Vibration    21          0.931              1.086              0.495

 Optimization completed.
    -- Stationary point found.
 Normal termination of Gaussian 16 at Thu Dec 10 21:27:25 2020.

 ----------------------------------------------------------------------
 # B3LYP/6-311++G(d,p) empiricaldispersion=gd3bj scf=xqc pop=npa geom=c
 heck
 ----------------------------------------------------------------------

 --------------------------------------
 CID_39225102_JID_6204_Energie_neutraal
 --------------------------------------
 Structure from the checkpoint file:  "JID_6204.chk"
 Charge =  0 Multiplicity = 1

 SCF Done:  E(RB3LYP) =  -760.592564692     A.U. after   16 cycles
 Normal termination of Gaussian 16 at Thu Dec 10 21:31:24 2020.

 ----------------------------------------------------------------------
 # B3LYP/6-311++G(d,p) empiricaldispersion=gd3bj scf=xqc pop=npa geom=c
 heck
 ----------------------------------------------------------------------

 ------------------------------------
 CID_39225102_JID_6204_Energie_kation
 ------------------------------------
 Structure from the checkpoint file:  "JID_6204.chk"
 Charge =  1 Multiplicity = 2

 SCF Done:  E(UB3LYP) =  -760.311345790     A.U. after   24 cycles
 Normal termination of Gaussian 16 at Thu Dec 10 21:39:34 2020.
 Gaussian 16:  ES64L-G16RevA.03 25-Dec-2016

 ----------------------------------------------------------------------
 # B3LYP/6-311++G(d,p) empiricaldispersion=gd3bj scf=xqc pop=npa geom=c
 heck
 ----------------------------------------------------------------------

 -----------------------------------
 CID_39225102_JID_6204_Energie_anion
 -----------------------------------
 Structure from the checkpoint file:  "JID_6204.chk"
 Charge = -1 Multiplicity = 2

                         Standard orientation:
 ---------------------------------------------------------------------
 Center     Atomic      Atomic             Coordinates (Angstroms)
 Number     Number       Type             X           Y           Z
 ---------------------------------------------------------------------
      1          6           0        1.730793   -3.478406   -0.103157
      2          8           0        2.313456   -2.183871   -0.068328
      3          6           0        1.471656   -1.100356   -0.030958
      4          6           0        0.087243   -1.140978   -0.036263
      5          6           0       -0.668253    0.053696    0.004120
      6          6           0        0.013626    1.265694    0.044467
      7          6           0        1.417205    1.322544    0.036897
      8          6           0        2.153907    0.134204    0.001669
      9          8           0        3.511924    0.149146   -0.002868
     10          6           0        2.095205    2.634287    0.077367
     11          8           0        1.501967    3.699497    0.105639
     12          6           0       -2.133054   -0.005568    0.001475
     13          6           0       -3.024955    0.984096   -0.392244
     14          7           0       -4.269318    0.473590   -0.215409
     15          7           0       -4.268559   -0.787255    0.269487
     16          6           0       -2.976621   -1.079318    0.399667
     17          1           0        2.562215   -4.184222   -0.119637
     18          1           0        1.118034   -3.610759   -1.003411
     19          1           0        1.114149   -3.656661    0.786485
     20          1           0       -0.429192   -2.091931   -0.090204
     21          1           0       -0.518674    2.209067    0.099846
     22          1           0        3.802287   -0.780400   -0.026764
     23          1           0        3.200706    2.600589    0.079883
     24          1           0       -2.862434    1.975199   -0.789606
     25          1           0       -5.153153    0.920968   -0.405320
     26          1           0       -2.688092   -2.043750    0.796395
 ---------------------------------------------------------------------

 SCF Done:  E(UB3LYP) =  -760.603122550     A.U. after   33 cycles
 SCF Done:  E(UB3LYP) =  -760.603285523     a.u. after    8 cycles

 The electronic state is 2-A.
 Alpha  occ. eigenvalues --  -19.04697 -19.02390 -18.92105 -14.29023 -14.23242
 Alpha  occ. eigenvalues --  -10.12705 -10.10320 -10.09436 -10.08770 -10.08606
 Alpha  occ. eigenvalues --  -10.06856 -10.05758 -10.04834 -10.03171 -10.02220
 Alpha  occ. eigenvalues --  -10.01722  -0.96591  -0.94960  -0.93023  -0.85758
 Alpha  occ. eigenvalues --   -0.72648  -0.72029  -0.68318  -0.63626  -0.61658
 Alpha  occ. eigenvalues --   -0.58149  -0.52146  -0.50719  -0.49669  -0.46630
 Alpha  occ. eigenvalues --   -0.45055  -0.42490  -0.41665  -0.38129  -0.36974
 Alpha  occ. eigenvalues --   -0.36608  -0.34672  -0.34238  -0.33034  -0.31833
 Alpha  occ. eigenvalues --   -0.31088  -0.29850  -0.29173  -0.26619  -0.26017
 Alpha  occ. eigenvalues --   -0.24953  -0.23311  -0.23139  -0.22823  -0.21485
 Alpha  occ. eigenvalues --   -0.20861  -0.19634  -0.16430  -0.14835  -0.10968
 Alpha  occ. eigenvalues --   -0.08146  -0.07848   0.04500
 Alpha virt. eigenvalues --    0.06161   0.06722   0.08773   0.09738   0.10216
 Alpha virt. eigenvalues --    0.10483   0.10998   0.11881   0.12016   0.12760
 Alpha virt. eigenvalues --    0.13725   0.13940   0.14952   0.15396   0.16182

  Beta  occ. eigenvalues --  -19.04679 -19.02361 -18.91556 -14.29025 -14.23218
  Beta  occ. eigenvalues --  -10.12688 -10.10340 -10.09425 -10.08611 -10.08584
  Beta  occ. eigenvalues --  -10.06844 -10.05470 -10.04914 -10.02886 -10.02068
  Beta  occ. eigenvalues --  -10.01632  -0.96529  -0.94951  -0.92938  -0.84759
  Beta  occ. eigenvalues --   -0.72536  -0.71922  -0.68221  -0.63475  -0.61272
  Beta  occ. eigenvalues --   -0.57920  -0.52051  -0.50473  -0.49172  -0.46539
  Beta  occ. eigenvalues --   -0.44909  -0.42369  -0.41410  -0.37847  -0.36890
  Beta  occ. eigenvalues --   -0.36449  -0.34644  -0.34208  -0.32934  -0.31743
  Beta  occ. eigenvalues --   -0.30904  -0.29733  -0.28550  -0.26387  -0.25848
  Beta  occ. eigenvalues --   -0.24594  -0.23023  -0.22900  -0.21649  -0.21264
  Beta  occ. eigenvalues --   -0.19822  -0.19143  -0.16372  -0.14368  -0.09400
  Beta  occ. eigenvalues --   -0.07654  -0.07086
  Beta virt. eigenvalues --    0.06465   0.06730   0.08816   0.09762   0.10020
  Beta virt. eigenvalues --    0.10283   0.10838   0.11137   0.12012   0.12140
  Beta virt. eigenvalues --    0.12729   0.13745   0.13967   0.14881   0.15425

 Mulliken charges and spin densities:
               1          2
     1  C    0.071843  -0.379248
     2  O   -0.282941   0.019713
     3  C   -1.171326   0.248889
     4  C    0.117449   0.183587
     5  C    0.788797  -0.137631
     6  C   -0.819378   0.114693
     7  C    1.005087   0.013904
     8  C   -0.861995   0.133582
     9  O   -0.277793   0.014974
    10  C   -0.086527   0.213196
    11  O   -0.396194   0.185784
    12  C    0.119536  -0.136074
    13  C    0.108246  -0.094824
    14  N   -0.049859   0.007919
    15  N   -0.178071  -0.003890
    16  C   -0.111868   0.144992
    17  H   -0.174934   0.329770
    18  H    0.017361   0.139684
    19  H    0.101443   0.050937
    20  H    0.031506  -0.063782
    21  H    0.089386  -0.004018
    22  H    0.267217   0.010238
    23  H    0.103220  -0.019786
    24  H    0.165034  -0.003938
    25  H    0.295206   0.006525
    26  H    0.129558   0.024803
 Sum of Mulliken charges =  -1.00000   1.00000

 Dipole moment (field-independent basis, Debye):
    X=             -4.3562    Y=             -4.9933    Z=             -0.7524  Tot=              6.6690
 Quadrupole moment (field-independent basis, Debye-Ang):
   XX=           -123.0033   YY=           -138.0741   ZZ=           -103.0839
   XY=            -22.9760   XZ=              4.2996   YZ=             -3.8821

 Summary of Natural Population Analysis:

                                       Natural Population
                Natural  -----------------------------------------------
    Atom  No    Charge         Core      Valence    Rydberg      Total
 -----------------------------------------------------------------------
      C    1   -0.09922      0.99961     2.08977    0.00984     3.09922
      O    2   -0.29210      0.99985     3.28183    0.01041     4.29210
      C    3    0.11923      0.99936     1.86804    0.01337     2.88077
      C    4   -0.07901      0.99951     2.07177    0.00773     3.07901
      C    5   -0.06488      0.99951     2.05736    0.00801     3.06488
      C    6   -0.04627      0.99951     2.03864    0.00812     3.04627
      C    7   -0.07463      0.99947     2.06681    0.00834     3.07463
      C    8    0.19078      0.99933     1.79846    0.01143     2.80922
      O    9   -0.34036      0.99988     3.33388    0.00660     4.34036
      C   10    0.23717      0.99969     1.74225    0.02089     2.76283
      O   11   -0.24972      0.99988     3.24213    0.00771     4.24972
      C   12   -0.05830      0.99951     2.04932    0.00947     3.05830
      C   13   -0.02066      0.99955     2.01044    0.01067     3.02066
      N   14   -0.17443      0.99970     2.66286    0.01187     3.67443
      N   15   -0.15893      0.99974     2.64540    0.01379     3.65893
      C   16   -0.01518      0.99960     1.99971    0.01587     3.01518
      H   17    0.08858      0.00000     0.41046    0.00096     0.41142
      H   18    0.08420      0.00000     0.41428    0.00152     0.41580
      H   19    0.08327      0.00000     0.41549    0.00124     0.41673
      H   20    0.09221      0.00000     0.40599    0.00179     0.40779
      H   21    0.10189      0.00000     0.39599    0.00212     0.39811
      H   22    0.23710      0.00000     0.25983    0.00307     0.26290
      H   23    0.04226      0.00000     0.45552    0.00222     0.45774
      H   24    0.10641      0.00000     0.39264    0.00095     0.39359
      H   25    0.19346      0.00000     0.30522    0.00132     0.30654
      H   26    0.09710      0.00000     0.40106    0.00184     0.40290
 =======================================================================
   * Total *   -0.00000     15.99372    40.81515    0.19113    57.00000

 Normal termination of Gaussian 16 at Thu Dec 10 23:05:32 2020.
