 Gaussian 16, Revision A.03,

 -----------------------------------------------------------
 # opt freq B3LYP/6-31G(d) empiricaldispersion=gd3bj scf=xqc
 -----------------------------------------------------------

 -------------------------------
 CID_131396758_JID_5580_neutraal
 -------------------------------
 Symbolic Z-matrix:
 Charge =  0 Multiplicity = 1

 SCF Done:  E(RB3LYP) =  -664.110261151     A.U. after   15 cycles
 SCF Done:  E(RB3LYP) =  -664.113425449     A.U. after   14 cycles
 SCF Done:  E(RB3LYP) =  -664.112532698     A.U. after   14 cycles
 SCF Done:  E(RB3LYP) =  -664.114094443     A.U. after   13 cycles
 SCF Done:  E(RB3LYP) =  -664.114606866     A.U. after   13 cycles
 SCF Done:  E(RB3LYP) =  -664.114992481     A.U. after   12 cycles
 SCF Done:  E(RB3LYP) =  -664.115256963     A.U. after   13 cycles
 SCF Done:  E(RB3LYP) =  -664.115381369     A.U. after   11 cycles
 SCF Done:  E(RB3LYP) =  -664.115434284     A.U. after   12 cycles
 SCF Done:  E(RB3LYP) =  -664.115444081     A.U. after   11 cycles
 SCF Done:  E(RB3LYP) =  -664.115460392     A.U. after   12 cycles
 SCF Done:  E(RB3LYP) =  -664.115463036     A.U. after   10 cycles
 SCF Done:  E(RB3LYP) =  -664.115465769     A.U. after   10 cycles
 SCF Done:  E(RB3LYP) =  -664.115466442     A.U. after    8 cycles
 SCF Done:  E(RB3LYP) =  -664.115466619     A.U. after    8 cycles
 SCF Done:  E(RB3LYP) =  -664.115466670     A.U. after    8 cycles
 Optimization completed.
    -- Stationary point found.
 Normal termination of Gaussian 16 at Thu Dec 10 16:30:13 2020.

 --------------------------------------------------------------------
 #N Geom=AllCheck Guess=TCheck SCRF=Check GenChk RB3LYP/6-31G(d) Freq
 --------------------------------------------------------------------

 Structure from the checkpoint file:  "JID_5580.chk"
 -------------------------------
 CID_131396758_JID_5580_neutraal
 -------------------------------
 Charge =  0 Multiplicity = 1

 SCF Done:  E(RB3LYP) =  -664.115466670     A.U. after    1 cycles

  Exact polarizability: 173.133  -3.650 168.445  -2.365  -2.073  58.220
 Approx polarizability: 285.640  -0.217 293.499  -8.262  -8.789  92.395

                      1                      2                      3
                      A                      A                      A
 Frequencies --     34.2202                64.1546               134.3823
 Red. masses --      3.9270                 5.9829                 3.8449
 Frc consts  --      0.0027                 0.0145                 0.0409
 IR Inten    --      3.0140                 2.3061                 0.6103

                      4                      5                      6
                      A                      A                      A
 Frequencies --    145.1800               160.6813               163.2134
 Red. masses --      3.4160                 1.4051                 4.5769
 Frc consts  --      0.0424                 0.0214                 0.0718
 IR Inten    --      2.6121                 0.7938                 4.6470

                      7                      8                      9
                      A                      A                      A
 Frequencies --    194.4957               230.0223               271.1146
 Red. masses --      2.7053                 1.2525                 5.2927
 Frc consts  --      0.0603                 0.0390                 0.2292
 IR Inten    --      2.8692                 2.8635                 2.2530

                     10                     11                     12
                      A                      A                      A
 Frequencies --    292.4394               312.4073               345.2740
 Red. masses --      3.3751                 4.5249                 4.7958
 Frc consts  --      0.1701                 0.2602                 0.3369
 IR Inten    --      2.5292                 3.6480                 4.0952

                     13                     14                     15
                      A                      A                      A
 Frequencies --    377.5915               414.6859               466.7840
 Red. masses --      8.0211                 6.1168                 5.6364
 Frc consts  --      0.6738                 0.6197                 0.7236
 IR Inten    --      0.8668                 1.5369                 5.2150

                     16                     17                     18
                      A                      A                      A
 Frequencies --    495.9325               501.9520               562.7691
 Red. masses --      4.2459                 1.3466                 4.0193
 Frc consts  --      0.6153                 0.1999                 0.7500
 IR Inten    --      8.5433                75.0680                 7.2258

                     19                     20                     21
                      A                      A                      A
 Frequencies --    575.9973               594.8137               612.6111
 Red. masses --      2.8945                 6.4108                 6.3594
 Frc consts  --      0.5658                 1.3364                 1.4062
 IR Inten    --     14.4168                 1.5285                 4.2155

                     22                     23                     24
                      A                      A                      A
 Frequencies --    628.7976               637.2885               687.3760
 Red. masses --      4.8740                 4.6513                 5.1555
 Frc consts  --      1.1354                 1.1130                 1.4352
 IR Inten    --     11.2407                 9.6581                 1.7790

                     25                     26                     27
                      A                      A                      A
 Frequencies --    698.4420               780.7281               782.3896
 Red. masses --      3.7684                 6.3237                 5.4565
 Frc consts  --      1.0831                 2.2710                 1.9680
 IR Inten    --      2.9758                14.2819                 4.2175

                     28                     29                     30
                      A                      A                      A
 Frequencies --    906.2265               950.0458               951.1077
 Red. masses --      1.4388                 1.4484                 3.1658
 Frc consts  --      0.6962                 0.7703                 1.6873
 IR Inten    --     10.7196                 0.6224                31.6956

                     31                     32                     33
                      A                      A                      A
 Frequencies --    994.1330              1035.8785              1050.7187
 Red. masses --      2.5085                 1.8237                 1.7771
 Frc consts  --      1.4607                 1.1530                 1.1560
 IR Inten    --      9.3499                13.5617                 4.9548

                     34                     35                     36
                      A                      A                      A
 Frequencies --   1060.0942              1070.3845              1099.2392
 Red. masses --      6.1939                 1.5935                 2.7451
 Frc consts  --      4.1011                 1.0757                 1.9543
 IR Inten    --      4.1191                 6.6899                 9.8965

                     37                     38                     39
                      A                      A                      A
 Frequencies --   1189.5518              1234.3183              1271.0997
 Red. masses --      2.7066                 3.7083                 1.6783
 Frc consts  --      2.2565                 3.3287                 1.5976
 IR Inten    --     13.9706                65.4409                31.5364

                     40                     41                     42
                      A                      A                      A
 Frequencies --   1295.7936              1351.4707              1359.0167
 Red. masses --      2.4923                 4.3590                 4.7472
 Frc consts  --      2.4656                 4.6908                 5.1658
 IR Inten    --      4.0512                68.7951                 7.2346

                     43                     44                     45
                      A                      A                      A
 Frequencies --   1369.9215              1418.4411              1443.0713
 Red. masses --      3.1062                 1.3221                 1.6494
 Frc consts  --      3.4346                 1.5672                 2.0238
 IR Inten    --      5.4661                 8.4701                46.9504

                     46                     47                     48
                      A                      A                      A
 Frequencies --   1448.7762              1477.6089              1489.0676
 Red. masses --      1.6632                 2.9535                 1.0716
 Frc consts  --      2.0568                 3.7993                 1.3999
 IR Inten    --     34.9924               188.4793                 8.2103

                     49                     50                     51
                      A                      A                      A
 Frequencies --   1493.8171              1507.7737              1514.6208
 Red. masses --      1.0569                 1.1176                 1.6436
 Frc consts  --      1.3896                 1.4970                 2.2215
 IR Inten    --     24.8453                12.6780                 7.9802

                     52                     53                     54
                      A                      A                      A
 Frequencies --   1522.9117              1568.3616              1593.3195
 Red. masses --      2.0985                 3.9837                 7.3837
 Frc consts  --      2.8676                 5.7734                11.0441
 IR Inten    --     54.3403                28.0328                32.1237

                     55                     56                     57
                      A                      A                      A
 Frequencies --   1653.0482              1745.9119              2343.8994
 Red. masses --      5.8911                10.0186                12.6743
 Frc consts  --      9.4845                17.9929                41.0254
 IR Inten    --     38.2954               201.6889                33.6001

                     58                     59                     60
                      A                      A                      A
 Frequencies --   3061.4896              3074.5242              3135.0693
 Red. masses --      1.0396                 1.0353                 1.1003
 Frc consts  --      5.7412                 5.7659                 6.3716
 IR Inten    --     24.9248                 1.4029                12.2110

                     61                     62                     63
                      A                      A                      A
 Frequencies --   3145.1112              3150.1130              3166.6637
 Red. masses --      1.0998                 1.0993                 1.1044
 Frc consts  --      6.4099                 6.4273                 6.5252
 IR Inten    --      5.7300                 4.5047                12.4101

                     64                     65                     66
                      A                      A                      A
 Frequencies --   3169.3590              3199.7891              3647.8204
 Red. masses --      1.0908                 1.0915                 1.0801
 Frc consts  --      6.4556                 6.5847                 8.4681
 IR Inten    --     20.4014                 7.5872                72.5852

 - Thermochemistry -
 -------------------
 Temperature   298.150 Kelvin.  Pressure   1.00000 Atm.
 Atom     1 has atomic number  6 and mass  12.00000

 Molecular mass:   199.07456 amu.
 Principal axes and moments of inertia in atomic units:
                           1         2         3
     Eigenvalues --  2179.131102943.219485051.05656
           X            0.99975  -0.02211   0.00140
           Y            0.02210   0.99972   0.00803
           Z           -0.00158  -0.00799   0.99997
 This molecule is an asymmetric top.
 Rotational symmetry number  1.
 Warning -- assumption of classical behavior for rotation
           may cause significant error
 Rotational temperatures (Kelvin)      0.03975     0.02943     0.01715
 Rotational constants (GHZ):           0.82819     0.61319     0.35730
 Zero-point vibrational energy     480452.1 (Joules/Mol)
                                  114.83080 (Kcal/Mol)
 Warning -- explicit consideration of  21 degrees of freedom as
           vibrations may cause significant error
 Vibrational temperatures:     49.24    92.30   193.35   208.88   231.18
          (Kelvin)            234.83   279.84   330.95   390.07   420.76
                              449.48   496.77   543.27   596.64   671.60
                              713.54   722.20   809.70   828.73   855.80
                              881.41   904.70   916.92   988.98  1004.90
                             1123.29  1125.68  1303.86  1366.90  1368.43
                             1430.34  1490.40  1511.75  1525.24  1540.04
                             1581.56  1711.50  1775.91  1828.83  1864.36
                             1944.46  1955.32  1971.01  2040.82  2076.26
                             2084.47  2125.95  2142.44  2149.27  2169.35
                             2179.20  2191.13  2256.52  2292.43  2378.37
                             2511.98  3372.35  4404.80  4423.55  4510.67
                             4525.11  4532.31  4556.12  4560.00  4603.78
                             5248.40

 Zero-point correction=                           0.182995 (Hartree/Particle)
 Thermal correction to Energy=                    0.195961
 Thermal correction to Enthalpy=                  0.196906
 Thermal correction to Gibbs Free Energy=         0.143313
 Sum of electronic and zero-point Energies=           -663.932472
 Sum of electronic and thermal Energies=              -663.919505
 Sum of electronic and thermal Enthalpies=            -663.918561
 Sum of electronic and thermal Free Energies=         -663.972154

                     E (Thermal)             CV                S
                      KCal/Mol        Cal/Mol-Kelvin    Cal/Mol-Kelvin
 Total                  122.968             49.118            112.795
 Electronic               0.000              0.000              0.000
 Translational            0.889              2.981             41.770
 Rotational               0.889              2.981             31.849
 Vibrational            121.190             43.156             39.176
 Vibration     1          0.594              1.983              5.568
 Vibration     2          0.597              1.971              4.325
 Vibration     3          0.613              1.919              2.882
 Vibration     4          0.617              1.908              2.734
 Vibration     5          0.622              1.891              2.542
 Vibration     6          0.623              1.888              2.512
 Vibration     7          0.635              1.848              2.185
 Vibration     8          0.652              1.795              1.879
 Vibration     9          0.675              1.726              1.589
 Vibration    10          0.688              1.688              1.460
 Vibration    11          0.701              1.650              1.350
 Vibration    12          0.724              1.585              1.188
 Vibration    13          0.748              1.518              1.049
 Vibration    14          0.778              1.438              0.910
 Vibration    15          0.824              1.324              0.747
 Vibration    16          0.851              1.259              0.668
 Vibration    17          0.857              1.246              0.653
 Vibration    18          0.919              1.112              0.518
 Vibration    19          0.932              1.083              0.493
 Vibration    20          0.953              1.043              0.459
 Vibration    21          0.972              1.005              0.428

 Optimization completed.
    -- Stationary point found.
 Normal termination of Gaussian 16 at Thu Dec 10 16:37:56 2020.

 ----------------------------------------------------------------------
 # B3LYP/6-311++G(d,p) empiricaldispersion=gd3bj scf=xqc pop=npa geom=c
 heck
 ----------------------------------------------------------------------

 ---------------------------------------
 CID_131396758_JID_5580_Energie_neutraal
 ---------------------------------------
 Structure from the checkpoint file:  "JID_5580.chk"
 Charge =  0 Multiplicity = 1

 SCF Done:  E(RB3LYP) =  -664.290946194     A.U. after   15 cycles
 Normal termination of Gaussian 16 at Thu Dec 10 16:41:06 2020.

 ----------------------------------------------------------------------
 # B3LYP/6-311++G(d,p) empiricaldispersion=gd3bj scf=xqc pop=npa geom=c
 heck
 ----------------------------------------------------------------------

 -------------------------------------
 CID_131396758_JID_5580_Energie_kation
 -------------------------------------
 Structure from the checkpoint file:  "JID_5580.chk"
 Charge =  1 Multiplicity = 2

 SCF Done:  E(UB3LYP) =  -663.974837009     A.U. after   29 cycles
 Normal termination of Gaussian 16 at Thu Dec 10 16:47:40 2020.
 Gaussian 16:  ES64L-G16RevA.03 25-Dec-2016

 ----------------------------------------------------------------------
 # B3LYP/6-311++G(d,p) empiricaldispersion=gd3bj scf=xqc pop=npa geom=c
 heck
 ----------------------------------------------------------------------

 ------------------------------------
 CID_131396758_JID_5580_Energie_anion
 ------------------------------------
 Structure from the checkpoint file:  "JID_5580.chk"
 Charge = -1 Multiplicity = 2

                         Standard orientation:
 ---------------------------------------------------------------------
 Center     Atomic      Atomic             Coordinates (Angstroms)
 Number     Number       Type             X           Y           Z
 ---------------------------------------------------------------------
      1          6           0        2.983802   -1.705241   -0.082337
      2          6           0        1.557359   -1.274551   -0.042586
      3          6           0        0.992000    0.007640   -0.027673
      4          6           0       -0.443465   -0.176370    0.008279
      5          6           0       -0.673154   -1.581727    0.037016
      6          7           0        0.559487   -2.203664    0.005441
      7          6           0       -1.945207   -2.138860    0.079773
      8          7           0       -3.037063   -1.373590    0.084221
      9          6           0       -2.865311   -0.046928    0.023073
     10          6           0       -1.623741    0.611125   -0.026971
     11          6           0       -1.671772    2.030529   -0.172878
     12          7           0       -1.792724    3.178947   -0.316164
     13          6           0        1.865815    1.199699    0.031702
     14          8           0        3.057193    1.089607   -0.245815
     15          6           0        1.317121    2.530587    0.492012
     16          1           0        3.434120   -1.457406   -1.047789
     17          1           0        3.069164   -2.784095    0.088575
     18          1           0        3.569406   -1.168909    0.667988
     19          1           0        0.709607   -3.201942    0.024396
     20          1           0       -2.092509   -3.217523    0.108933
     21          1           0       -3.771067    0.553046    0.001741
     22          1           0        0.799819    3.038765   -0.327314
     23          1           0        0.597737    2.423264    1.308683
     24          1           0        2.157590    3.150681    0.810360
 ---------------------------------------------------------------------

 SCF Done:  E(UB3LYP) =  -664.314236640     A.U. after   24 cycles

 The electronic state is 2-A.
 Alpha  occ. eigenvalues --  -18.97199 -14.24068 -14.16168 -14.15542 -10.13035
 Alpha  occ. eigenvalues --  -10.08151 -10.07610 -10.06322 -10.05988 -10.05976
 Alpha  occ. eigenvalues --  -10.05713 -10.05135 -10.04773 -10.04337 -10.04317
 Alpha  occ. eigenvalues --   -0.90768  -0.86847  -0.79514  -0.75930  -0.68523
 Alpha  occ. eigenvalues --   -0.66058  -0.63317  -0.61575  -0.58813  -0.52075
 Alpha  occ. eigenvalues --   -0.49634  -0.48368  -0.43954  -0.39793  -0.37947
 Alpha  occ. eigenvalues --   -0.35896  -0.33860  -0.33566  -0.33154  -0.31026
 Alpha  occ. eigenvalues --   -0.30536  -0.30410  -0.28960  -0.28773  -0.26659
 Alpha  occ. eigenvalues --   -0.25236  -0.24728  -0.24498  -0.23197  -0.22261
 Alpha  occ. eigenvalues --   -0.21564  -0.18937  -0.15825  -0.12738  -0.12053
 Alpha  occ. eigenvalues --   -0.11662  -0.09837   0.03572
 Alpha virt. eigenvalues --    0.07266   0.08394   0.09347   0.10156   0.11195
 Alpha virt. eigenvalues --    0.11651   0.11908   0.12473   0.12964   0.13660
 Alpha virt. eigenvalues --    0.14331   0.15290   0.15718   0.16221   0.16998

  Beta  occ. eigenvalues --  -18.97206 -14.24026 -14.16169 -14.15290 -10.13004
  Beta  occ. eigenvalues --  -10.07693 -10.07641 -10.06361 -10.05987 -10.05871
  Beta  occ. eigenvalues --  -10.05587 -10.04870 -10.04424 -10.04320 -10.04284
  Beta  occ. eigenvalues --   -0.90768  -0.86569  -0.79153  -0.75556  -0.68234
  Beta  occ. eigenvalues --   -0.65617  -0.62926  -0.61430  -0.58572  -0.51676
  Beta  occ. eigenvalues --   -0.49405  -0.47975  -0.43642  -0.39678  -0.37631
  Beta  occ. eigenvalues --   -0.35658  -0.33693  -0.32989  -0.32923  -0.30851
  Beta  occ. eigenvalues --   -0.30470  -0.30283  -0.28595  -0.28401  -0.26617
  Beta  occ. eigenvalues --   -0.25071  -0.24327  -0.23770  -0.23117  -0.21878
  Beta  occ. eigenvalues --   -0.20356  -0.18788  -0.14985  -0.12718  -0.11985
  Beta  occ. eigenvalues --   -0.10132  -0.08537
  Beta virt. eigenvalues --    0.07239   0.09218   0.09330   0.09799   0.10161
  Beta virt. eigenvalues --    0.11192   0.11657   0.11967   0.12893   0.13060
  Beta virt. eigenvalues --    0.13665   0.14438   0.15281   0.15853   0.16338

 Mulliken charges and spin densities:
               1          2
     1  C   -0.524741  -0.028507
     2  C   -0.531230   0.296858
     3  C    0.603713  -0.071952
     4  C    0.818899   0.081794
     5  C   -0.155280  -0.069755
     6  N   -0.061561   0.007773
     7  C   -0.354239   0.380049
     8  N   -0.080480  -0.016373
     9  C   -0.742961   0.098765
    10  C    1.674372   0.231467
    11  C   -1.579881  -0.072759
    12  N   -0.285015   0.133312
    13  C   -0.267430   0.025967
    14  O   -0.316268  -0.003334
    15  C   -0.635893   0.000662
    16  H    0.171670   0.026969
    17  H    0.066245   0.000638
    18  H    0.175385   0.014428
    19  H    0.263767  -0.000455
    20  H    0.109755  -0.030976
    21  H    0.176976  -0.005080
    22  H    0.193473  -0.000747
    23  H    0.137953   0.000688
    24  H    0.142772   0.000567
 Sum of Mulliken charges =  -1.00000   1.00000

 Dipole moment (field-independent basis, Debye):
    X=              4.3453    Y=             -5.1956    Z=              1.0505  Tot=              6.8542
 Quadrupole moment (field-independent basis, Debye-Ang):
   XX=           -133.9792   YY=           -112.1740   ZZ=            -94.0196
   XY=             -4.2485   XZ=              1.5716   YZ=              3.1960

 Summary of Natural Population Analysis:

                                       Natural Population
                Natural  -----------------------------------------------
    Atom  No    Charge         Core      Valence    Rydberg      Total
 -----------------------------------------------------------------------
      C    1   -0.30278      0.99959     2.29870    0.00449     3.30278
      C    2    0.22549      0.99956     1.76448    0.01047     2.77451
      C    3   -0.14026      0.99936     2.13199    0.00892     3.14026
      C    4    0.01823      0.99947     1.97513    0.00716     2.98177
      C    5    0.03866      0.99949     1.95222    0.00964     2.96134
      N    6   -0.26209      0.99962     2.75541    0.00706     3.76209
      C    7    0.10133      0.99955     1.88460    0.01452     2.89867
      N    8   -0.25153      0.99972     2.73894    0.01287     3.75153
      C    9    0.06074      0.99958     1.92620    0.01348     2.93926
      C   10   -0.08302      0.99939     2.07234    0.01128     3.08302
      C   11    0.14946      0.99965     1.83192    0.01897     2.85054
      N   12   -0.17755      0.99979     2.66674    0.01102     3.67755
      C   13    0.27810      0.99963     1.70276    0.01951     2.72190
      O   14   -0.32243      0.99988     3.31571    0.00684     4.32243
      C   15   -0.33209      0.99963     2.32752    0.00494     3.33209
      H   16    0.11555      0.00000     0.38315    0.00130     0.38445
      H   17    0.08699      0.00000     0.41157    0.00144     0.41301
      H   18    0.11680      0.00000     0.38199    0.00121     0.38320
      H   19    0.19147      0.00000     0.30660    0.00193     0.30853
      H   20    0.07376      0.00000     0.42470    0.00155     0.42624
      H   21    0.08371      0.00000     0.41504    0.00125     0.41629
      H   22    0.12118      0.00000     0.37770    0.00112     0.37882
      H   23    0.10852      0.00000     0.39056    0.00092     0.39148
      H   24    0.10184      0.00000     0.39682    0.00134     0.39816
 =======================================================================
   * Total *    0.00007     14.99391    36.83280    0.17323    51.99993

 Normal termination of Gaussian 16 at Thu Dec 10 16:54:05 2020.
