 Gaussian 16, Revision A.03,

 -----------------------------------------------------------
 # opt freq B3LYP/6-31G(d) empiricaldispersion=gd3bj scf=xqc
 -----------------------------------------------------------

 -------------------------------
 CID_128942163_JID_7831_neutraal
 -------------------------------
 Symbolic Z-matrix:
 Charge =  0 Multiplicity = 1

 SCF Done:  E(RB3LYP) =  -766.179483314     A.U. after   16 cycles
 SCF Done:  E(RB3LYP) =  -766.188497873     A.U. after   13 cycles
 SCF Done:  E(RB3LYP) =  -766.189183422     A.U. after   12 cycles
 SCF Done:  E(RB3LYP) =  -766.189810232     A.U. after   12 cycles
 SCF Done:  E(RB3LYP) =  -766.189866093     A.U. after   11 cycles
 SCF Done:  E(RB3LYP) =  -766.189928150     A.U. after   11 cycles
 SCF Done:  E(RB3LYP) =  -766.189959640     A.U. after   10 cycles
 SCF Done:  E(RB3LYP) =  -766.189981323     A.U. after   11 cycles
 SCF Done:  E(RB3LYP) =  -766.189989985     A.U. after    9 cycles
 SCF Done:  E(RB3LYP) =  -766.189993470     A.U. after    8 cycles
 SCF Done:  E(RB3LYP) =  -766.189994943     A.U. after    9 cycles
 SCF Done:  E(RB3LYP) =  -766.189995271     A.U. after    8 cycles
 SCF Done:  E(RB3LYP) =  -766.189995392     A.U. after    8 cycles
 SCF Done:  E(RB3LYP) =  -766.189995473     A.U. after    8 cycles
 SCF Done:  E(RB3LYP) =  -766.189995507     A.U. after    8 cycles
 Optimization completed.
    -- Stationary point found.
 Normal termination of Gaussian 16 at Fri Dec 11 13:17:58 2020.

 --------------------------------------------------------------------
 #N Geom=AllCheck Guess=TCheck SCRF=Check GenChk RB3LYP/6-31G(d) Freq
 --------------------------------------------------------------------

 Structure from the checkpoint file:  "JID_7831.chk"
 -------------------------------
 CID_128942163_JID_7831_neutraal
 -------------------------------
 Charge =  0 Multiplicity = 1

 SCF Done:  E(RB3LYP) =  -766.189995507     A.U. after    1 cycles

  Exact polarizability: 196.620  -2.294 145.769   7.537   4.040 105.672
 Approx polarizability: 241.233   0.840 242.135  16.827  13.088 164.587

                      1                      2                      3
                      A                      A                      A
 Frequencies --     15.3525                38.9008                56.4166
 Red. masses --      4.9810                 4.4960                 2.7306
 Frc consts  --      0.0007                 0.0040                 0.0051
 IR Inten    --      1.6546                 0.1476                 0.5261

                      4                      5                      6
                      A                      A                      A
 Frequencies --     66.5165                96.3106               127.7046
 Red. masses --      4.4631                 3.4976                 2.8467
 Frc consts  --      0.0116                 0.0191                 0.0274
 IR Inten    --      1.0531                 0.7627                 1.9241

                      7                      8                      9
                      A                      A                      A
 Frequencies --    132.6245               145.8132               198.0166
 Red. masses --      2.4094                 4.7734                 4.1975
 Frc consts  --      0.0250                 0.0598                 0.0970
 IR Inten    --      1.0266                 6.4078                 0.0928

                     10                     11                     12
                      A                      A                      A
 Frequencies --    249.9729               275.6498               299.6884
 Red. masses --      3.0670                 2.6677                 2.9076
 Frc consts  --      0.1129                 0.1194                 0.1539
 IR Inten    --      0.6073                 1.0908                 0.1434

                     13                     14                     15
                      A                      A                      A
 Frequencies --    319.0221               346.5182               386.4464
 Red. masses --      1.9432                 4.8963                 5.8147
 Frc consts  --      0.1165                 0.3464                 0.5116
 IR Inten    --      0.2163                 1.7341                 8.8479

                     16                     17                     18
                      A                      A                      A
 Frequencies --    417.3477               435.3474               446.0555
 Red. masses --      1.9168                 4.0708                 4.2310
 Frc consts  --      0.1967                 0.4546                 0.4960
 IR Inten    --      0.4944                 2.9340                 0.9782

                     19                     20                     21
                      A                      A                      A
 Frequencies --    508.0463               545.2986               596.0030
 Red. masses --      2.4207                 2.5599                 2.2993
 Frc consts  --      0.3681                 0.4485                 0.4812
 IR Inten    --      1.9878                13.1505                25.6863

                     22                     23                     24
                      A                      A                      A
 Frequencies --    638.4111               642.4320               660.0876
 Red. masses --      3.5959                 2.2191                 3.0747
 Frc consts  --      0.8635                 0.5396                 0.7893
 IR Inten    --      2.8403                22.0431                39.6347

                     25                     26                     27
                      A                      A                      A
 Frequencies --    680.0905               706.7836               737.5500
 Red. masses --      4.1601                 3.7502                 3.8818
 Frc consts  --      1.1337                 1.1038                 1.2441
 IR Inten    --     48.6121                 7.3417                 2.4549

                     28                     29                     30
                      A                      A                      A
 Frequencies --    773.3172               784.4125               803.1329
 Red. masses --      1.5478                 7.0850                 1.2695
 Frc consts  --      0.5453                 2.5685                 0.4825
 IR Inten    --      3.3550                 8.5237                 1.6129

                     31                     32                     33
                      A                      A                      A
 Frequencies --    840.0833               860.1405               893.2981
 Red. masses --      1.6757                 2.1994                 1.8780
 Frc consts  --      0.6968                 0.9587                 0.8829
 IR Inten    --      1.1121                 2.4034                13.9035

                     34                     35                     36
                      A                      A                      A
 Frequencies --    912.7143               924.9028               931.9545
 Red. masses --      1.7654                 1.8635                 2.6576
 Frc consts  --      0.8665                 0.9392                 1.3600
 IR Inten    --      9.2536                 6.5634                16.5704

                     37                     38                     39
                      A                      A                      A
 Frequencies --    942.6210               962.1393               973.9544
 Red. masses --      2.2855                 4.3234                 1.8126
 Frc consts  --      1.1965                 2.3581                 1.0131
 IR Inten    --      2.7367                13.9535                 9.5963

                     40                     41                     42
                      A                      A                      A
 Frequencies --    976.6949               981.6484              1028.1318
 Red. masses --      2.3914                 1.7417                 2.8355
 Frc consts  --      1.3441                 0.9889                 1.7660
 IR Inten    --      0.9963                 0.2600                26.2785

                     43                     44                     45
                      A                      A                      A
 Frequencies --   1069.6872              1078.0830              1113.5179
 Red. masses --      2.5906                 2.2629                 1.9765
 Frc consts  --      1.7465                 1.5496                 1.4439
 IR Inten    --      0.9832                 1.4301                 2.5567

                     46                     47                     48
                      A                      A                      A
 Frequencies --   1120.7719              1125.8818              1169.5574
 Red. masses --      2.4957                 2.5904                 1.2150
 Frc consts  --      1.8471                 1.9346                 0.9792
 IR Inten    --      3.7267                 3.8383                 2.4424

                     49                     50                     51
                      A                      A                      A
 Frequencies --   1186.6559              1191.3466              1214.9079
 Red. masses --      1.5358                 2.5477                 1.3436
 Frc consts  --      1.2742                 2.1304                 1.1684
 IR Inten    --      2.8376                 1.3276                 1.7522

                     52                     53                     54
                      A                      A                      A
 Frequencies --   1222.8811              1246.4931              1263.5652
 Red. masses --      3.2039                 1.4292                 2.1037
 Frc consts  --      2.8229                 1.3083                 1.9790
 IR Inten    --     54.6894                 5.3321                 6.2034

                     55                     56                     57
                      A                      A                      A
 Frequencies --   1270.4862              1273.9527              1278.1290
 Red. masses --      1.3250                 1.2753                 1.2503
 Frc consts  --      1.2601                 1.2195                 1.2034
 IR Inten    --      0.0407                 3.3565                 8.4356

                     58                     59                     60
                      A                      A                      A
 Frequencies --   1282.8342              1294.3872              1303.5468
 Red. masses --      1.4172                 1.5027                 1.3522
 Frc consts  --      1.3741                 1.4833                 1.3537
 IR Inten    --     22.4458                15.9106                 0.4856

                     61                     62                     63
                      A                      A                      A
 Frequencies --   1322.8497              1343.3036              1374.8499
 Red. masses --      1.4175                 1.5068                 1.3704
 Frc consts  --      1.4615                 1.6019                 1.5262
 IR Inten    --     43.6418                50.3959                 8.7064

                     64                     65                     66
                      A                      A                      A
 Frequencies --   1383.9480              1387.6369              1399.4969
 Red. masses --      1.4288                 1.4284                 1.5409
 Frc consts  --      1.6124                 1.6205                 1.7781
 IR Inten    --      1.7412                 6.9889                10.4587

                     67                     68                     69
                      A                      A                      A
 Frequencies --   1405.0498              1428.4558              1490.3185
 Red. masses --      2.0544                 1.7048                 2.2662
 Frc consts  --      2.3895                 2.0495                 2.9656
 IR Inten    --     65.0098                 4.6537                64.6461

                     70                     71                     72
                      A                      A                      A
 Frequencies --   1501.9279              1504.1267              1504.3464
 Red. masses --      2.6715                 1.2011                 1.2907
 Frc consts  --      3.5506                 1.6010                 1.7210
 IR Inten    --     25.2496                 9.7763                 7.0166

                     73                     74                     75
                      A                      A                      A
 Frequencies --   1509.2884              1511.6154              1515.7897
 Red. masses --      1.1215                 1.1624                 1.0958
 Frc consts  --      1.5052                 1.5649                 1.4834
 IR Inten    --      6.9754                15.6149                 1.6490

                     76                     77                     78
                      A                      A                      A
 Frequencies --   1519.9647              1528.3428              1530.7293
 Red. masses --      1.1701                 1.1071                 2.8173
 Frc consts  --      1.5927                 1.5236                 3.8893
 IR Inten    --     28.5460                 0.7696                62.6631

                     79                     80                     81
                      A                      A                      A
 Frequencies --   1542.3019              1677.7711              1754.1508
 Red. masses --      1.1468                 8.4742                 7.6523
 Frc consts  --      1.6072                14.0545                13.8733
 IR Inten    --      3.3088                28.1308               350.8604

                     82                     83                     84
                      A                      A                      A
 Frequencies --   3035.4971              3037.1829              3047.7278
 Red. masses --      1.0679                 1.0691                 1.0641
 Frc consts  --      5.7977                 5.8104                 5.8237
 IR Inten    --     20.2185                20.8853                36.2196

                     85                     86                     87
                      A                      A                      A
 Frequencies --   3049.3728              3052.0546              3056.4552
 Red. masses --      1.0626                 1.0686                 1.0690
 Frc consts  --      5.8217                 5.8645                 5.8838
 IR Inten    --     24.4549                15.0137                13.5103

                     88                     89                     90
                      A                      A                      A
 Frequencies --   3057.1372              3072.7538              3085.9377
 Red. masses --      1.0662                 1.0599                 1.0941
 Frc consts  --      5.8709                 5.8964                 6.1386
 IR Inten    --     49.1638                51.3400                22.6474

                     91                     92                     93
                      A                      A                      A
 Frequencies --   3092.6311              3094.6549              3099.6936
 Red. masses --      1.0852                 1.0951                 1.1030
 Frc consts  --      6.1154                 6.1793                 6.2439
 IR Inten    --     15.4424                49.1926                42.9062

                     94                     95                     96
                      A                      A                      A
 Frequencies --   3111.1325              3111.9903              3115.9854
 Red. masses --      1.0952                 1.1017                 1.1034
 Frc consts  --      6.2454                 6.2862                 6.3122
 IR Inten    --     14.8574                15.0158                27.8022

                     97                     98                     99
                      A                      A                      A
 Frequencies --   3130.1135              3147.1175              3591.5830
 Red. masses --      1.1061                 1.0949                 1.0754
 Frc consts  --      6.3851                 6.3895                 8.1735
 IR Inten    --     74.4200                 8.3847                27.2497

 - Thermochemistry -
 -------------------
 Temperature   298.150 Kelvin.  Pressure   1.00000 Atm.
 Atom     1 has atomic number  6 and mass  12.00000

 Molecular mass:   234.13683 amu.
 Principal axes and moments of inertia in atomic units:
                           1         2         3
     Eigenvalues --  1628.727807930.986509055.39135
           X            0.99999   0.00420   0.00065
           Y           -0.00420   0.99997  -0.00572
           Z           -0.00067   0.00572   0.99998
 This molecule is an asymmetric top.
 Rotational symmetry number  1.
 Warning -- assumption of classical behavior for rotation
           may cause significant error
 Rotational temperatures (Kelvin)      0.05318     0.01092     0.00956
 Rotational constants (GHZ):           1.10807     0.22756     0.19930
 Zero-point vibrational energy     790668.9 (Joules/Mol)
                                  188.97441 (Kcal/Mol)
 Warning -- explicit consideration of  21 degrees of freedom as
           vibrations may cause significant error
 Vibrational temperatures:     22.09    55.97    81.17    95.70   138.57
          (Kelvin)            183.74   190.82   209.79   284.90   359.66
                              396.60   431.18   459.00   498.56   556.01
                              600.47   626.37   641.77   730.97   784.56
                              857.52   918.53   924.32   949.72   978.50
                             1016.90  1061.17  1112.63  1128.59  1155.53
                             1208.69  1237.55  1285.26  1313.19  1330.73
                             1340.87  1356.22  1384.30  1401.30  1405.25
                             1412.37  1479.25  1539.04  1551.12  1602.10
                             1612.54  1619.89  1682.73  1707.33  1714.08
                             1747.98  1759.45  1793.43  1817.99  1827.95
                             1832.93  1838.94  1845.71  1862.33  1875.51
                             1903.29  1932.71  1978.10  1991.19  1996.50
                             2013.56  2021.55  2055.23  2144.24  2160.94
                             2164.10  2164.42  2171.53  2174.88  2180.88
                             2186.89  2198.94  2202.38  2219.03  2413.94
                             2523.83  4367.40  4369.83  4385.00  4387.37
                             4391.23  4397.56  4398.54  4421.01  4439.98
                             4449.61  4452.52  4459.77  4476.23  4477.46
                             4483.21  4503.54  4528.00  5167.49

 Zero-point correction=                           0.301150 (Hartree/Particle)
 Thermal correction to Energy=                    0.316527
 Thermal correction to Enthalpy=                  0.317472
 Thermal correction to Gibbs Free Energy=         0.256365
 Sum of electronic and zero-point Energies=           -765.888846
 Sum of electronic and thermal Energies=              -765.873468
 Sum of electronic and thermal Enthalpies=            -765.872524
 Sum of electronic and thermal Free Energies=         -765.933630

                     E (Thermal)             CV                S
                      KCal/Mol        Cal/Mol-Kelvin    Cal/Mol-Kelvin
 Total                  198.624             59.136            128.609
 Electronic               0.000              0.000              0.000
 Translational            0.889              2.981             42.254
 Rotational               0.889              2.981             33.125
 Vibrational            196.846             53.175             53.230
 Vibration     1          0.593              1.986              7.159
 Vibration     2          0.594              1.981              5.314
 Vibration     3          0.596              1.975              4.579
 Vibration     4          0.598              1.970              4.254
 Vibration     5          0.603              1.952              3.528
 Vibration     6          0.611              1.925              2.980
 Vibration     7          0.613              1.921              2.908
 Vibration     8          0.617              1.907              2.726
 Vibration     9          0.637              1.843              2.151
 Vibration    10          0.663              1.763              1.731
 Vibration    11          0.677              1.718              1.561
 Vibration    12          0.692              1.674              1.419
 Vibration    13          0.705              1.637              1.315
 Vibration    14          0.725              1.582              1.182
 Vibration    15          0.755              1.499              1.014
 Vibration    16          0.780              1.433              0.901
 Vibration    17          0.796              1.393              0.841
 Vibration    18          0.805              1.370              0.808
 Vibration    19          0.863              1.232              0.638
 Vibration    20          0.900              1.150              0.554
 Vibration    21          0.954              1.040              0.457

 Optimization completed.
    -- Stationary point found.
 Normal termination of Gaussian 16 at Fri Dec 11 13:29:39 2020.

 ----------------------------------------------------------------------
 # B3LYP/6-311++G(d,p) empiricaldispersion=gd3bj scf=xqc pop=npa geom=c
 heck
 ----------------------------------------------------------------------

 ---------------------------------------
 CID_128942163_JID_7831_Energie_neutraal
 ---------------------------------------
 Structure from the checkpoint file:  "JID_7831.chk"
 Charge =  0 Multiplicity = 1

 SCF Done:  E(RB3LYP) =  -766.396619136     A.U. after   16 cycles
 Normal termination of Gaussian 16 at Fri Dec 11 13:36:06 2020.

 ----------------------------------------------------------------------
 # B3LYP/6-311++G(d,p) empiricaldispersion=gd3bj scf=xqc pop=npa geom=c
 heck
 ----------------------------------------------------------------------

 -------------------------------------
 CID_128942163_JID_7831_Energie_kation
 -------------------------------------
 Structure from the checkpoint file:  "JID_7831.chk"
 Charge =  1 Multiplicity = 2

 SCF Done:  E(UB3LYP) =  -766.079947810     A.U. after   29 cycles
 Normal termination of Gaussian 16 at Fri Dec 11 13:52:24 2020.
 Gaussian 16:  ES64L-G16RevA.03 25-Dec-2016

 ----------------------------------------------------------------------
 # B3LYP/6-311++G(d,p) empiricaldispersion=gd3bj scf=xqc pop=npa geom=c
 heck
 ----------------------------------------------------------------------

 ------------------------------------
 CID_128942163_JID_7831_Energie_anion
 ------------------------------------
 Structure from the checkpoint file:  "JID_7831.chk"
 Charge = -1 Multiplicity = 2

                         Standard orientation:
 ---------------------------------------------------------------------
 Center     Atomic      Atomic             Coordinates (Angstroms)
 Number     Number       Type             X           Y           Z
 ---------------------------------------------------------------------
      1          6           0        4.379956    0.714949   -0.050656
      2          6           0        4.570321   -0.658005    0.618877
      3          6           0        3.605706   -1.719180    0.044462
      4          6           0        2.258148   -1.097462   -0.073953
      5          6           0        1.947956    0.226338   -0.010663
      6          6           0        2.974099    1.298671    0.196981
      7          6           0        0.529119    0.240895   -0.182839
      8          7           0        0.041581   -0.978155   -0.332709
      9          8           0        1.141150   -1.836270   -0.264471
     10          6           0       -0.298995    1.486248   -0.136231
     11          8           0        0.216448    2.512138    0.309387
     12          7           0       -1.576935    1.479620   -0.606198
     13          6           0       -2.414698    0.375943   -1.072485
     14          6           0       -3.155216   -0.329783    0.054117
     15          6           0       -4.229286    0.458813    0.852241
     16          6           0       -5.107541   -0.820530    0.849771
     17          6           0       -4.251863   -1.360174   -0.326977
     18          1           0        5.139384    1.414832    0.314871
     19          1           0        4.541401    0.608541   -1.132326
     20          1           0        5.603003   -1.002044    0.497401
     21          1           0        4.390014   -0.560532    1.697440
     22          1           0        3.949657   -2.056106   -0.943573
     23          1           0        3.567676   -2.608952    0.683651
     24          1           0        2.892569    1.692007    1.218155
     25          1           0        2.779072    2.150716   -0.460578
     26          1           0       -2.031704    2.371653   -0.452309
     27          1           0       -3.135225    0.803754   -1.780560
     28          1           0       -1.792435   -0.335380   -1.617699
     29          1           0       -2.422893   -0.782199    0.729862
     30          1           0       -3.939912    0.883170    1.818253
     31          1           0       -4.677131    1.253563    0.241823
     32          1           0       -6.182134   -0.698869    0.683386
     33          1           0       -4.960622   -1.411883    1.759283
     34          1           0       -4.704640   -1.121224   -1.297195
     35          1           0       -3.975622   -2.418566   -0.322742
 ---------------------------------------------------------------------

 SCF Done:  E(UB3LYP) =  -766.390295357     A.U. after   33 cycles
 SCF Done:  E(UB3LYP) =  -766.390295357     a.u. after    1 cycles

 The electronic state is 2-A.
 Alpha  occ. eigenvalues --  -19.06900 -18.95469 -14.21590 -14.21350 -10.14360
 Alpha  occ. eigenvalues --  -10.10158 -10.09536 -10.07700 -10.07527 -10.07338
 Alpha  occ. eigenvalues --  -10.07134 -10.07121 -10.06996 -10.06899 -10.06693
 Alpha  occ. eigenvalues --  -10.06229 -10.05288  -1.00808  -0.91019  -0.80514
 Alpha  occ. eigenvalues --   -0.74845  -0.73861  -0.73186  -0.64856  -0.63811
 Alpha  occ. eigenvalues --   -0.62073  -0.56462  -0.54090  -0.53433  -0.52161
 Alpha  occ. eigenvalues --   -0.49729  -0.45754  -0.44256  -0.43435  -0.39687
 Alpha  occ. eigenvalues --   -0.39123  -0.37938  -0.36914  -0.36417  -0.34058
 Alpha  occ. eigenvalues --   -0.33096  -0.32731  -0.31461  -0.30819  -0.30132
 Alpha  occ. eigenvalues --   -0.29406  -0.28840  -0.28181  -0.27259  -0.26718
 Alpha  occ. eigenvalues --   -0.26383  -0.24998  -0.23341  -0.23095  -0.22679
 Alpha  occ. eigenvalues --   -0.21928  -0.21447  -0.20779  -0.17576  -0.16820
 Alpha  occ. eigenvalues --   -0.13789  -0.13495  -0.12657   0.04564
 Alpha virt. eigenvalues --    0.05924   0.06589   0.07818   0.08398   0.08701
 Alpha virt. eigenvalues --    0.08914   0.09079   0.09860   0.10987   0.11265
 Alpha virt. eigenvalues --    0.11501   0.11731   0.11833   0.12381   0.13077

  Beta  occ. eigenvalues --  -19.06686 -18.95283 -14.21560 -14.20868 -10.14225
  Beta  occ. eigenvalues --  -10.10075 -10.09534 -10.07698 -10.07515 -10.07268
  Beta  occ. eigenvalues --  -10.07114 -10.07113 -10.06982 -10.06894 -10.06685
  Beta  occ. eigenvalues --  -10.06225 -10.05338  -1.00371  -0.90706  -0.80386
  Beta  occ. eigenvalues --   -0.74808  -0.73372  -0.73100  -0.64686  -0.63744
  Beta  occ. eigenvalues --   -0.62021  -0.56432  -0.53810  -0.53340  -0.52010
  Beta  occ. eigenvalues --   -0.49586  -0.45679  -0.44158  -0.43272  -0.39636
  Beta  occ. eigenvalues --   -0.39022  -0.37846  -0.36721  -0.36348  -0.33494
  Beta  occ. eigenvalues --   -0.32901  -0.32563  -0.31320  -0.30730  -0.29968
  Beta  occ. eigenvalues --   -0.29376  -0.28435  -0.28018  -0.26998  -0.26550
  Beta  occ. eigenvalues --   -0.26114  -0.24950  -0.23298  -0.23066  -0.22575
  Beta  occ. eigenvalues --   -0.21861  -0.21407  -0.20728  -0.17023  -0.15644
  Beta  occ. eigenvalues --   -0.13328  -0.13159  -0.11634
  Beta virt. eigenvalues --    0.06510   0.06998   0.07897   0.08458   0.08839
  Beta virt. eigenvalues --    0.09032   0.09098   0.09759   0.10180   0.10908
  Beta virt. eigenvalues --    0.11244   0.11517   0.11869   0.11939   0.12293

 Mulliken charges and spin densities:
               1          2
     1  C   -0.190287  -0.158643
     2  C   -0.280963   0.064489
     3  C    0.116855  -0.294450
     4  C   -0.354827  -0.227410
     5  C    0.783851  -0.072781
     6  C   -0.530982  -0.186029
     7  C    0.172852   0.103225
     8  N   -0.543792   0.263983
     9  O    0.265873   0.040819
    10  C    0.095192  -0.123495
    11  O   -0.379651   0.062803
    12  N   -0.190987   0.036313
    13  C   -0.246201  -0.559572
    14  C    0.013681   0.633825
    15  C   -0.028483  -0.480498
    16  C   -0.125151  -0.081600
    17  C   -0.167290  -0.382629
    18  H    0.012575   0.136565
    19  H    0.017680   0.115745
    20  H   -0.517034   0.689629
    21  H    0.158694  -0.038474
    22  H   -0.133208   0.307928
    23  H    0.115445   0.037520
    24  H    0.140978   0.045961
    25  H    0.214257  -0.032739
    26  H    0.281654   0.027174
    27  H   -0.046666   0.193728
    28  H    0.222503  -0.015912
    29  H    0.113539   0.114790
    30  H    0.091134   0.059638
    31  H   -0.092453   0.212149
    32  H   -0.226627   0.380117
    33  H    0.133243  -0.022841
    34  H   -0.012132   0.128805
    35  H    0.116728   0.021867
 Sum of Mulliken charges =  -1.00000   1.00000

 Dipole moment (field-independent basis, Debye):
    X=             -1.6985    Y=             -0.3208    Z=              0.6057  Tot=              1.8315
 Quadrupole moment (field-independent basis, Debye-Ang):
   XX=           -196.6058   YY=           -134.6389   ZZ=           -117.4842
   XY=              6.5970   XZ=              3.7479   YZ=             -4.9963

 Summary of Natural Population Analysis:

                                       Natural Population
                Natural  -----------------------------------------------
    Atom  No    Charge         Core      Valence    Rydberg      Total
 -----------------------------------------------------------------------
      C    1   -0.18970      0.99964     2.18056    0.00950     3.18970
      C    2   -0.18644      0.99964     2.17785    0.00895     3.18644
      C    3   -0.21075      0.99959     2.20178    0.00937     3.21075
      C    4    0.17317      0.99937     1.81271    0.01474     2.82683
      C    5   -0.07563      0.99940     2.06784    0.00839     3.07563
      C    6   -0.19205      0.99960     2.18468    0.00777     3.19205
      C    7    0.04129      0.99950     1.94561    0.01360     2.95871
      N    8   -0.02073      0.99967     2.50908    0.01197     3.52073
      O    9   -0.15260      0.99985     3.14418    0.00857     4.15260
      C   10    0.34559      0.99962     1.63378    0.02101     2.65441
      O   11   -0.31607      0.99988     3.31070    0.00548     4.31607
      N   12   -0.31163      0.99967     2.80274    0.00922     3.81163
      C   13   -0.09149      0.99958     2.07984    0.01207     3.09149
      C   14   -0.11576      0.99959     2.10533    0.01084     3.11576
      C   15   -0.18984      0.99963     2.18130    0.00891     3.18984
      C   16   -0.19160      0.99966     2.18371    0.00823     3.19160
      C   17   -0.18765      0.99963     2.17972    0.00830     3.18765
      H   18    0.09614      0.00000     0.40304    0.00082     0.40386
      H   19    0.09409      0.00000     0.40474    0.00117     0.40591
      H   20    0.09990      0.00000     0.39819    0.00192     0.40010
      H   21    0.09289      0.00000     0.40600    0.00111     0.40711
      H   22    0.10544      0.00000     0.39259    0.00196     0.39456
      H   23    0.10428      0.00000     0.39456    0.00116     0.39572
      H   24    0.10201      0.00000     0.39668    0.00131     0.39799
      H   25    0.10946      0.00000     0.38924    0.00130     0.39054
      H   26    0.18730      0.00000     0.30958    0.00312     0.31270
      H   27    0.08844      0.00000     0.41044    0.00113     0.41156
      H   28    0.11466      0.00000     0.38392    0.00141     0.38534
      H   29    0.10984      0.00000     0.38865    0.00151     0.39016
      H   30    0.09716      0.00000     0.40199    0.00085     0.40284
      H   31    0.09268      0.00000     0.40597    0.00136     0.40732
      H   32    0.09403      0.00000     0.40453    0.00145     0.40597
      H   33    0.09355      0.00000     0.40547    0.00098     0.40645
      H   34    0.09309      0.00000     0.40570    0.00121     0.40691
      H   35    0.09693      0.00000     0.40228    0.00078     0.40307
 =======================================================================
   * Total *    0.00000     16.99352    45.80503    0.20145    63.00000

 Normal termination of Gaussian 16 at Fri Dec 11 14:10:12 2020.
