 Gaussian 16, Revision A.03,

 -----------------------------------------------------------
 # opt freq B3LYP/6-31G(d) empiricaldispersion=gd3bj scf=xqc
 -----------------------------------------------------------

 -------------------------------
 CID_144446460_JID_2620_neutraal
 -------------------------------
 Symbolic Z-matrix:
 Charge =  0 Multiplicity = 1

 SCF Done:  E(RB3LYP) =  -513.852315319     A.U. after   15 cycles
 SCF Done:  E(RB3LYP) =  -513.857999980     A.U. after   13 cycles
 SCF Done:  E(RB3LYP) =  -513.858754027     A.U. after   12 cycles
 SCF Done:  E(RB3LYP) =  -513.858875226     A.U. after   11 cycles
 SCF Done:  E(RB3LYP) =  -513.858907961     A.U. after   11 cycles
 SCF Done:  E(RB3LYP) =  -513.858920715     A.U. after    9 cycles
 SCF Done:  E(RB3LYP) =  -513.858927859     A.U. after   10 cycles
 SCF Done:  E(RB3LYP) =  -513.858933520     A.U. after   10 cycles
 SCF Done:  E(RB3LYP) =  -513.858940433     A.U. after   10 cycles
 SCF Done:  E(RB3LYP) =  -513.858942745     A.U. after   10 cycles
 SCF Done:  E(RB3LYP) =  -513.858943080     A.U. after    7 cycles
 SCF Done:  E(RB3LYP) =  -513.858943112     A.U. after    7 cycles
 Optimization completed.
    -- Stationary point found.

 1\1\GINC-NODE106\FOpt\RB3LYP\6-31G(d)\C9H11N3\VSC10255\09-Dec-2020\0\\
 # opt freq B3LYP/6-31G(d) empiricaldispersion=gd3bj scf=xqc\\CID_14444
 6460_JID_2620_neutraal\\0,1\C,1.177897379,0.0857214378,0.0558175938\C,
 0.1250896282,-0.1612651029,1.1373600768\C,0.2473355405,0.801972244,2.3
 351380637\C,0.0372264866,2.2393376456,1.9646125861\C,-1.1576869686,2.8
 249809203,1.5379200272\N,-2.4057163379,2.3417741359,1.3588664266\C,-3.
 3212999982,3.1898727866,0.9365752033\C,-3.0651695427,4.5646219528,0.66
 46827726\C,-1.7971691145,5.0461002504,0.8492092925\N,-0.8472485254,4.1

 Normal termination of Gaussian 16 at Wed Dec  9 17:44:01 2020.

 --------------------------------------------------------------------
 #N Geom=AllCheck Guess=TCheck SCRF=Check GenChk RB3LYP/6-31G(d) Freq
 --------------------------------------------------------------------

 Structure from the checkpoint file:  "JID_2620.chk"
 -------------------------------
 CID_144446460_JID_2620_neutraal
 -------------------------------
 Charge =  0 Multiplicity = 1

 SCF Done:  E(RB3LYP) =  -513.858943112     A.U. after    1 cycles

  Exact polarizability: 145.083 -16.046 119.286  14.698   3.073  64.994
 Approx polarizability: 217.692 -34.669 223.055  31.637   9.322  98.111

                      1                      2                      3
                      A                      A                      A
 Frequencies --     26.3268                78.9576               123.7071
 Red. masses --      3.3477                 3.6100                 2.0011
 Frc consts  --      0.0014                 0.0133                 0.0180
 IR Inten    --      0.0413                 0.8894                 1.0159

                      4                      5                      6
                      A                      A                      A
 Frequencies --    174.1553               220.2206               231.6147
 Red. masses --      3.9775                 1.4956                 4.1730
 Frc consts  --      0.0711                 0.0427                 0.1319
 IR Inten    --      3.8210                 1.1705                 0.1483

                      7                      8                      9
                      A                      A                      A
 Frequencies --    285.6759               333.9761               427.8933
 Red. masses --      1.8476                 2.8099                 3.9495
 Frc consts  --      0.0888                 0.1847                 0.4261
 IR Inten    --      0.5721                 0.5896                 0.6488

                     10                     11                     12
                      A                      A                      A
 Frequencies --    447.3023               500.3274               559.5271
 Red. masses --      2.8834                 4.3098                 4.7818
 Frc consts  --      0.3399                 0.6357                 0.8820
 IR Inten    --      0.8405                 4.7186                 5.8507

                     13                     14                     15
                      A                      A                      A
 Frequencies --    592.1096               614.9054               667.2558
 Red. masses --      4.5272                 5.1990                 3.9071
 Frc consts  --      0.9352                 1.1582                 1.0249
 IR Inten    --      2.8464                 2.6300                 2.2813

                     16                     17                     18
                      A                      A                      A
 Frequencies --    713.8433               765.0864               789.4248
 Red. masses --      3.8813                 4.5140                 1.3550
 Frc consts  --      1.1653                 1.5568                 0.4975
 IR Inten    --      0.1505                13.5513                28.4667

                     19                     20                     21
                      A                      A                      A
 Frequencies --    795.5833               819.3611               871.2512
 Red. masses --      4.9972                 1.5119                 2.3688
 Frc consts  --      1.8636                 0.5980                 1.0594
 IR Inten    --      3.3830                11.5346                 4.1945

                     22                     23                     24
                      A                      A                      A
 Frequencies --    900.2781               904.0860               918.5163
 Red. masses --      2.1573                 1.4210                 2.5803
 Frc consts  --      1.0302                 0.6843                 1.2826
 IR Inten    --      1.2349                 7.5137                 1.3303

                     25                     26                     27
                      A                      A                      A
 Frequencies --    948.8308               958.0277              1031.6649
 Red. masses --      1.3568                 1.3032                 2.2020
 Frc consts  --      0.7197                 0.7047                 1.3809
 IR Inten    --      0.0109                 0.8013                 5.0253

                     28                     29                     30
                      A                      A                      A
 Frequencies --   1053.9309              1085.1140              1103.3419
 Red. masses --      2.2228                 1.9462                 2.1167
 Frc consts  --      1.4547                 1.3501                 1.5182
 IR Inten    --      4.3407                20.4493                 1.8790

                     31                     32                     33
                      A                      A                      A
 Frequencies --   1137.5900              1147.3710              1204.7936
 Red. masses --      1.8550                 1.6637                 1.6059
 Frc consts  --      1.4144                 1.2904                 1.3734
 IR Inten    --      3.9933                 9.6214                15.4073

                     34                     35                     36
                      A                      A                      A
 Frequencies --   1242.5046              1275.9569              1286.5946
 Red. masses --      2.3113                 1.9564                 2.4301
 Frc consts  --      2.1024                 1.8766                 2.3701
 IR Inten    --      0.6464                11.9039                15.9487

                     37                     38                     39
                      A                      A                      A
 Frequencies --   1308.8474              1352.7530              1354.9339
 Red. masses --      1.2351                 2.4069                 2.2070
 Frc consts  --      1.2466                 2.5950                 2.3872
 IR Inten    --      1.0743                16.9282                15.1633

                     40                     41                     42
                      A                      A                      A
 Frequencies --   1392.6114              1401.3958              1427.8683
 Red. masses --      1.4221                 1.8975                 1.9537
 Frc consts  --      1.6249                 2.1956                 2.3468
 IR Inten    --      4.6660                10.6562                 6.5170

                     43                     44                     45
                      A                      A                      A
 Frequencies --   1442.1156              1453.3785              1509.9651
 Red. masses --      1.2907                 2.9920                 1.1911
 Frc consts  --      1.5816                 3.7237                 1.6000
 IR Inten    --     13.2770                34.1642                 2.7873

                     46                     47                     48
                      A                      A                      A
 Frequencies --   1518.3025              1526.7149              1531.2849
 Red. masses --      1.4516                 1.5412                 1.1263
 Frc consts  --      1.9715                 2.1166                 1.5560
 IR Inten    --     11.7127                 4.6691                 8.0305

                     49                     50                     51
                      A                      A                      A
 Frequencies --   1538.9612              1568.7353              1615.4054
 Red. masses --      1.0852                 5.6602                 5.6098
 Frc consts  --      1.5143                 8.2070                 8.6251
 IR Inten    --      5.5841                71.1191                 6.3550

                     52                     53                     54
                      A                      A                      A
 Frequencies --   1676.4466              3037.7348              3043.4070
 Red. masses --      7.0022                 1.0607                 1.0397
 Frc consts  --     11.5949                 5.7671                 5.6741
 IR Inten    --     61.4976                21.3848                30.6397

                     55                     56                     57
                      A                      A                      A
 Frequencies --   3045.5911              3074.3263              3086.8834
 Red. masses --      1.0603                 1.1024                 1.1003
 Frc consts  --      5.7948                 6.1387                 6.1773
 IR Inten    --     44.7022                18.6804                15.8644

                     58                     59                     60
                      A                      A                      A
 Frequencies --   3110.0283              3120.6542              3181.9330
 Red. masses --      1.1010                 1.1024                 1.0903
 Frc consts  --      6.2743                 6.3254                 6.5039
 IR Inten    --     50.0831                52.2961                21.0428

                     61                     62                     63
                      A                      A                      A
 Frequencies --   3236.9502              3249.5821              3255.4130
 Red. masses --      1.0900                 1.0959                 1.0980
 Frc consts  --      6.7291                 6.8182                 6.8559
 IR Inten    --      2.1381                 7.5507                 2.7487

 - Thermochemistry -
 -------------------
 Temperature   298.150 Kelvin.  Pressure   1.00000 Atm.
 Atom     1 has atomic number  6 and mass  12.00000

 Molecular mass:   161.09530 amu.
 Principal axes and moments of inertia in atomic units:
                           1         2         3
     Eigenvalues --  1041.236852511.883283115.24461
           X            0.99999   0.00124  -0.00422
           Y           -0.00125   0.99999  -0.00383
           Z            0.00422   0.00384   0.99998
 This molecule is an asymmetric top.
 Rotational symmetry number  1.
 Warning -- assumption of classical behavior for rotation
           may cause significant error
 Rotational temperatures (Kelvin)      0.08318     0.03448     0.02780
 Rotational constants (GHZ):           1.73327     0.71848     0.57933
 Zero-point vibrational energy     504222.0 (Joules/Mol)
                                  120.51194 (Kcal/Mol)
 Warning -- explicit consideration of  14 degrees of freedom as
           vibrations may cause significant error
 Vibrational temperatures:     37.88   113.60   177.99   250.57   316.85
          (Kelvin)            333.24   411.02   480.52   615.64   643.57
                              719.86   805.03   851.91   884.71   960.03
                             1027.06  1100.79  1135.81  1144.67  1178.88
                             1253.54  1295.30  1300.78  1321.54  1365.16
                             1378.39  1484.34  1516.37  1561.24  1587.46
                             1636.74  1650.81  1733.43  1787.69  1835.82
                             1851.12  1883.14  1946.31  1949.45  2003.66
                             2016.30  2054.38  2074.88  2091.09  2172.50
                             2184.50  2196.60  2203.18  2214.22  2257.06
                             2324.21  2412.03  4370.62  4378.78  4381.93
                             4423.27  4441.34  4474.64  4489.93  4578.09
                             4657.25  4675.42  4683.81

 Zero-point correction=                           0.192048 (Hartree/Particle)
 Thermal correction to Energy=                    0.202135
 Thermal correction to Enthalpy=                  0.203079
 Thermal correction to Gibbs Free Energy=         0.155380
 Sum of electronic and zero-point Energies=           -513.666895
 Sum of electronic and thermal Energies=              -513.656808
 Sum of electronic and thermal Enthalpies=            -513.655864
 Sum of electronic and thermal Free Energies=         -513.703563

                     E (Thermal)             CV                S
                      KCal/Mol        Cal/Mol-Kelvin    Cal/Mol-Kelvin
 Total                  126.842             38.838            100.391
 Electronic               0.000              0.000              0.000
 Translational            0.889              2.981             41.139
 Rotational               0.889              2.981             30.478
 Vibrational            125.064             32.876             28.774
 Vibration     1          0.593              1.985              6.089
 Vibration     2          0.600              1.963              3.917
 Vibration     3          0.610              1.929              3.042
 Vibration     4          0.627              1.874              2.390
 Vibration     5          0.647              1.810              1.957
 Vibration     6          0.653              1.793              1.866
 Vibration     7          0.683              1.700              1.499
 Vibration     8          0.716              1.608              1.241
 Vibration     9          0.789              1.410              0.866
 Vibration    10          0.806              1.367              0.804
 Vibration    11          0.856              1.249              0.657
 Vibration    12          0.915              1.119              0.525
 Vibration    13          0.950              1.049              0.463
 Vibration    14          0.974              1.000              0.425

 Optimization completed.
    -- Stationary point found.

 1\1\GINC-NODE106\Freq\RB3LYP\6-31G(d)\C9H11N3\VSC10255\09-Dec-2020\0\\
 #N Geom=AllCheck Guess=TCheck SCRF=Check GenChk RB3LYP/6-31G(d) Freq\\
 CID_144446460_JID_2620_neutraal\\0,1\C,1.177897379,0.0857214378,0.0558
 175938\C,0.1250896282,-0.1612651029,1.1373600768\C,0.2473355405,0.8019
 72244,2.3351380637\C,0.0372264866,2.2393376456,1.9646125861\C,-1.15768
 69686,2.8249809203,1.5379200272\N,-2.4057163379,2.3417741359,1.3588664
 266\C,-3.3212999982,3.1898727866,0.9365752033\C,-3.0651695427,4.564621
 9528,0.6646827726\C,-1.7971691145,5.0461002504,0.8492092925\N,-0.84724

 Normal termination of Gaussian 16 at Wed Dec  9 17:49:17 2020.

 ----------------------------------------------------------------------
 # B3LYP/6-311++G(d,p) empiricaldispersion=gd3bj scf=xqc pop=npa geom=c
 heck
 ----------------------------------------------------------------------

 ---------------------------------------
 CID_144446460_JID_2620_Energie_neutraal
 ---------------------------------------
 Structure from the checkpoint file:  "JID_2620.chk"
 Charge =  0 Multiplicity = 1

 SCF Done:  E(RB3LYP) =  -513.990939543     A.U. after   15 cycles
 Normal termination of Gaussian 16 at Wed Dec  9 17:51:43 2020.

 ----------------------------------------------------------------------
 # B3LYP/6-311++G(d,p) empiricaldispersion=gd3bj scf=xqc pop=npa geom=c
 heck
 ----------------------------------------------------------------------

 -------------------------------------
 CID_144446460_JID_2620_Energie_kation
 -------------------------------------
 Structure from the checkpoint file:  "JID_2620.chk"
 Charge =  1 Multiplicity = 2

 SCF Done:  E(UB3LYP) =  -513.697623114     A.U. after   22 cycles
 Normal termination of Gaussian 16 at Wed Dec  9 17:57:13 2020.
 Gaussian 16:  ES64L-G16RevA.03 25-Dec-2016

 ------------------------------------
 CID_144446460_JID_2620_Energie_anion
 ------------------------------------
 Structure from the checkpoint file:  "JID_2620.chk"
 Charge = -1 Multiplicity = 2

                         Standard orientation:
 ---------------------------------------------------------------------
 Center     Atomic      Atomic             Coordinates (Angstroms)
 Number     Number       Type             X           Y           Z
 ---------------------------------------------------------------------
      1          6           0       -3.136368   -0.269738    1.302029
      2          6           0       -2.734053   -1.032447    0.038875
      3          6           0       -2.088174   -0.132821   -1.033951
      4          6           0       -0.805587    0.499778   -0.584236
      5          6           0        0.400399   -0.155213   -0.320711
      6          7           0        0.780707   -1.448342   -0.400148
      7          6           0        2.025424   -1.727721   -0.070722
      8          6           0        2.971704   -0.752431    0.356862
      9          6           0        2.577701    0.556185    0.434208
     10          7           0        1.296206    0.852766    0.097030
     11          7           0        0.733534    2.077498    0.113183
     12          6           0       -0.528033    1.846813   -0.295770
     13          1           0       -2.266757    0.204837    1.769600
     14          1           0       -3.594007   -0.937189    2.040540
     15          1           0       -3.861272    0.521272    1.071298
     16          1           0       -2.027840   -1.832136    0.292642
     17          1           0       -3.616553   -1.517488   -0.398433
     18          1           0       -1.904044   -0.733217   -1.933687
     19          1           0       -2.793693    0.657473   -1.321416
     20          1           0        2.323703   -2.771957   -0.137570
     21          1           0        3.984315   -1.035627    0.616935
     22          1           0        3.194732    1.391350    0.742603
     23          1           0       -1.209792    2.684796   -0.372472
 ---------------------------------------------------------------------

 SCF Done:  E(UB3LYP) =  -513.993137647     A.U. after   30 cycles

 The electronic state is 2-A.
 Alpha  occ. eigenvalues --  -14.22997 -14.17114 -14.12117 -10.07079 -10.04477
 Alpha  occ. eigenvalues --  -10.04410 -10.04342 -10.03919 -10.03448 -10.02895
 Alpha  occ. eigenvalues --  -10.01535 -10.01074  -0.89952  -0.76959  -0.70173
 Alpha  occ. eigenvalues --   -0.66863  -0.62038  -0.59966  -0.55619  -0.49791
 Alpha  occ. eigenvalues --   -0.47953  -0.45785  -0.42959  -0.36632  -0.34714
 Alpha  occ. eigenvalues --   -0.33686  -0.32480  -0.31947  -0.30701  -0.28182
 Alpha  occ. eigenvalues --   -0.27578  -0.26300  -0.24586  -0.23278  -0.22833
 Alpha  occ. eigenvalues --   -0.22081  -0.20939  -0.20356  -0.16347  -0.15306
 Alpha  occ. eigenvalues --   -0.10021  -0.09529  -0.06125   0.06005
 Alpha virt. eigenvalues --    0.08081   0.09866   0.10091   0.10157   0.11581
 Alpha virt. eigenvalues --    0.12122   0.12756   0.13239   0.13767   0.14383
 Alpha virt. eigenvalues --    0.14858   0.15371   0.17091   0.17791   0.18594

  Beta  occ. eigenvalues --  -14.22749 -14.17176 -14.11575 -10.07132 -10.04476
  Beta  occ. eigenvalues --  -10.04407 -10.04343 -10.03846 -10.02859 -10.02585
  Beta  occ. eigenvalues --  -10.01635 -10.01037  -0.89587  -0.76242  -0.69715
  Beta  occ. eigenvalues --   -0.66702  -0.61854  -0.59612  -0.55555  -0.49075
  Beta  occ. eigenvalues --   -0.47733  -0.45600  -0.42739  -0.36237  -0.34555
  Beta  occ. eigenvalues --   -0.33517  -0.32289  -0.31844  -0.29759  -0.28125
  Beta  occ. eigenvalues --   -0.27428  -0.26075  -0.24439  -0.23097  -0.22740
  Beta  occ. eigenvalues --   -0.22041  -0.20762  -0.18774  -0.15264  -0.14606
  Beta  occ. eigenvalues --   -0.09013  -0.08958  -0.05029
  Beta virt. eigenvalues --    0.08018   0.09809   0.09983   0.10069   0.11538
  Beta virt. eigenvalues --    0.11991   0.12649   0.12977   0.13293   0.13726
  Beta virt. eigenvalues --    0.14549   0.14829   0.15355   0.17051   0.17870

 Mulliken charges and spin densities:
               1          2
     1  C   -0.626633  -0.031778
     2  C   -0.053257  -0.003152
     3  C   -0.518220  -0.119788
     4  C    1.327218   0.106454
     5  C   -1.531253  -0.128590
     6  N   -0.144391   0.243472
     7  C    0.111355   0.256319
     8  C   -0.531888  -0.034514
     9  C    0.068593   0.495808
    10  N    0.243519   0.017855
    11  N   -0.205177  -0.011441
    12  C   -0.275285   0.049260
    13  H    0.174697   0.001965
    14  H    0.094713   0.012995
    15  H    0.098097   0.005174
    16  H    0.157131  -0.010391
    17  H    0.018683   0.082405
    18  H    0.091175   0.057680
    19  H    0.063884   0.059114
    20  H    0.121442  -0.019920
    21  H    0.097433   0.007244
    22  H    0.133723  -0.040640
    23  H    0.084441   0.004470
 Sum of Mulliken charges =  -1.00000   1.00000

 Dipole moment (field-independent basis, Debye):
    X=             -3.1234    Y=             -0.0683    Z=              0.6280  Tot=              3.1867
 Quadrupole moment (field-independent basis, Debye-Ang):
   XX=            -95.0125   YY=            -94.8914   ZZ=            -84.0470
   XY=             -2.1023   XZ=              0.1213   YZ=             -1.7642

 Summary of Natural Population Analysis:

                                       Natural Population
                Natural  -----------------------------------------------
    Atom  No    Charge         Core      Valence    Rydberg      Total
 -----------------------------------------------------------------------
      C    1   -0.28746      0.99967     2.28362    0.00417     3.28746
      C    2   -0.19173      0.99964     2.18218    0.00991     3.19173
      C    3   -0.19222      0.99961     2.18175    0.01086     3.19222
      C    4   -0.09911      0.99946     2.08626    0.01339     3.09911
      C    5    0.17205      0.99949     1.81395    0.01451     2.82795
      N    6   -0.18869      0.99966     2.67734    0.01168     3.68869
      C    7    0.08414      0.99963     1.90042    0.01580     2.91586
      C    8   -0.18459      0.99958     2.17615    0.00887     3.18459
      C    9    0.13850      0.99957     1.85066    0.01127     2.86150
      N   10   -0.07045      0.99960     2.55803    0.01282     3.57045
      N   11   -0.19330      0.99974     2.67983    0.01372     3.69330
      C   12    0.00482      0.99958     1.98008    0.01552     2.99518
      H   13    0.10555      0.00000     0.39360    0.00085     0.39445
      H   14    0.09111      0.00000     0.40800    0.00089     0.40889
      H   15    0.08866      0.00000     0.41015    0.00119     0.41134
      H   16    0.10541      0.00000     0.39305    0.00154     0.39459
      H   17    0.08397      0.00000     0.41433    0.00170     0.41603
      H   18    0.10165      0.00000     0.39663    0.00171     0.39835
      H   19    0.09065      0.00000     0.40829    0.00106     0.40935
      H   20    0.07259      0.00000     0.42595    0.00146     0.42741
      H   21    0.09455      0.00000     0.40432    0.00113     0.40545
      H   22    0.08850      0.00000     0.41057    0.00093     0.41150
      H   23    0.08540      0.00000     0.41370    0.00090     0.41460
 =======================================================================
   * Total *    0.00000     11.99525    30.84886    0.15590    43.00000

 Normal termination of Gaussian 16 at Wed Dec  9 18:04:35 2020.
