 Gaussian 16, Revision A.03,

 -----------------------------------------------------------
 # opt freq B3LYP/6-31G(d) empiricaldispersion=gd3bj scf=xqc
 -----------------------------------------------------------

 -------------------------------
 CID_131531987_JID_6325_neutraal
 -------------------------------
 Symbolic Z-matrix:
 Charge =  0 Multiplicity = 1

 SCF Done:  E(RB3LYP) =  -728.138239765     A.U. after   15 cycles
 SCF Done:  E(RB3LYP) =  -728.142485932     A.U. after   12 cycles
 SCF Done:  E(RB3LYP) =  -728.142893818     A.U. after   11 cycles
 SCF Done:  E(RB3LYP) =  -728.142701845     A.U. after   12 cycles
 SCF Done:  E(RB3LYP) =  -728.143050185     A.U. after   12 cycles
 SCF Done:  E(RB3LYP) =  -728.143112112     A.U. after   10 cycles
 SCF Done:  E(RB3LYP) =  -728.143122906     A.U. after    9 cycles
 SCF Done:  E(RB3LYP) =  -728.143126127     A.U. after    8 cycles
 SCF Done:  E(RB3LYP) =  -728.143127101     A.U. after    8 cycles
 SCF Done:  E(RB3LYP) =  -728.143127458     A.U. after    7 cycles
 SCF Done:  E(RB3LYP) =  -728.143127537     A.U. after    6 cycles
 SCF Done:  E(RB3LYP) =  -728.143127568     A.U. after    6 cycles
 Optimization completed.
    -- Stationary point found.
 Normal termination of Gaussian 16 at Thu Dec 10 22:13:34 2020.

 --------------------------------------------------------------------
 #N Geom=AllCheck Guess=TCheck SCRF=Check GenChk RB3LYP/6-31G(d) Freq
 --------------------------------------------------------------------

 Structure from the checkpoint file:  "JID_6325.chk"
 -------------------------------
 CID_131531987_JID_6325_neutraal
 -------------------------------
 Charge =  0 Multiplicity = 1

 SCF Done:  E(RB3LYP) =  -728.143127568     A.U. after    1 cycles

  Exact polarizability: 177.393  -3.739 158.752   0.783  -0.488  94.984
 Approx polarizability: 228.895  -3.896 248.434   0.105  -0.608 143.659

                      1                      2                      3
                      A                      A                      A
 Frequencies --     44.6400                67.9219                73.0541
 Red. masses --      4.1670                 3.5490                 2.8907
 Frc consts  --      0.0049                 0.0096                 0.0091
 IR Inten    --      2.1327                 0.2085                 0.3350

                      4                      5                      6
                      A                      A                      A
 Frequencies --     88.2273               118.9456               136.5414
 Red. masses --      3.1502                 3.8756                 1.7351
 Frc consts  --      0.0144                 0.0323                 0.0191
 IR Inten    --      0.6062                 0.4136                 1.6130

                      7                      8                      9
                      A                      A                      A
 Frequencies --    144.3630               157.1816               169.9443
 Red. masses --      1.6472                 3.2833                 2.9738
 Frc consts  --      0.0202                 0.0478                 0.0506
 IR Inten    --      1.1711                 0.7888                 0.5710

                     10                     11                     12
                      A                      A                      A
 Frequencies --    246.4708               259.4284               267.1387
 Red. masses --      1.1810                 3.2184                 2.8833
 Frc consts  --      0.0423                 0.1276                 0.1212
 IR Inten    --      0.8112                 6.8441                 0.8360

                     13                     14                     15
                      A                      A                      A
 Frequencies --    273.2359               282.7388               301.2637
 Red. masses --      2.8098                 1.2161                 2.8441
 Frc consts  --      0.1236                 0.0573                 0.1521
 IR Inten    --      4.9807                 1.1810                 0.7631

                     16                     17                     18
                      A                      A                      A
 Frequencies --    334.1463               354.6365               394.9781
 Red. masses --      1.8124                 3.9662                 4.0970
 Frc consts  --      0.1192                 0.2939                 0.3766
 IR Inten    --      5.8120                 9.2879                 2.7665

                     19                     20                     21
                      A                      A                      A
 Frequencies --    403.0701               430.6397               450.3431
 Red. masses --      6.4345                 2.7939                 4.0965
 Frc consts  --      0.6159                 0.3053                 0.4895
 IR Inten    --      2.3442                 3.9776                 2.0034

                     22                     23                     24
                      A                      A                      A
 Frequencies --    521.8615               531.4926               607.9188
 Red. masses --      1.8909                 1.5631                 3.5827
 Frc consts  --      0.3034                 0.2602                 0.7801
 IR Inten    --     12.4570                41.4918                 2.8630

                     25                     26                     27
                      A                      A                      A
 Frequencies --    639.6117               662.9406               704.3715
 Red. masses --      3.2798                 4.5132                 4.8163
 Frc consts  --      0.7906                 1.1687                 1.4079
 IR Inten    --      2.3024                 2.7053                 7.8856

                     28                     29                     30
                      A                      A                      A
 Frequencies --    729.1859               780.5756               792.7422
 Red. masses --      2.2165                 7.6571                 4.0659
 Frc consts  --      0.6944                 2.7488                 1.5055
 IR Inten    --     25.4513                17.1628                26.8402

                     31                     32                     33
                      A                      A                      A
 Frequencies --    817.3226               826.9224               879.9614
 Red. masses --      3.7102                 2.8609                 1.7269
 Frc consts  --      1.4603                 1.1526                 0.7879
 IR Inten    --      6.4847                99.2917                11.7152

                     34                     35                     36
                      A                      A                      A
 Frequencies --    900.7234               943.5490               949.7164
 Red. masses --      2.6126                 1.1907                 2.2492
 Frc consts  --      1.2489                 0.6246                 1.1952
 IR Inten    --      2.4732                 1.9080                31.4302

                     37                     38                     39
                      A                      A                      A
 Frequencies --    977.2235               977.5310               984.8564
 Red. masses --      1.4716                 2.6487                 1.8041
 Frc consts  --      0.8280                 1.4912                 1.0310
 IR Inten    --      0.8159                 1.0610                 3.3026

                     40                     41                     42
                      A                      A                      A
 Frequencies --   1022.9841              1095.0644              1108.9291
 Red. masses --      4.5982                 2.3754                 2.2277
 Frc consts  --      2.8352                 1.6783                 1.6140
 IR Inten    --      2.1960                63.0440                35.7671

                     43                     44                     45
                      A                      A                      A
 Frequencies --   1126.5347              1135.3830              1138.5505
 Red. masses --      2.3279                 3.2139                 2.2613
 Frc consts  --      1.7406                 2.4410                 1.7271
 IR Inten    --     99.6369                15.5033                27.3664

                     46                     47                     48
                      A                      A                      A
 Frequencies --   1182.0563              1186.1464              1197.7235
 Red. masses --      3.8583                 1.2755                 1.5758
 Frc consts  --      3.1763                 1.0573                 1.3319
 IR Inten    --     68.0505                 1.1071                 7.2008

                     49                     50                     51
                      A                      A                      A
 Frequencies --   1201.6331              1219.1733              1227.6869
 Red. masses --      1.4119                 1.5255                 1.4964
 Frc consts  --      1.2012                 1.3360                 1.3288
 IR Inten    --      9.7823                38.7979                31.9076

                     52                     53                     54
                      A                      A                      A
 Frequencies --   1264.8451              1278.3382              1320.5021
 Red. masses --      1.4504                 3.1959                 1.6945
 Frc consts  --      1.3672                 3.0770                 1.7409
 IR Inten    --     13.7845               153.4627                52.7725

                     55                     56                     57
                      A                      A                      A
 Frequencies --   1352.6890              1354.3850              1359.5071
 Red. masses --      1.6753                 1.3481                 1.4263
 Frc consts  --      1.8060                 1.4570                 1.5532
 IR Inten    --     12.4387                 2.0236                19.3829

                     58                     59                     60
                      A                      A                      A
 Frequencies --   1374.5001              1391.6818              1414.3333
 Red. masses --      1.5664                 1.6382                 1.7608
 Frc consts  --      1.7436                 1.8694                 2.0752
 IR Inten    --     33.2742                28.2162                 7.7435

                     61                     62                     63
                      A                      A                      A
 Frequencies --   1421.5455              1444.5498              1479.3562
 Red. masses --      1.2271                 1.2605                 1.9250
 Frc consts  --      1.4610                 1.5498                 2.4822
 IR Inten    --      3.8079                 7.0437                19.0272

                     64                     65                     66
                      A                      A                      A
 Frequencies --   1488.4357              1500.0356              1504.1170
 Red. masses --      2.6336                 1.1871                 1.8502
 Frc consts  --      3.4377                 1.5737                 2.4662
 IR Inten    --     17.2719                 7.1530                98.0747

                     67                     68                     69
                      A                      A                      A
 Frequencies --   1509.7461              1510.9711              1515.1165
 Red. masses --      1.1221                 1.0495                 1.1553
 Frc consts  --      1.5069                 1.4117                 1.5626
 IR Inten    --      1.1429                 4.3193                 6.4473

                     70                     71                     72
                      A                      A                      A
 Frequencies --   1518.7705              1521.9432              1523.5195
 Red. masses --      1.0713                 1.1106                 1.1624
 Frc consts  --      1.4559                 1.5157                 1.5897
 IR Inten    --      6.7959                 9.3795                 0.4869

                     73                     74                     75
                      A                      A                      A
 Frequencies --   1528.4972              1538.8712              1544.7708
 Red. masses --      1.0705                 1.0901                 1.0898
 Frc consts  --      1.4736                 1.5209                 1.5323
 IR Inten    --      5.1248                29.0181                 1.5881

                     76                     77                     78
                      A                      A                      A
 Frequencies --   1563.1342              1656.4258              1782.0496
 Red. masses --      4.0799                 5.4464                11.5607
 Frc consts  --      5.8734                 8.8045                21.6308
 IR Inten    --     36.4145                 8.6362               330.6798

                     79                     80                     81
                      A                      A                      A
 Frequencies --   2999.3497              3034.5707              3035.2811
 Red. masses --      1.0655                 1.0435                 1.0895
 Frc consts  --      5.6475                 5.6617                 5.9140
 IR Inten    --     61.8434                20.1743                21.1398

                     82                     83                     84
                      A                      A                      A
 Frequencies --   3037.1135              3046.6389              3055.1221
 Red. masses --      1.0727                 1.0380                 1.0648
 Frc consts  --      5.8299                 5.6765                 5.8558
 IR Inten    --     34.8135                39.6951                76.1891

                     85                     86                     87
                      A                      A                      A
 Frequencies --   3071.4739              3086.8281              3098.5617
 Red. masses --      1.0293                 1.0849                 1.1066
 Frc consts  --      5.7211                 6.0905                 6.2596
 IR Inten    --     45.0189                 5.4950                47.9263

                     88                     89                     90
                      A                      A                      A
 Frequencies --   3101.7934              3114.5080              3118.4343
 Red. masses --      1.0970                 1.0977                 1.0917
 Frc consts  --      6.2184                 6.2736                 6.2552
 IR Inten    --      8.2290                55.8748                13.6490

                     91                     92                     93
                      A                      A                      A
 Frequencies --   3126.4828              3144.2027              3150.1661
 Red. masses --      1.1026                 1.1072                 1.0996
 Frc consts  --      6.3502                 6.4489                 6.4291
 IR Inten    --     32.9474                22.8702                17.9820

                     94                     95                     96
                      A                      A                      A
 Frequencies --   3173.1087              3473.9454              3656.8919
 Red. masses --      1.1071                 1.0737                 1.0791
 Frc consts  --      6.5673                 7.6345                 8.5025
 IR Inten    --     19.8942                 1.7452                44.8841

 - Thermochemistry -
 -------------------
 Temperature   298.150 Kelvin.  Pressure   1.00000 Atm.
 Atom     1 has atomic number  6 and mass  12.00000

 Molecular mass:   222.13683 amu.
 Principal axes and moments of inertia in atomic units:
                           1         2         3
     Eigenvalues --  2507.678154355.016956493.29347
           X            0.99995   0.01022   0.00142
           Y           -0.01022   0.99995  -0.00093
           Z           -0.00143   0.00091   1.00000
 This molecule is an asymmetric top.
 Rotational symmetry number  1.
 Warning -- assumption of classical behavior for rotation
           may cause significant error
 Rotational temperatures (Kelvin)      0.03454     0.01989     0.01334
 Rotational constants (GHZ):           0.71969     0.41441     0.27794
 Zero-point vibrational energy     773124.9 (Joules/Mol)
                                  184.78129 (Kcal/Mol)
 Warning -- explicit consideration of  24 degrees of freedom as
           vibrations may cause significant error
 Vibrational temperatures:     64.23    97.72   105.11   126.94   171.14
          (Kelvin)            196.45   207.71   226.15   244.51   354.62
                              373.26   384.35   393.13   406.80   433.45
                              480.76   510.24   568.29   579.93   619.59
                              647.94   750.84   764.70   874.66   920.26
                              953.82  1013.43  1049.14  1123.07  1140.58
                             1175.94  1189.76  1266.07  1295.94  1357.56
                             1366.43  1406.01  1406.45  1416.99  1471.85
                             1575.55  1595.50  1620.83  1633.56  1638.12
                             1700.72  1706.60  1723.26  1728.88  1754.12
                             1766.37  1819.83  1839.24  1899.91  1946.22
                             1948.66  1956.03  1977.60  2002.32  2034.91
                             2045.29  2078.39  2128.46  2141.53  2158.22
                             2164.09  2172.19  2173.95  2179.91  2185.17
                             2189.74  2192.00  2199.17  2214.09  2222.58
                             2249.00  2383.23  2563.97  4315.40  4366.07
                             4367.09  4369.73  4383.43  4395.64  4419.17
                             4441.26  4458.14  4462.79  4481.08  4486.73
                             4498.31  4523.81  4532.39  4565.40  4998.23
                             5261.45

 Zero-point correction=                           0.294468 (Hartree/Particle)
 Thermal correction to Energy=                    0.310485
 Thermal correction to Enthalpy=                  0.311429
 Thermal correction to Gibbs Free Energy=         0.251280
 Sum of electronic and zero-point Energies=           -727.848660
 Sum of electronic and thermal Energies=              -727.832643
 Sum of electronic and thermal Enthalpies=            -727.831699
 Sum of electronic and thermal Free Energies=         -727.891847

                     E (Thermal)             CV                S
                      KCal/Mol        Cal/Mol-Kelvin    Cal/Mol-Kelvin
 Total                  194.832             60.418            126.593
 Electronic               0.000              0.000              0.000
 Translational            0.889              2.981             42.097
 Rotational               0.889              2.981             32.628
 Vibrational            193.055             54.456             51.868
 Vibration     1          0.595              1.980              5.042
 Vibration     2          0.598              1.970              4.213
 Vibration     3          0.599              1.967              4.069
 Vibration     4          0.601              1.957              3.699
 Vibration     5          0.609              1.934              3.117
 Vibration     6          0.614              1.917              2.852
 Vibration     7          0.616              1.909              2.745
 Vibration     8          0.621              1.895              2.583
 Vibration     9          0.625              1.879              2.436
 Vibration    10          0.661              1.769              1.756
 Vibration    11          0.668              1.747              1.666
 Vibration    12          0.672              1.733              1.615
 Vibration    13          0.676              1.723              1.576
 Vibration    14          0.682              1.706              1.517
 Vibration    15          0.693              1.671              1.410
 Vibration    16          0.716              1.607              1.240
 Vibration    17          0.730              1.566              1.146
 Vibration    18          0.762              1.481              0.981
 Vibration    19          0.768              1.463              0.951
 Vibration    20          0.792              1.404              0.857
 Vibration    21          0.809              1.360              0.795
 Vibration    22          0.877              1.202              0.606
 Vibration    23          0.886              1.180              0.584
 Vibration    24          0.967              1.015              0.436

 Optimization completed.
    -- Stationary point found.
 Normal termination of Gaussian 16 at Thu Dec 10 22:25:46 2020.

 ----------------------------------------------------------------------
 # B3LYP/6-311++G(d,p) empiricaldispersion=gd3bj scf=xqc pop=npa geom=c
 heck
 ----------------------------------------------------------------------

 ---------------------------------------
 CID_131531987_JID_6325_Energie_neutraal
 ---------------------------------------
 Structure from the checkpoint file:  "JID_6325.chk"
 Charge =  0 Multiplicity = 1

 SCF Done:  E(RB3LYP) =  -728.347829382     A.U. after   15 cycles
 Normal termination of Gaussian 16 at Thu Dec 10 22:30:44 2020.

 ----------------------------------------------------------------------
 # B3LYP/6-311++G(d,p) empiricaldispersion=gd3bj scf=xqc pop=npa geom=c
 heck
 ----------------------------------------------------------------------

 -------------------------------------
 CID_131531987_JID_6325_Energie_kation
 -------------------------------------
 Structure from the checkpoint file:  "JID_6325.chk"
 Charge =  1 Multiplicity = 2

 SCF Done:  E(UB3LYP) =  -728.075601292     A.U. after   23 cycles
 Normal termination of Gaussian 16 at Thu Dec 10 22:42:14 2020.
 Gaussian 16:  ES64L-G16RevA.03 25-Dec-2016

 ----------------------------------------------------------------------
 # B3LYP/6-311++G(d,p) empiricaldispersion=gd3bj scf=xqc pop=npa geom=c
 heck
 ----------------------------------------------------------------------

 ------------------------------------
 CID_131531987_JID_6325_Energie_anion
 ------------------------------------
 Structure from the checkpoint file:  "JID_6325.chk"
 Charge = -1 Multiplicity = 2

                         Standard orientation:
 ---------------------------------------------------------------------
 Center     Atomic      Atomic             Coordinates (Angstroms)
 Number     Number       Type             X           Y           Z
 ---------------------------------------------------------------------
      1          6           0        1.999493    3.003290   -0.785302
      2          6           0        2.017337    1.599750   -0.161573
      3          6           0        2.632278    1.634560    1.251460
      4          6           0        0.654198    0.960052   -0.134778
      5          6           0        0.252496   -0.379513   -0.078086
      6          6           0       -1.184998   -0.403632   -0.029779
      7          6           0       -1.614982    0.898217   -0.041117
      8          7           0       -0.493582    1.708763   -0.108214
      9          6           0       -3.037644    1.348216    0.010721
     10          6           0       -3.892474    0.131329    0.448025
     11          7           0       -3.546832   -1.122036   -0.222874
     12          6           0       -2.160900   -1.548861    0.037914
     13          6           0        1.071709   -1.584152   -0.073513
     14          8           0        0.636706   -2.723305   -0.042449
     15          8           0        2.412816   -1.325883   -0.102645
     16          6           0        3.249398   -2.488303   -0.103766
     17          1           0        1.449750    3.720105   -0.160046
     18          1           0        1.548581    2.999064   -1.783644
     19          1           0        3.021050    3.386160   -0.875691
     20          1           0        2.653398    0.958485   -0.778446
     21          1           0        2.020390    2.245038    1.926366
     22          1           0        2.698289    0.624793    1.663210
     23          1           0        3.640538    2.064512    1.221641
     24          1           0       -0.512281    2.716763   -0.142585
     25          1           0       -3.380333    1.712589   -0.970715
     26          1           0       -3.178353    2.179328    0.716932
     27          1           0       -4.954471    0.339673    0.278271
     28          1           0       -3.758879   -0.026655    1.525493
     29          1           0       -3.660426   -0.993642   -1.227915
     30          1           0       -2.122738   -2.020850    1.029399
     31          1           0       -1.895824   -2.336169   -0.672379
     32          1           0        3.074889   -3.091656    0.791123
     33          1           0        3.054676   -3.105306   -0.985271
     34          1           0        4.272997   -2.111538   -0.118596
 ---------------------------------------------------------------------

 SCF Done:  E(UB3LYP) =  -728.338641895     A.U. after   33 cycles
 SCF Done:  E(UB3LYP) =  -728.338641895     a.u. after    1 cycles

 The electronic state is 2-A.
 Alpha  occ. eigenvalues --  -19.06853 -19.00564 -14.26043 -14.20554 -10.19992
 Alpha  occ. eigenvalues --  -10.13333 -10.11386 -10.10343 -10.09735 -10.09682
 Alpha  occ. eigenvalues --  -10.08628 -10.08130 -10.07103 -10.06396 -10.06199
 Alpha  occ. eigenvalues --  -10.06045  -1.00580  -0.91636  -0.88673  -0.81751
 Alpha  occ. eigenvalues --   -0.71313  -0.69955  -0.67190  -0.64803  -0.61828
 Alpha  occ. eigenvalues --   -0.58791  -0.55970  -0.53872  -0.52950  -0.48686
 Alpha  occ. eigenvalues --   -0.46623  -0.45387  -0.42023  -0.39218  -0.38976
 Alpha  occ. eigenvalues --   -0.38499  -0.37154  -0.36051  -0.35639  -0.34093
 Alpha  occ. eigenvalues --   -0.33528  -0.33355  -0.31687  -0.31208  -0.30172
 Alpha  occ. eigenvalues --   -0.29934  -0.29709  -0.28762  -0.27645  -0.26869
 Alpha  occ. eigenvalues --   -0.25999  -0.25250  -0.24815  -0.24283  -0.23745
 Alpha  occ. eigenvalues --   -0.21079  -0.18281  -0.15101  -0.13834  -0.11019
 Alpha  occ. eigenvalues --    0.04037
 Alpha virt. eigenvalues --    0.05970   0.06724   0.07381   0.07892   0.08023
 Alpha virt. eigenvalues --    0.08886   0.09104   0.09837   0.09984   0.10556
 Alpha virt. eigenvalues --    0.11026   0.11275   0.11691   0.12081   0.12812

  Beta  occ. eigenvalues --  -19.06852 -19.00561 -14.25998 -14.20547 -10.19991
  Beta  occ. eigenvalues --  -10.13315 -10.11383 -10.10333 -10.09733 -10.09683
  Beta  occ. eigenvalues --  -10.08622 -10.08095 -10.07103 -10.06393 -10.06146
  Beta  occ. eigenvalues --  -10.06019  -1.00576  -0.91631  -0.88631  -0.81733
  Beta  occ. eigenvalues --   -0.71285  -0.69923  -0.67148  -0.64782  -0.61800
  Beta  occ. eigenvalues --   -0.58717  -0.55926  -0.53830  -0.52909  -0.48622
  Beta  occ. eigenvalues --   -0.46598  -0.45356  -0.41996  -0.39185  -0.38964
  Beta  occ. eigenvalues --   -0.38478  -0.37123  -0.36024  -0.35611  -0.34055
  Beta  occ. eigenvalues --   -0.33495  -0.33328  -0.31663  -0.31186  -0.30141
  Beta  occ. eigenvalues --   -0.29919  -0.29668  -0.28715  -0.27615  -0.26852
  Beta  occ. eigenvalues --   -0.25973  -0.25218  -0.24785  -0.24251  -0.23701
  Beta  occ. eigenvalues --   -0.21070  -0.18277  -0.15079  -0.13810  -0.11004
  Beta virt. eigenvalues --    0.06179   0.06721   0.07308   0.07589   0.08272
  Beta virt. eigenvalues --    0.08802   0.09055   0.09306   0.10173   0.10296
  Beta virt. eigenvalues --    0.10853   0.11411   0.11452   0.11966   0.12408

 Mulliken charges and spin densities:
               1          2
     1  C    1.619432  -2.261612
     2  C   -4.121066   4.258470
     3  C    0.661231  -1.232151
     4  C    0.027296  -0.256040
     5  C    1.715985  -1.648925
     6  C    2.897091  -2.079180
     7  C   -1.202076   0.841543
     8  N   -0.212260   0.334324
     9  C    0.461593  -1.008353
    10  C   -0.439005   0.003384
    11  N   -0.039678   0.046502
    12  C    0.050965  -0.741427
    13  C   -0.456542   0.223981
    14  O   -0.281488  -0.002484
    15  O   -0.116147   0.029780
    16  C    0.153055  -0.422732
    17  H   -0.268134   0.406641
    18  H   -0.372826   0.532384
    19  H   -0.468983   0.640357
    20  H    0.070300   0.142056
    21  H   -0.146142   0.308564
    22  H    0.118445   0.014925
    23  H   -0.229486   0.372715
    24  H   -0.427233   0.737583
    25  H   -0.322636   0.502832
    26  H   -0.320907   0.466096
    27  H   -0.014829   0.203111
    28  H    0.169834  -0.024946
    29  H    0.187574   0.032667
    30  H    0.164141   0.033586
    31  H    0.180749   0.022156
    32  H    0.076323   0.098785
    33  H    0.065507   0.103740
    34  H   -0.180083   0.321670
 Sum of Mulliken charges =  -1.00000   1.00000

 Dipole moment (field-independent basis, Debye):
    X=             -0.6630    Y=             -6.3676    Z=              0.6401  Tot=              6.4340
 Quadrupole moment (field-independent basis, Debye-Ang):
   XX=           -160.3212   YY=           -168.9154   ZZ=           -123.2317
   XY=             -5.7534   XZ=             -0.3932   YZ=              3.7006

 Summary of Natural Population Analysis:

                                       Natural Population
                Natural  -----------------------------------------------
    Atom  No    Charge         Core      Valence    Rydberg      Total
 -----------------------------------------------------------------------
      C    1   -0.28623      0.99966     2.28030    0.00628     3.28623
      C    2   -0.13245      0.99957     2.12306    0.00981     3.13245
      C    3   -0.27692      0.99964     2.27175    0.00553     3.27692
      C    4    0.12420      0.99951     1.86254    0.01375     2.87580
      C    5   -0.12107      0.99937     2.11154    0.01016     3.12107
      C    6   -0.04104      0.99942     2.03176    0.00986     3.04104
      C    7    0.06673      0.99944     1.92090    0.01292     2.93327
      N    8   -0.25798      0.99962     2.74901    0.00935     3.75798
      C    9   -0.21130      0.99960     2.20222    0.00948     3.21130
      C   10   -0.08386      0.99964     2.07219    0.01203     3.08386
      N   11   -0.33551      0.99977     2.82443    0.01131     3.83551
      C   12   -0.09084      0.99959     2.08109    0.01016     3.09084
      C   13    0.39984      0.99960     1.57752    0.02305     2.60016
      O   14   -0.32004      0.99988     3.31489    0.00527     4.32004
      O   15   -0.28292      0.99987     3.27491    0.00814     4.28292
      C   16   -0.10321      0.99960     2.09537    0.00824     3.10321
      H   17    0.09750      0.00000     0.40013    0.00237     0.40250
      H   18    0.10288      0.00000     0.39568    0.00144     0.39712
      H   19    0.10388      0.00000     0.39478    0.00134     0.39612
      H   20    0.11126      0.00000     0.38644    0.00230     0.38874
      H   21    0.09716      0.00000     0.40175    0.00109     0.40284
      H   22    0.10353      0.00000     0.39526    0.00121     0.39647
      H   23    0.09795      0.00000     0.40103    0.00103     0.40205
      H   24    0.20996      0.00000     0.28268    0.00737     0.29004
      H   25    0.10126      0.00000     0.39673    0.00202     0.39874
      H   26    0.10679      0.00000     0.39139    0.00182     0.39321
      H   27    0.09315      0.00000     0.40587    0.00098     0.40685
      H   28    0.08972      0.00000     0.40915    0.00113     0.41028
      H   29    0.16802      0.00000     0.32965    0.00233     0.33198
      H   30    0.09502      0.00000     0.40365    0.00133     0.40498
      H   31    0.10578      0.00000     0.39293    0.00130     0.39422
      H   32    0.08928      0.00000     0.40931    0.00141     0.41072
      H   33    0.08889      0.00000     0.40971    0.00140     0.41111
      H   34    0.09059      0.00000     0.40819    0.00122     0.40941
 =======================================================================
   * Total *   -0.00000     15.99377    43.80780    0.19843    60.00000

 Normal termination of Gaussian 16 at Thu Dec 10 23:00:46 2020.
