 Gaussian 16, Revision A.03,

 -----------------------------------------------------------
 # opt freq B3LYP/6-31G(d) empiricaldispersion=gd3bj scf=xqc
 -----------------------------------------------------------

 ------------------------------
 CID_68734497_JID_7876_neutraal
 ------------------------------
 Symbolic Z-matrix:
 Charge =  0 Multiplicity = 1

 SCF Done:  E(RB3LYP) =  -711.814385519     A.U. after   16 cycles
 SCF Done:  E(RB3LYP) =  -711.834377228     A.U. after   13 cycles
 SCF Done:  E(RB3LYP) =  -711.835948533     A.U. after   13 cycles
 SCF Done:  E(RB3LYP) =  -711.833012225     A.U. after   14 cycles
 SCF Done:  E(RB3LYP) =  -711.835700993     A.U. after   13 cycles
 SCF Done:  E(RB3LYP) =  -711.836358157     A.U. after    9 cycles
 SCF Done:  E(RB3LYP) =  -711.836659020     A.U. after   13 cycles
 SCF Done:  E(RB3LYP) =  -711.834908496     A.U. after   15 cycles
 SCF Done:  E(RB3LYP) =  -711.836798244     A.U. after   11 cycles
 SCF Done:  E(RB3LYP) =  -711.836831544     A.U. after   11 cycles
 SCF Done:  E(RB3LYP) =  -711.836904866     A.U. after   11 cycles
 SCF Done:  E(RB3LYP) =  -711.836905445     A.U. after   12 cycles
 SCF Done:  E(RB3LYP) =  -711.836906032     A.U. after   10 cycles
 SCF Done:  E(RB3LYP) =  -711.836906006     A.U. after    8 cycles
 Optimization completed.
    -- Stationary point found.
 Normal termination of Gaussian 16 at Fri Dec 11 13:44:12 2020.

 --------------------------------------------------------------------
 #N Geom=AllCheck Guess=TCheck SCRF=Check GenChk RB3LYP/6-31G(d) Freq
 --------------------------------------------------------------------

 Structure from the checkpoint file:  "JID_7876.chk"
 ------------------------------
 CID_68734497_JID_7876_neutraal
 ------------------------------
 Charge =  0 Multiplicity = 1

 SCF Done:  E(RB3LYP) =  -711.836906005     A.U. after    1 cycles

  Exact polarizability: 210.763 -13.095 137.476  -1.128 -13.947 132.064
 Approx polarizability: 266.320 -19.958 227.468  -0.441 -33.328 216.008

                      1                      2                      3
                      A                      A                      A
 Frequencies --     13.9855                28.5638                41.8046
 Red. masses --      1.0108                 4.1273                 5.0012
 Frc consts  --      0.0001                 0.0020                 0.0051
 IR Inten    --      0.0022                 0.1623                 1.5334

                      4                      5                      6
                      A                      A                      A
 Frequencies --     57.8621                70.1432                88.3582
 Red. masses --      4.1002                 4.3278                 4.1161
 Frc consts  --      0.0081                 0.0125                 0.0189
 IR Inten    --      0.4654                 0.1652                 1.2543

                      7                      8                      9
                      A                      A                      A
 Frequencies --    114.6087               187.1640               202.9527
 Red. masses --      3.9566                 3.5370                 4.0249
 Frc consts  --      0.0306                 0.0730                 0.0977
 IR Inten    --      0.6376                 5.1311                 5.4380

                     10                     11                     12
                      A                      A                      A
 Frequencies --    226.7005               283.1280               302.7604
 Red. masses --      4.8386                 3.5152                 3.5769
 Frc consts  --      0.1465                 0.1660                 0.1932
 IR Inten    --      3.6387                 1.9695                 2.2500

                     13                     14                     15
                      A                      A                      A
 Frequencies --    311.3183               332.8063               368.8446
 Red. masses --      3.5519                 2.6544                 6.7302
 Frc consts  --      0.2028                 0.1732                 0.5395
 IR Inten    --      0.4901                 4.1675                 9.8544

                     16                     17                     18
                      A                      A                      A
 Frequencies --    406.2853               415.1839               423.9708
 Red. masses --      2.2372                 3.8642                 2.6310
 Frc consts  --      0.2176                 0.3925                 0.2786
 IR Inten    --      2.0301                 4.5159                 0.9595

                     19                     20                     21
                      A                      A                      A
 Frequencies --    451.0485               481.5360               557.2565
 Red. masses --      2.9437                 3.7064                 4.5705
 Frc consts  --      0.3528                 0.5064                 0.8362
 IR Inten    --      0.5727                 5.9633                 1.6770

                     22                     23                     24
                      A                      A                      A
 Frequencies --    569.0959               609.2476               634.7369
 Red. masses --      4.7148                 2.8573                 6.3146
 Frc consts  --      0.8997                 0.6249                 1.4989
 IR Inten    --      1.7004                 3.0364                 0.2401

                     25                     26                     27
                      A                      A                      A
 Frequencies --    654.9922               702.5206               720.4367
 Red. masses --      4.2598                 4.5882                 1.5754
 Frc consts  --      1.0767                 1.3342                 0.4817
 IR Inten    --     11.9163                 2.0923                44.3827

                     28                     29                     30
                      A                      A                      A
 Frequencies --    739.9428               780.6056               804.0880
 Red. masses --      4.4501                 2.7574                 2.7443
 Frc consts  --      1.4355                 0.9900                 1.0454
 IR Inten    --     13.8490                 3.2677                12.0267

                     31                     32                     33
                      A                      A                      A
 Frequencies --    827.7886               848.6074               867.5188
 Red. masses --      1.5848                 3.3017                 1.2516
 Frc consts  --      0.6398                 1.4009                 0.5550
 IR Inten    --      2.0094                 2.3261                 1.8736

                     34                     35                     36
                      A                      A                      A
 Frequencies --    900.6629               935.6394               943.7337
 Red. masses --      2.8301                 2.6384                 1.4493
 Frc consts  --      1.3526                 1.3608                 0.7605
 IR Inten    --      3.4053                 0.7191                 3.8591

                     37                     38                     39
                      A                      A                      A
 Frequencies --    975.3082               998.7271              1022.0707
 Red. masses --      1.3487                 1.2604                 2.6250
 Frc consts  --      0.7559                 0.7407                 1.6156
 IR Inten    --      2.7393                 0.8895                40.5293

                     40                     41                     42
                      A                      A                      A
 Frequencies --   1022.9678              1029.4897              1045.0248
 Red. masses --      3.9702                 1.7325                 2.2637
 Frc consts  --      2.4479                 1.0819                 1.4565
 IR Inten    --      2.9696                 9.0947                23.0391

                     43                     44                     45
                      A                      A                      A
 Frequencies --   1059.8857              1070.6014              1071.1838
 Red. masses --      2.1496                 1.3938                 1.3924
 Frc consts  --      1.4227                 0.9412                 0.9413
 IR Inten    --      3.7757                 2.0523                 0.9274

                     46                     47                     48
                      A                      A                      A
 Frequencies --   1086.1324              1111.2988              1112.7568
 Red. masses --      2.2626                 1.7493                 1.5651
 Frc consts  --      1.5726                 1.2728                 1.1418
 IR Inten    --     20.1248                 3.3985                 5.6865

                     49                     50                     51
                      A                      A                      A
 Frequencies --   1159.2926              1162.6518              1185.8865
 Red. masses --      2.2557                 2.3309                 2.2247
 Frc consts  --      1.7862                 1.8564                 1.8433
 IR Inten    --      5.9343                28.5105                 4.8058

                     52                     53                     54
                      A                      A                      A
 Frequencies --   1194.4714              1211.3588              1224.9506
 Red. masses --      1.1017                 1.1352                 1.1145
 Frc consts  --      0.9261                 0.9815                 0.9853
 IR Inten    --      0.0314                 9.1686                 0.7445

                     55                     56                     57
                      A                      A                      A
 Frequencies --   1261.9886              1280.2973              1311.2904
 Red. masses --      1.6324                 1.8804                 1.8383
 Frc consts  --      1.5317                 1.8160                 1.8624
 IR Inten    --     50.6350                 7.3188               187.8700

                     58                     59                     60
                      A                      A                      A
 Frequencies --   1335.2589              1347.9652              1364.5777
 Red. masses --      1.3501                 2.0248                 1.7759
 Frc consts  --      1.4183                 2.1677                 1.9483
 IR Inten    --      9.9720                 1.3972                37.0919

                     61                     62                     63
                      A                      A                      A
 Frequencies --   1366.1604              1371.0709              1400.2022
 Red. masses --      2.4967                 1.3034                 1.4180
 Frc consts  --      2.7454                 1.4436                 1.6380
 IR Inten    --      1.1312                 0.1111                 2.1967

                     64                     65                     66
                      A                      A                      A
 Frequencies --   1403.3672              1432.8418              1444.8499
 Red. masses --      1.3771                 1.4266                 1.2411
 Frc consts  --      1.5979                 1.7256                 1.5265
 IR Inten    --     11.7977                12.2114                11.2618

                     67                     68                     69
                      A                      A                      A
 Frequencies --   1464.5944              1494.3733              1501.1227
 Red. masses --      2.8709                 2.2241                 1.0952
 Frc consts  --      3.6283                 2.9263                 1.4540
 IR Inten    --    252.2746                14.4010                 1.9330

                     70                     71                     72
                      A                      A                      A
 Frequencies --   1509.0307              1509.2617              1513.7425
 Red. masses --      1.0405                 1.0404                 1.0917
 Frc consts  --      1.3960                 1.3964                 1.4738
 IR Inten    --      5.9501                 5.6747                 7.4816

                     73                     74                     75
                      A                      A                      A
 Frequencies --   1525.3437              1536.2557              1544.5625
 Red. masses --      1.0814                 1.1445                 2.1232
 Frc consts  --      1.4824                 1.5914                 2.9843
 IR Inten    --      8.4551                 8.1254                 3.6582

                     76                     77                     78
                      A                      A                      A
 Frequencies --   1641.1441              1664.6909              1736.2623
 Red. masses --      5.5984                 5.5914                11.4499
 Frc consts  --      8.8841                 9.1294                20.3368
 IR Inten    --      5.0486                 3.7513               284.6257

                     79                     80                     81
                      A                      A                      A
 Frequencies --   2369.0681              3020.7832              3030.3148
 Red. masses --     11.8344                 1.0739                 1.0738
 Frc consts  --     39.1339                 5.7739                 5.8099
 IR Inten    --      1.5738                24.8545                31.6572

                     82                     83                     84
                      A                      A                      A
 Frequencies --   3033.2188              3039.1690              3052.3289
 Red. masses --      1.0803                 1.0346                 1.0625
 Frc consts  --      5.8561                 5.6305                 5.8321
 IR Inten    --     22.8311                37.2503                19.2827

                     85                     86                     87
                      A                      A                      A
 Frequencies --   3060.1180              3099.9788              3100.3237
 Red. masses --      1.0639                 1.1015                 1.1015
 Frc consts  --      5.8696                 6.2369                 6.2382
 IR Inten    --     62.3049                11.9447                12.4764

                     88                     89                     90
                      A                      A                      A
 Frequencies --   3105.3448              3107.5486              3167.7153
 Red. masses --      1.1022                 1.1034                 1.0914
 Frc consts  --      6.2624                 6.2782                 6.4523
 IR Inten    --     32.3719                44.2197                 3.4828

                     91                     92                     93
                      A                      A                      A
 Frequencies --   3170.9122              3183.9264              3192.7420
 Red. masses --      1.0897                 1.0850                 1.0881
 Frc consts  --      6.4555                 6.4803                 6.5349
 IR Inten    --     12.7981                 0.6035                 5.2322

                     94                     95                     96
                      A                      A                      A
 Frequencies --   3201.6731              3210.6454              3221.2682
 Red. masses --      1.0922                 1.0961                 1.0945
 Frc consts  --      6.5963                 6.6569                 6.6912
 IR Inten    --     28.7470                23.1059                 8.4138

 - Thermochemistry -
 -------------------
 Temperature   298.150 Kelvin.  Pressure   1.00000 Atm.
 Atom     1 has atomic number  6 and mass  12.00000

 Molecular mass:   227.13101 amu.
 Principal axes and moments of inertia in atomic units:
                           1         2         3
     Eigenvalues --  1782.504888057.308308375.80334
           X            0.99997  -0.00525   0.00510
           Y            0.00539   0.99960  -0.02775
           Z           -0.00495   0.02777   0.99960
 This molecule is an asymmetric top.
 Rotational symmetry number  1.
 Warning -- assumption of classical behavior for rotation
           may cause significant error
 Rotational temperatures (Kelvin)      0.04859     0.01075     0.01034
 Rotational constants (GHZ):           1.01247     0.22399     0.21547
 Zero-point vibrational energy     759492.9 (Joules/Mol)
                                  181.52315 (Kcal/Mol)
 Warning -- explicit consideration of  23 degrees of freedom as
           vibrations may cause significant error
 Vibrational temperatures:     20.12    41.10    60.15    83.25   100.92
          (Kelvin)            127.13   164.90   269.29   292.00   326.17
                              407.36   435.60   447.92   478.83   530.69
                              584.55   597.36   610.00   648.96   692.82
                              801.77   818.80   876.57   913.24   942.39
                             1010.77  1036.55  1064.61  1123.12  1156.90
                             1191.00  1220.96  1248.17  1295.85  1346.18
                             1357.82  1403.25  1436.95  1470.53  1471.82
                             1481.21  1503.56  1524.94  1540.36  1541.19
                             1562.70  1598.91  1601.01  1667.96  1672.80
                             1706.23  1718.58  1742.88  1762.43  1815.72
                             1842.06  1886.65  1921.14  1939.42  1963.32
                             1965.60  1972.67  2014.58  2019.13  2061.54
                             2078.82  2107.22  2150.07  2159.78  2171.16
                             2171.49  2177.94  2194.63  2210.33  2222.28
                             2361.24  2395.12  2498.09  3408.56  4346.23
                             4359.95  4364.13  4372.69  4391.62  4402.83
                             4460.18  4460.67  4467.90  4471.07  4557.64
                             4562.24  4580.96  4593.64  4606.49  4619.40
                             4634.69

 Zero-point correction=                           0.289276 (Hartree/Particle)
 Thermal correction to Energy=                    0.305101
 Thermal correction to Enthalpy=                  0.306045
 Thermal correction to Gibbs Free Energy=         0.243146
 Sum of electronic and zero-point Energies=           -711.547630
 Sum of electronic and thermal Energies=              -711.531805
 Sum of electronic and thermal Enthalpies=            -711.530861
 Sum of electronic and thermal Free Energies=         -711.593760

                     E (Thermal)             CV                S
                      KCal/Mol        Cal/Mol-Kelvin    Cal/Mol-Kelvin
 Total                  191.454             59.756            132.382
 Electronic               0.000              0.000              0.000
 Translational            0.889              2.981             42.163
 Rotational               0.889              2.981             33.153
 Vibrational            189.676             53.795             57.066
 Vibration     1          0.593              1.986              7.345
 Vibration     2          0.593              1.984              5.927
 Vibration     3          0.594              1.980              5.172
 Vibration     4          0.596              1.974              4.529
 Vibration     5          0.598              1.968              4.149
 Vibration     6          0.601              1.957              3.696
 Vibration     7          0.608              1.937              3.189
 Vibration     8          0.632              1.857              2.256
 Vibration     9          0.639              1.836              2.106
 Vibration    10          0.650              1.800              1.905
 Vibration    11          0.682              1.705              1.515
 Vibration    12          0.694              1.668              1.402
 Vibration    13          0.700              1.652              1.355
 Vibration    14          0.715              1.610              1.246
 Vibration    15          0.741              1.536              1.085
 Vibration    16          0.771              1.457              0.940
 Vibration    17          0.779              1.437              0.908
 Vibration    18          0.786              1.418              0.879
 Vibration    19          0.810              1.359              0.793
 Vibration    20          0.838              1.291              0.706
 Vibration    21          0.913              1.124              0.529
 Vibration    22          0.925              1.098              0.506
 Vibration    23          0.968              1.012              0.434

 Optimization completed.
    -- Stationary point found.
 Normal termination of Gaussian 16 at Fri Dec 11 13:57:12 2020.

 ----------------------------------------------------------------------
 # B3LYP/6-311++G(d,p) empiricaldispersion=gd3bj scf=xqc pop=npa geom=c
 heck
 ----------------------------------------------------------------------

 --------------------------------------
 CID_68734497_JID_7876_Energie_neutraal
 --------------------------------------
 Structure from the checkpoint file:  "JID_7876.chk"
 Charge =  0 Multiplicity = 1

 SCF Done:  E(RB3LYP) =  -712.028067087     A.U. after   16 cycles
 Normal termination of Gaussian 16 at Fri Dec 11 14:03:52 2020.

 ----------------------------------------------------------------------
 # B3LYP/6-311++G(d,p) empiricaldispersion=gd3bj scf=xqc pop=npa geom=c
 heck
 ----------------------------------------------------------------------

 ------------------------------------
 CID_68734497_JID_7876_Energie_kation
 ------------------------------------
 Structure from the checkpoint file:  "JID_7876.chk"
 Charge =  1 Multiplicity = 2

 SCF Done:  E(UB3LYP) =  -711.725977328     A.U. after   33 cycles
 SCF Done:  E(UB3LYP) =  -711.725977324     a.u. after    2 cycles
 Normal termination of Gaussian 16 at Fri Dec 11 14:41:17 2020.
 Gaussian 16:  ES64L-G16RevA.03 25-Dec-2016

 ----------------------------------------------------------------------
 # B3LYP/6-311++G(d,p) empiricaldispersion=gd3bj scf=xqc pop=npa geom=c
 heck
 ----------------------------------------------------------------------

 -----------------------------------
 CID_68734497_JID_7876_Energie_anion
 -----------------------------------
 Structure from the checkpoint file:  "JID_7876.chk"
 Charge = -1 Multiplicity = 2

                         Standard orientation:
 ---------------------------------------------------------------------
 Center     Atomic      Atomic             Coordinates (Angstroms)
 Number     Number       Type             X           Y           Z
 ---------------------------------------------------------------------
      1          6           0        5.281923    0.420572    1.959166
      2          6           0        4.343823    0.490213    0.842075
      3          6           0        3.576583    0.551725   -0.091204
      4          6           0        2.616519    0.605469   -1.199668
      5          6           0        2.173330   -0.815846   -1.625071
      6          6           0        1.318254   -1.484564   -0.547119
      7          7           0        0.171234   -0.634666   -0.224953
      8          6           0        0.537971    0.701712    0.246332
      9          6           0        1.366423    1.432643   -0.810988
     10          6           0       -1.056677   -1.228547   -0.049471
     11          8           0       -1.205726   -2.448871   -0.077740
     12          6           0       -2.254000   -0.335676    0.120423
     13          6           0       -3.227841   -0.712406    1.052174
     14          6           0       -4.389944    0.041305    1.198560
     15          6           0       -4.603510    1.162500    0.393390
     16          6           0       -3.651052    1.525227   -0.560098
     17          6           0       -2.478935    0.781742   -0.693473
     18          1           0        6.262054    0.052240    1.632991
     19          1           0        4.918265   -0.254832    2.742926
     20          1           0        5.433062    1.406627    2.414822
     21          1           0        3.100927    1.090387   -2.057793
     22          1           0        1.587644   -0.737283   -2.549286
     23          1           0        3.052115   -1.434459   -1.835348
     24          1           0        1.921063   -1.651401    0.357269
     25          1           0        0.932432   -2.448690   -0.876216
     26          1           0        1.137633    0.600624    1.163307
     27          1           0       -0.360297    1.261462    0.499990
     28          1           0        1.667860    2.414754   -0.431672
     29          1           0        0.754625    1.589051   -1.708423
     30          1           0       -3.061814   -1.604166    1.647652
     31          1           0       -5.134639   -0.250444    1.933681
     32          1           0       -5.513746    1.745532    0.502010
     33          1           0       -3.822456    2.383816   -1.203285
     34          1           0       -1.744756    1.053992   -1.446201
 ---------------------------------------------------------------------

 SCF Done:  E(UB3LYP) =  -712.021467228     A.U. after   33 cycles
 SCF Done:  E(UB3LYP) =  -712.021467228     a.u. after    1 cycles

 The electronic state is 2-A.
 Alpha  occ. eigenvalues --  -18.96595 -14.22753 -10.14845 -10.10360 -10.10237
 Alpha  occ. eigenvalues --  -10.09422 -10.08943 -10.08026 -10.07743 -10.07189
 Alpha  occ. eigenvalues --  -10.06940 -10.06810 -10.06634 -10.06610 -10.06554
 Alpha  occ. eigenvalues --  -10.06469 -10.06011  -0.92013  -0.83034  -0.75133
 Alpha  occ. eigenvalues --   -0.72669  -0.67476  -0.66832  -0.65007  -0.64285
 Alpha  occ. eigenvalues --   -0.60986  -0.57567  -0.54117  -0.51748  -0.50422
 Alpha  occ. eigenvalues --   -0.48910  -0.45046  -0.42663  -0.39208  -0.38122
 Alpha  occ. eigenvalues --   -0.37290  -0.36177  -0.35924  -0.34603  -0.34427
 Alpha  occ. eigenvalues --   -0.33619  -0.33179  -0.32858  -0.32698  -0.31937
 Alpha  occ. eigenvalues --   -0.30259  -0.29631  -0.28395  -0.26811  -0.26145
 Alpha  occ. eigenvalues --   -0.25389  -0.24901  -0.24343  -0.23920  -0.23499
 Alpha  occ. eigenvalues --   -0.16323  -0.15937  -0.15889  -0.15432  -0.13728
 Alpha  occ. eigenvalues --   -0.13077   0.04146
 Alpha virt. eigenvalues --    0.05729   0.06520   0.07087   0.08153   0.08594
 Alpha virt. eigenvalues --    0.08715   0.09133   0.09420   0.09916   0.10080
 Alpha virt. eigenvalues --    0.11001   0.11468   0.11881   0.12194   0.12809

  Beta  occ. eigenvalues --  -18.96460 -14.22751 -10.14743 -10.10351 -10.10227
  Beta  occ. eigenvalues --  -10.09420 -10.08886 -10.08019 -10.07728 -10.07213
  Beta  occ. eigenvalues --  -10.06933 -10.06734 -10.06632 -10.06555 -10.06430
  Beta  occ. eigenvalues --  -10.06283 -10.06007  -0.91783  -0.82958  -0.74927
  Beta  occ. eigenvalues --   -0.72637  -0.67418  -0.66780  -0.64723  -0.64128
  Beta  occ. eigenvalues --   -0.60914  -0.57466  -0.54059  -0.51512  -0.50327
  Beta  occ. eigenvalues --   -0.48792  -0.44972  -0.42581  -0.39131  -0.38009
  Beta  occ. eigenvalues --   -0.37252  -0.36089  -0.35807  -0.34526  -0.34359
  Beta  occ. eigenvalues --   -0.33565  -0.33077  -0.32789  -0.32612  -0.31902
  Beta  occ. eigenvalues --   -0.30158  -0.29501  -0.28143  -0.26614  -0.26034
  Beta  occ. eigenvalues --   -0.25227  -0.24571  -0.24270  -0.23815  -0.23420
  Beta  occ. eigenvalues --   -0.16231  -0.15878  -0.15478  -0.14911  -0.13363
  Beta  occ. eigenvalues --   -0.12703
  Beta virt. eigenvalues --    0.06295   0.06786   0.07252   0.07782   0.08304
  Beta virt. eigenvalues --    0.08799   0.08819   0.09340   0.09571   0.10213
  Beta virt. eigenvalues --    0.10488   0.11132   0.11474   0.11871   0.12293

 Mulliken charges and spin densities:
               1          2
     1  C    2.144030  -2.532470
     2  C   -1.150375   0.835641
     3  C    0.532142  -0.824818
     4  C   -0.773913   1.812679
     5  C    0.058565  -0.754185
     6  C   -0.203357   0.010368
     7  N    0.077296   0.008105
     8  C   -0.424595  -0.077587
     9  C   -0.055174  -0.602779
    10  C   -0.714005  -0.144050
    11  O   -0.334293   0.045659
    12  C    0.859021   0.107891
    13  C    0.041782   0.126220
    14  C   -0.281608  -0.020982
    15  C   -0.256270   0.077992
    16  C   -0.185750  -0.058903
    17  C   -0.303383   0.138323
    18  H   -0.356274   0.514536
    19  H   -0.230155   0.396681
    20  H   -0.355524   0.515247
    21  H   -0.284102   0.541474
    22  H    0.059844   0.103238
    23  H   -0.043761   0.215640
    24  H    0.131632   0.033951
    25  H    0.196200  -0.009401
    26  H    0.040750   0.159244
    27  H    0.213706  -0.054174
    28  H   -0.027244   0.193147
    29  H    0.100525   0.054034
    30  H    0.172341   0.015728
    31  H    0.123393   0.008613
    32  H    0.108689   0.001426
    33  H    0.062428   0.087489
    34  H    0.057438   0.076025
 Sum of Mulliken charges =  -1.00000   1.00000

 Dipole moment (field-independent basis, Debye):
    X=             -5.3661    Y=              1.4846    Z=             -1.7417  Tot=              5.8337
 Quadrupole moment (field-independent basis, Debye-Ang):
   XX=           -200.5350   YY=           -134.1435   ZZ=           -129.2784
   XY=            -10.8493   XZ=            -14.1797   YZ=             -3.6491

 Summary of Natural Population Analysis:

                                       Natural Population
                Natural  -----------------------------------------------
    Atom  No    Charge         Core      Valence    Rydberg      Total
 -----------------------------------------------------------------------
      C    1   -0.31818      0.99961     2.31260    0.00596     3.31818
      C    2   -0.00216      0.99924     1.99659    0.00634     3.00216
      C    3   -0.02054      0.99926     2.01083    0.01045     3.02054
      C    4   -0.14302      0.99955     2.13265    0.01082     3.14302
      C    5   -0.18431      0.99962     2.17578    0.00892     3.18431
      C    6   -0.09043      0.99961     2.08002    0.01080     3.09043
      N    7   -0.26054      0.99964     2.75135    0.00955     3.76054
      C    8   -0.08743      0.99960     2.07801    0.00981     3.08743
      C    9   -0.18478      0.99961     2.17648    0.00869     3.18478
      C   10    0.35464      0.99959     1.62334    0.02243     2.64536
      O   11   -0.31500      0.99988     3.31029    0.00482     4.31500
      C   12   -0.04010      0.99946     2.03082    0.00982     3.04010
      C   13   -0.07708      0.99953     2.06843    0.00912     3.07708
      C   14   -0.10781      0.99957     2.09962    0.00861     3.10781
      C   15   -0.07370      0.99957     2.06381    0.01032     3.07370
      C   16   -0.11404      0.99957     2.10439    0.01008     3.11404
      C   17   -0.08568      0.99953     2.07808    0.00807     3.08568
      H   18    0.11191      0.00000     0.38634    0.00176     0.38809
      H   19    0.11157      0.00000     0.38684    0.00159     0.38843
      H   20    0.11194      0.00000     0.38629    0.00177     0.38806
      H   21    0.11075      0.00000     0.38739    0.00186     0.38925
      H   22    0.09774      0.00000     0.40108    0.00118     0.40226
      H   23    0.10372      0.00000     0.39543    0.00085     0.39628
      H   24    0.09425      0.00000     0.40456    0.00119     0.40575
      H   25    0.11570      0.00000     0.38320    0.00110     0.38430
      H   26    0.09527      0.00000     0.40351    0.00121     0.40473
      H   27    0.11055      0.00000     0.38838    0.00107     0.38945
      H   28    0.10339      0.00000     0.39575    0.00086     0.39661
      H   29    0.09698      0.00000     0.40170    0.00132     0.40302
      H   30    0.10475      0.00000     0.39420    0.00104     0.39525
      H   31    0.09414      0.00000     0.40493    0.00093     0.40586
      H   32    0.09258      0.00000     0.40656    0.00087     0.40742
      H   33    0.09629      0.00000     0.40285    0.00086     0.40371
      H   34    0.09864      0.00000     0.39959    0.00177     0.40136
 =======================================================================
   * Total *   -0.00000     16.99245    43.82170    0.18586    61.00000

 Normal termination of Gaussian 16 at Fri Dec 11 15:00:56 2020.
