 Gaussian 16, Revision A.03,

 -----------------------------------------------------------
 # opt freq B3LYP/6-31G(d) empiricaldispersion=gd3bj scf=xqc
 -----------------------------------------------------------

 ------------------------------
 CID_13772327_JID_2906_neutraal
 ------------------------------
 Symbolic Z-matrix:
 Charge =  0 Multiplicity = 1

 SCF Done:  E(RB3LYP) =  -904.791588143     A.U. after   16 cycles
 SCF Done:  E(RB3LYP) =  -904.800596154     A.U. after   13 cycles
 SCF Done:  E(RB3LYP) =  -904.802154664     A.U. after   12 cycles
 SCF Done:  E(RB3LYP) =  -904.802508827     A.U. after   11 cycles
 SCF Done:  E(RB3LYP) =  -904.802657986     A.U. after   11 cycles
 SCF Done:  E(RB3LYP) =  -904.802709817     A.U. after   10 cycles
 SCF Done:  E(RB3LYP) =  -904.802726990     A.U. after   10 cycles
 SCF Done:  E(RB3LYP) =  -904.802729086     A.U. after    9 cycles
 SCF Done:  E(RB3LYP) =  -904.802729935     A.U. after    8 cycles
 SCF Done:  E(RB3LYP) =  -904.802730398     A.U. after    8 cycles
 SCF Done:  E(RB3LYP) =  -904.802730660     A.U. after    7 cycles
 SCF Done:  E(RB3LYP) =  -904.802730811     A.U. after    8 cycles
 Optimization completed.
    -- Stationary point found.
 Normal termination of Gaussian 16 at Wed Dec  9 17:55:54 2020.

 --------------------------------------------------------------------
 #N Geom=AllCheck Guess=TCheck SCRF=Check GenChk RB3LYP/6-31G(d) Freq
 --------------------------------------------------------------------

 Structure from the checkpoint file:  "JID_2906.chk"
 ------------------------------
 CID_13772327_JID_2906_neutraal
 ------------------------------
 Charge =  0 Multiplicity = 1

 SCF Done:  E(RB3LYP) =  -904.802730810     A.U. after    1 cycles

  Exact polarizability: 186.995  -5.441 106.854  -0.173  -0.140  52.732
 Approx polarizability: 291.586 -10.036 205.833  -3.080   0.172  83.417

                      1                      2                      3
                      A                      A                      A
 Frequencies --     70.4539                90.8692               111.7590
 Red. masses --      3.1193                 2.5029                 1.6193
 Frc consts  --      0.0091                 0.0122                 0.0119
 IR Inten    --      1.5672                 0.1571                 0.7557

                      4                      5                      6
                      A                      A                      A
 Frequencies --    169.4280               183.2223               195.4188
 Red. masses --      4.2231                 3.1241                 5.1248
 Frc consts  --      0.0714                 0.0618                 0.1153
 IR Inten    --      2.9126                 1.4500                 6.1221

                      7                      8                      9
                      A                      A                      A
 Frequencies --    207.8484               332.3024               340.2518
 Red. masses --      1.1764                 6.4831                 3.8711
 Frc consts  --      0.0299                 0.4218                 0.2641
 IR Inten    --     59.9401                 1.6967                 7.1369

                     10                     11                     12
                      A                      A                      A
 Frequencies --    375.3612               452.7841               454.7569
 Red. masses --      5.0384                10.2671                11.4237
 Frc consts  --      0.4183                 1.2402                 1.3919
 IR Inten    --     12.1560                 3.3840                12.5187

                     13                     14                     15
                      A                      A                      A
 Frequencies --    511.7582               535.4106               578.9945
 Red. masses --     11.1759                 4.6473                 4.2362
 Frc consts  --      1.7245                 0.7849                 0.8367
 IR Inten    --      0.9715                13.5198                 1.5378

                     16                     17                     18
                      A                      A                      A
 Frequencies --    635.7056               642.0539               714.9235
 Red. masses --      9.1798                 8.9219                 9.0108
 Frc consts  --      2.1857                 2.1670                 2.7135
 IR Inten    --      8.9974                 1.0959                10.0010

                     19                     20                     21
                      A                      A                      A
 Frequencies --    740.8954               790.9463               863.4615
 Red. masses --      9.4864                10.0953                 1.2287
 Frc consts  --      3.0681                 3.7210                 0.5397
 IR Inten    --      0.8867                 1.0982                16.5601

                     22                     23                     24
                      A                      A                      A
 Frequencies --    900.6167               962.5173               964.6087
 Red. masses --      7.4231                 1.3985                 4.5078
 Frc consts  --      3.5475                 0.7634                 2.4712
 IR Inten    --      7.8718                 0.2086                23.0038

                     25                     26                     27
                      A                      A                      A
 Frequencies --   1042.8815              1083.9501              1129.2428
 Red. masses --      1.9942                 3.2260                 2.6807
 Frc consts  --      1.2779                 2.2332                 2.0141
 IR Inten    --     58.9994                17.1656                80.1230

                     28                     29                     30
                      A                      A                      A
 Frequencies --   1144.9694              1156.0427              1234.0392
 Red. masses --      1.9394                 1.3104                 3.8780
 Frc consts  --      1.4980                 1.0318                 3.4795
 IR Inten    --     73.3367                24.7456                62.3990

                     31                     32                     33
                      A                      A                      A
 Frequencies --   1287.5233              1329.9727              1352.6571
 Red. masses --      2.9027                 3.6212                 2.2893
 Frc consts  --      2.8351                 3.7739                 2.4679
 IR Inten    --      1.1930                 7.1924                17.7374

                     34                     35                     36
                      A                      A                      A
 Frequencies --   1369.6858              1380.4523              1407.3226
 Red. masses --      1.2237                 3.1983                 5.6646
 Frc consts  --      1.3526                 3.5910                 6.6101
 IR Inten    --      3.5299               132.2773               139.2840

                     37                     38                     39
                      A                      A                      A
 Frequencies --   1467.4106              1507.7078              1516.2147
 Red. masses --      1.2831                 2.4298                 1.0789
 Frc consts  --      1.6279                 3.2543                 1.4613
 IR Inten    --     61.4486                20.2763                72.7948

                     40                     41                     42
                      A                      A                      A
 Frequencies --   1529.3178              1556.0541              1597.9809
 Red. masses --      1.1338                 4.2521                 5.6726
 Frc consts  --      1.5623                 6.0660                 8.5345
 IR Inten    --     13.8068               313.6449                 8.2560

                     43                     44                     45
                      A                      A                      A
 Frequencies --   1636.5664              1736.2016              3034.2574
 Red. masses --      8.4861                 1.0852                 1.0464
 Frc consts  --     13.3914                 1.9273                 5.6761
 IR Inten    --    304.0431                54.2791                50.8450

                     46                     47                     48
                      A                      A                      A
 Frequencies --   3110.4067              3182.0517              3183.7015
 Red. masses --      1.0943                 1.0996                 1.0885
 Frc consts  --      6.2377                 6.5601                 6.5006
 IR Inten    --     17.0669                 6.2140                13.6290

                     49                     50                     51
                      A                      A                      A
 Frequencies --   3207.7470              3423.5731              3502.3489
 Red. masses --      1.0954                 1.0501                 1.0916
 Frc consts  --      6.6411                 7.2520                 7.8892
 IR Inten    --     39.4707                 4.3623                 2.3141

 - Thermochemistry -
 -------------------
 Temperature   298.150 Kelvin.  Pressure   1.00000 Atm.
 Atom     1 has atomic number  6 and mass  12.00000

 Molecular mass:   181.04222 amu.
 Principal axes and moments of inertia in atomic units:
                           1         2         3
     Eigenvalues --   843.810703206.253744025.98031
           X            0.99999  -0.00518   0.00127
           Y            0.00518   0.99999  -0.00107
           Z           -0.00127   0.00107   1.00000
 This molecule is an asymmetric top.
 Rotational symmetry number  1.
 Warning -- assumption of classical behavior for rotation
           may cause significant error
 Rotational temperatures (Kelvin)      0.10265     0.02701     0.02151
 Rotational constants (GHZ):           2.13880     0.56288     0.44827
 Zero-point vibrational energy     370463.3 (Joules/Mol)
                                   88.54285 (Kcal/Mol)
 Warning -- explicit consideration of  15 degrees of freedom as
           vibrations may cause significant error
 Vibrational temperatures:    101.37   130.74   160.80   243.77   263.62
          (Kelvin)            281.16   299.05   478.11   489.55   540.06
                              651.46   654.29   736.31   770.34   833.04
                              914.64   923.77  1028.62  1065.98  1138.00
                             1242.33  1295.79  1384.85  1387.86  1500.47
                             1559.56  1624.73  1647.36  1663.29  1775.51
                             1852.46  1913.53  1946.17  1970.67  1986.16
                             2024.82  2111.28  2169.26  2181.49  2200.35
                             2238.81  2299.14  2354.65  2498.01  4365.62
                             4475.18  4578.26  4580.64  4615.23  4925.76
                             5039.10

 Zero-point correction=                           0.141102 (Hartree/Particle)
 Thermal correction to Energy=                    0.151688
 Thermal correction to Enthalpy=                  0.152632
 Thermal correction to Gibbs Free Energy=         0.104345
 Sum of electronic and zero-point Energies=           -904.661629
 Sum of electronic and thermal Energies=              -904.651043
 Sum of electronic and thermal Enthalpies=            -904.650099
 Sum of electronic and thermal Free Energies=         -904.698386

                     E (Thermal)             CV                S
                      KCal/Mol        Cal/Mol-Kelvin    Cal/Mol-Kelvin
 Total                   95.186             38.938            101.629
 Electronic               0.000              0.000              0.000
 Translational            0.889              2.981             41.487
 Rotational               0.889              2.981             30.766
 Vibrational             93.408             32.977             29.375
 Vibration     1          0.598              1.968              4.141
 Vibration     2          0.602              1.956              3.641
 Vibration     3          0.607              1.940              3.238
 Vibration     4          0.625              1.880              2.442
 Vibration     5          0.631              1.863              2.295
 Vibration     6          0.636              1.846              2.176
 Vibration     7          0.641              1.829              2.062
 Vibration     8          0.714              1.611              1.249
 Vibration     9          0.720              1.595              1.211
 Vibration    10          0.746              1.523              1.058
 Vibration    11          0.811              1.355              0.787
 Vibration    12          0.813              1.350              0.782
 Vibration    13          0.867              1.224              0.629
 Vibration    14          0.890              1.172              0.575
 Vibration    15          0.936              1.077              0.487

                           ! Non-Optimized Parameters !
 Normal termination of Gaussian 16 at Wed Dec  9 17:59:44 2020.

 ----------------------------------------------------------------------
 # B3LYP/6-311++G(d,p) empiricaldispersion=gd3bj scf=xqc pop=npa geom=c
 heck
 ----------------------------------------------------------------------

 --------------------------------------
 CID_13772327_JID_2906_Energie_neutraal
 --------------------------------------
 Structure from the checkpoint file:  "JID_2906.chk"
 Charge =  0 Multiplicity = 1

 SCF Done:  E(RB3LYP) =  -904.967354187     A.U. after   15 cycles
 Normal termination of Gaussian 16 at Wed Dec  9 18:01:31 2020.

 ----------------------------------------------------------------------
 # B3LYP/6-311++G(d,p) empiricaldispersion=gd3bj scf=xqc pop=npa geom=c
 heck
 ----------------------------------------------------------------------

 ------------------------------------
 CID_13772327_JID_2906_Energie_kation
 ------------------------------------
 Structure from the checkpoint file:  "JID_2906.chk"
 Charge =  1 Multiplicity = 2

 SCF Done:  E(UB3LYP) =  -904.668390507     A.U. after   23 cycles
 Normal termination of Gaussian 16 at Wed Dec  9 18:05:23 2020.
 Gaussian 16:  ES64L-G16RevA.03 25-Dec-2016

 ----------------------------------------------------------------------
 # B3LYP/6-311++G(d,p) empiricaldispersion=gd3bj scf=xqc pop=npa geom=c
 heck
 ----------------------------------------------------------------------

 -----------------------------------
 CID_13772327_JID_2906_Energie_anion
 -----------------------------------
 Structure from the checkpoint file:  "JID_2906.chk"
 Charge = -1 Multiplicity = 2

                         Standard orientation:
 ---------------------------------------------------------------------
 Center     Atomic      Atomic             Coordinates (Angstroms)
 Number     Number       Type             X           Y           Z
 ---------------------------------------------------------------------
      1          6           0        3.413847   -0.842979    0.099504
      2          7           0        2.497696    0.264749   -0.108434
      3          6           0        1.150050    0.133571   -0.055722
      4          7           0        0.340885    1.161167   -0.032213
      5          6           0       -0.967583    0.737621   -0.011429
      6          7           0       -2.013035    1.564890    0.009049
      7          6           0       -3.215436    0.971515    0.030252
      8          6           0       -3.387156   -0.414853    0.030832
      9          7           0       -2.341852   -1.263122    0.010752
     10          6           0       -1.165103   -0.675109   -0.009462
     11         16           0        0.402957   -1.498762   -0.031807
     12          7           0        3.050540    1.559967    0.037103
     13          1           0        3.091792   -1.710273   -0.485203
     14          1           0        3.483056   -1.131452    1.157579
     15          1           0        4.395920   -0.524660   -0.248841
     16          1           0       -4.081078    1.629824    0.047322
     17          1           0       -4.378424   -0.858845    0.047933
     18          1           0        2.736326    2.103872   -0.767987
     19          1           0        2.593735    1.999570    0.840462
 ---------------------------------------------------------------------

 SCF Done:  E(UB3LYP) =  -904.970069100     A.U. after   30 cycles

 The electronic state is 2-A.
 Alpha  occ. eigenvalues --  -88.74630 -14.25208 -14.22887 -14.16823 -14.15653
 Alpha  occ. eigenvalues --  -14.14396 -10.13426 -10.09704 -10.08788 -10.08271
 Alpha  occ. eigenvalues --  -10.05599 -10.05134  -7.83262  -5.79546  -5.79256
 Alpha  occ. eigenvalues --   -5.78775  -0.90470  -0.84253  -0.79515  -0.75519
 Alpha  occ. eigenvalues --   -0.71431  -0.64995  -0.61950  -0.57649  -0.50126
 Alpha  occ. eigenvalues --   -0.48842  -0.45359  -0.40647  -0.40572  -0.38470
 Alpha  occ. eigenvalues --   -0.35074  -0.33644  -0.32791  -0.31642  -0.30342
 Alpha  occ. eigenvalues --   -0.29698  -0.26789  -0.24645  -0.24287  -0.20115
 Alpha  occ. eigenvalues --   -0.17905  -0.16599  -0.16327  -0.14917  -0.13008
 Alpha  occ. eigenvalues --   -0.09642  -0.08673   0.04909
 Alpha virt. eigenvalues --    0.07031   0.09362   0.09607   0.10113   0.11170
 Alpha virt. eigenvalues --    0.11552   0.11844   0.12540   0.12920   0.13532
 Alpha virt. eigenvalues --    0.15547   0.15748   0.16258   0.16356   0.17893

  Beta  occ. eigenvalues --  -88.74641 -14.25153 -14.22872 -14.16886 -14.15106
  Beta  occ. eigenvalues --  -14.13817 -10.13194 -10.09670 -10.08809 -10.08176
  Beta  occ. eigenvalues --  -10.05609 -10.05041  -7.83271  -5.79559  -5.79266
  Beta  occ. eigenvalues --   -5.78797  -0.90325  -0.83813  -0.79094  -0.74657
  Beta  occ. eigenvalues --   -0.71321  -0.64885  -0.61706  -0.57406  -0.49661
  Beta  occ. eigenvalues --   -0.48669  -0.45084  -0.40498  -0.40436  -0.38293
  Beta  occ. eigenvalues --   -0.34862  -0.33515  -0.32652  -0.31471  -0.29672
  Beta  occ. eigenvalues --   -0.29417  -0.26669  -0.24181  -0.23476  -0.18515
  Beta  occ. eigenvalues --   -0.17854  -0.16310  -0.15634  -0.14454  -0.12057
  Beta  occ. eigenvalues --   -0.09083  -0.07805
  Beta virt. eigenvalues --    0.07377   0.09445   0.09591   0.10383   0.11200
  Beta virt. eigenvalues --    0.11391   0.11783   0.12056   0.12626   0.13041
  Beta virt. eigenvalues --    0.13588   0.15442   0.16143   0.16260   0.16569

 Mulliken charges and spin densities:
               1          2
     1  C    0.635601  -0.881489
     2  N   -0.031416   0.222729
     3  C   -0.246660   0.225721
     4  N   -0.248055  -0.003135
     5  C   -0.694905   0.061131
     6  N   -0.200655   0.270076
     7  C    0.012612   0.015413
     8  C   -0.117518   0.106097
     9  N   -0.122340   0.237591
    10  C    0.115739   0.006552
    11  S   -0.105379  -0.116173
    12  N   -0.152490  -0.179512
    13  H    0.006222   0.107373
    14  H   -0.308802   0.478583
    15  H   -0.134662   0.285350
    16  H    0.140185  -0.002002
    17  H    0.134250  -0.007485
    18  H    0.215379   0.033795
    19  H    0.102892   0.139386
 Sum of Mulliken charges =  -1.00000   1.00000

 Dipole moment (field-independent basis, Debye):
    X=              1.3976    Y=             -0.4957    Z=             -1.1533  Tot=              1.8786
 Quadrupole moment (field-independent basis, Debye-Ang):
   XX=           -121.6189   YY=           -100.7611   ZZ=            -88.6303
   XY=              1.5876   XZ=             -4.8708   YZ=              0.9455

 Summary of Natural Population Analysis:

                                       Natural Population
                Natural  -----------------------------------------------
    Atom  No    Charge         Core      Valence    Rydberg      Total
 -----------------------------------------------------------------------
      C    1   -0.17466      0.99964     2.16691    0.00811     3.17466
      N    2   -0.16739      0.99959     2.65486    0.01294     3.66739
      C    3    0.18730      0.99956     1.79210    0.02104     2.81270
      N    4   -0.29781      0.99963     2.78436    0.01383     3.79781
      C    5    0.16684      0.99944     1.81550    0.01822     2.83316
      N    6   -0.15020      0.99967     2.63756    0.01298     3.65020
      C    7   -0.00858      0.99961     1.99473    0.01425     3.00858
      C    8   -0.00249      0.99960     1.98809    0.01480     3.00249
      N    9   -0.16381      0.99964     2.64951    0.01466     3.66381
      C   10   -0.00297      0.99944     1.98631    0.01722     3.00297
      S   11    0.12358      4.99947     2.85542    0.02154     7.87642
      N   12   -0.31544      0.99977     2.80552    0.01016     3.81544
      H   13    0.09677      0.00000     0.40176    0.00147     0.40323
      H   14    0.09321      0.00000     0.40415    0.00264     0.40679
      H   15    0.10311      0.00000     0.39567    0.00122     0.39689
      H   16    0.08018      0.00000     0.41811    0.00171     0.41982
      H   17    0.08045      0.00000     0.41793    0.00162     0.41955
      H   18    0.17566      0.00000     0.32189    0.00246     0.32434
      H   19    0.17626      0.00000     0.32057    0.00317     0.32374
 =======================================================================
   * Total *    0.00000     15.99504    30.81094    0.19403    47.00000

 Normal termination of Gaussian 16 at Wed Dec  9 18:11:37 2020.
