 Gaussian 16, Revision A.03,

 -----------------------------------------------------------
 # opt freq B3LYP/6-31G(d) empiricaldispersion=gd3bj scf=xqc
 -----------------------------------------------------------

 ------------------------------
 CID_83908430_JID_3568_neutraal
 ------------------------------
 Symbolic Z-matrix:
 Charge =  0 Multiplicity = 1

 SCF Done:  E(RB3LYP) =  -920.714119801     A.U. after   13 cycles
 SCF Done:  E(RB3LYP) =  -920.716922176     A.U. after   10 cycles
 SCF Done:  E(RB3LYP) =  -920.717251550     A.U. after   10 cycles
 SCF Done:  E(RB3LYP) =  -920.717310074     A.U. after    9 cycles
 SCF Done:  E(RB3LYP) =  -920.717325998     A.U. after    9 cycles
 SCF Done:  E(RB3LYP) =  -920.717332942     A.U. after    9 cycles
 SCF Done:  E(RB3LYP) =  -920.717335810     A.U. after    7 cycles
 SCF Done:  E(RB3LYP) =  -920.717336306     A.U. after    7 cycles
 Optimization completed.
    -- Stationary point found.
 Normal termination of Gaussian 16 at Wed Dec  9 23:39:36 2020.

 --------------------------------------------------------------------
 #N Geom=AllCheck Guess=TCheck SCRF=Check GenChk RB3LYP/6-31G(d) Freq
 --------------------------------------------------------------------

 Structure from the checkpoint file:  "JID_3568.chk"
 ------------------------------
 CID_83908430_JID_3568_neutraal
 ------------------------------
 Charge =  0 Multiplicity = 1

 SCF Done:  E(RB3LYP) =  -920.717336307     A.U. after    1 cycles

  Exact polarizability: 138.693   0.738 127.147   3.896   2.773 107.366
 Approx polarizability: 185.298   2.556 185.966   6.590   1.063 170.358

                      1                      2                      3
                      A                      A                      A
 Frequencies --     83.2483               103.4811               115.2424
 Red. masses --      3.9014                 3.9891                 2.9980
 Frc consts  --      0.0159                 0.0252                 0.0235
 IR Inten    --      1.2187                 1.7738                 1.9405

                      4                      5                      6
                      A                      A                      A
 Frequencies --    158.6445               172.5646               217.4898
 Red. masses --      3.0127                 3.3875                 2.7618
 Frc consts  --      0.0447                 0.0594                 0.0770
 IR Inten    --      1.3769                 2.4030                 0.9068

                      7                      8                      9
                      A                      A                      A
 Frequencies --    262.2981               277.0715               291.6663
 Red. masses --      1.5492                 2.0015                 2.7588
 Frc consts  --      0.0628                 0.0905                 0.1383
 IR Inten    --     37.5009                 8.0870                10.6016

                     10                     11                     12
                      A                      A                      A
 Frequencies --    313.2643               334.8788               352.0257
 Red. masses --      2.1556                 3.9709                 2.2513
 Frc consts  --      0.1246                 0.2624                 0.1644
 IR Inten    --      3.3050                 3.0753                 5.0117

                     13                     14                     15
                      A                      A                      A
 Frequencies --    378.2520               399.6397               441.6534
 Red. masses --      2.8394                 2.1068                 2.3097
 Frc consts  --      0.2394                 0.1982                 0.2654
 IR Inten    --      0.6503                 2.4377                 1.5290

                     16                     17                     18
                      A                      A                      A
 Frequencies --    456.3031               500.4352               526.4516
 Red. masses --      2.5777                 3.2447                 3.1279
 Frc consts  --      0.3162                 0.4788                 0.5108
 IR Inten    --      0.4008                 0.4202                 9.9645

                     19                     20                     21
                      A                      A                      A
 Frequencies --    589.8416               633.7330               669.8584
 Red. masses --      2.6766                 1.8983                 3.6388
 Frc consts  --      0.5487                 0.4492                 0.9620
 IR Inten    --      4.3939                 2.8748                 2.0002

                     22                     23                     24
                      A                      A                      A
 Frequencies --    732.4388               765.6508               808.7447
 Red. masses --      3.1341                 4.1062                 2.4282
 Frc consts  --      0.9906                 1.4182                 0.9358
 IR Inten    --      0.1139                 5.4797                 1.9601

                     25                     26                     27
                      A                      A                      A
 Frequencies --    826.4675               834.5870               876.6047
 Red. masses --      1.6245                 1.6700                 1.3520
 Frc consts  --      0.6538                 0.6853                 0.6121
 IR Inten    --      0.6681                 1.7015               122.6414

                     28                     29                     30
                      A                      A                      A
 Frequencies --    880.0126               938.2553               947.2498
 Red. masses --      2.9003                 2.4203                 2.2785
 Frc consts  --      1.3233                 1.2553                 1.2045
 IR Inten    --     12.5340                 7.8764                 4.6848

                     31                     32                     33
                      A                      A                      A
 Frequencies --    950.2415               965.5014              1000.0307
 Red. masses --      1.8180                 1.9616                 2.0565
 Frc consts  --      0.9672                 1.0774                 1.2117
 IR Inten    --     10.9967                26.3127                 6.8369

                     34                     35                     36
                      A                      A                      A
 Frequencies --   1030.5320              1034.1658              1059.9185
 Red. masses --      1.6954                 2.2649                 1.9828
 Frc consts  --      1.0608                 1.4272                 1.3124
 IR Inten    --      1.2868                 6.1331                 9.5663

                     37                     38                     39
                      A                      A                      A
 Frequencies --   1068.5530              1076.8543              1097.7089
 Red. masses --      1.9751                 2.1299                 2.1513
 Frc consts  --      1.3287                 1.4552                 1.5273
 IR Inten    --     13.2747                 0.8810                 3.3957

                     40                     41                     42
                      A                      A                      A
 Frequencies --   1122.0774              1135.5534              1159.8517
 Red. masses --      1.8601                 3.2691                 1.4287
 Frc consts  --      1.3799                 2.4837                 1.1324
 IR Inten    --      8.1816                14.7604                12.4390

                     43                     44                     45
                      A                      A                      A
 Frequencies --   1169.6737              1209.9645              1231.6027
 Red. masses --      2.1001                 2.1397                 1.3269
 Frc consts  --      1.6928                 1.8456                 1.1858
 IR Inten    --     48.0593                20.6234                 5.6993

                     46                     47                     48
                      A                      A                      A
 Frequencies --   1235.3977              1246.1952              1269.5720
 Red. masses --      1.2495                 1.2681                 1.2638
 Frc consts  --      1.1236                 1.1603                 1.2002
 IR Inten    --      2.3776                 3.4642                 5.6823

                     49                     50                     51
                      A                      A                      A
 Frequencies --   1287.6629              1303.5004              1324.4226
 Red. masses --      1.2818                 1.3134                 1.3769
 Frc consts  --      1.2522                 1.3149                 1.4230
 IR Inten    --     10.8268                23.2571                 9.2725

                     52                     53                     54
                      A                      A                      A
 Frequencies --   1340.0774              1343.3964              1348.8497
 Red. masses --      1.2823                 1.3174                 1.3514
 Frc consts  --      1.3568                 1.4008                 1.4486
 IR Inten    --      4.0584                 6.3746                 2.2311

                     55                     56                     57
                      A                      A                      A
 Frequencies --   1373.1261              1378.0608              1390.3431
 Red. masses --      1.4800                 1.4380                 1.2923
 Frc consts  --      1.6441                 1.6089                 1.4718
 IR Inten    --      0.7569                 1.9807                 4.6579

                     58                     59                     60
                      A                      A                      A
 Frequencies --   1404.0878              1407.6643              1412.4250
 Red. masses --      1.2950                 1.2772                 1.4433
 Frc consts  --      1.5042                 1.4911                 1.6964
 IR Inten    --      5.8984                 3.8352                 0.5879

                     61                     62                     63
                      A                      A                      A
 Frequencies --   1448.5868              1454.0131              1499.3425
 Red. masses --      1.3528                 1.3844                 1.0876
 Frc consts  --      1.6726                 1.7245                 1.4406
 IR Inten    --     17.6768                 0.2898                 2.1776

                     64                     65                     66
                      A                      A                      A
 Frequencies --   1501.4389              1507.1414              1512.4252
 Red. masses --      1.0885                 1.0857                 1.0898
 Frc consts  --      1.4457                 1.4531                 1.4687
 IR Inten    --      1.3689                11.7524                 5.4672

                     67                     68                     69
                      A                      A                      A
 Frequencies --   1530.2695              1532.7519              1540.7216
 Red. masses --      1.0817                 1.0865                 1.0957
 Frc consts  --      1.4924                 1.5039                 1.5325
 IR Inten    --      0.4641                 7.6568                 5.9512

                     70                     71                     72
                      A                      A                      A
 Frequencies --   1544.7845              1704.1942              2975.9243
 Red. masses --      1.0844                 1.0863                 1.0727
 Frc consts  --      1.5246                 1.8588                 5.5971
 IR Inten    --      2.8317                30.6562                47.8026

                     73                     74                     75
                      A                      A                      A
 Frequencies --   2976.9334              2985.2776              3036.6481
 Red. masses --      1.0723                 1.0723                 1.0801
 Frc consts  --      5.5991                 5.6304                 5.8682
 IR Inten    --     28.1337                79.7102                11.0103

                     76                     77                     78
                      A                      A                      A
 Frequencies --   3038.3271              3052.9078              3054.6988
 Red. masses --      1.0627                 1.0653                 1.0645
 Frc consts  --      5.7800                 5.8500                 5.8526
 IR Inten    --     19.6786                21.4571                28.4097

                     79                     80                     81
                      A                      A                      A
 Frequencies --   3064.8030              3071.8826              3084.3954
 Red. masses --      1.0661                 1.0660                 1.0996
 Frc consts  --      5.9002                 5.9267                 6.1634
 IR Inten    --     44.3311                16.7139                48.3469

                     82                     83                     84
                      A                      A                      A
 Frequencies --   3101.7531              3102.8820              3106.6740
 Red. masses --      1.0982                 1.0918                 1.0887
 Frc consts  --      6.2253                 6.1934                 6.1908
 IR Inten    --     21.8992                45.9331                35.1091

                     85                     86                     87
                      A                      A                      A
 Frequencies --   3107.7307              3114.5400              3119.1371
 Red. masses --      1.0923                 1.0995                 1.0976
 Frc consts  --      6.2157                 6.2841                 6.2918
 IR Inten    --     48.0208                 3.7554                33.5588

                     88                     89                     90
                      A                      A                      A
 Frequencies --   3126.7985              3474.5880              3555.6665
 Red. masses --      1.1001                 1.0501                 1.0923
 Frc consts  --      6.3369                 7.4695                 8.1361
 IR Inten    --     13.0584                 2.1665                 0.3792

 - Thermochemistry -
 -------------------
 Temperature   298.150 Kelvin.  Pressure   1.00000 Atm.
 Atom     1 has atomic number  6 and mass  12.00000

 Molecular mass:   201.11874 amu.
 Principal axes and moments of inertia in atomic units:
                           1         2         3
     Eigenvalues --  1836.275093235.436404211.66423
           X            0.99963  -0.02633   0.00618
           Y            0.02609   0.99903   0.03543
           Z           -0.00711  -0.03525   0.99935
 This molecule is an asymmetric top.
 Rotational symmetry number  1.
 Warning -- assumption of classical behavior for rotation
           may cause significant error
 Rotational temperatures (Kelvin)      0.04717     0.02677     0.02057
 Rotational constants (GHZ):           0.98283     0.55780     0.42851
 Zero-point vibrational energy     760778.9 (Joules/Mol)
                                  181.83053 (Kcal/Mol)
 Warning -- explicit consideration of  19 degrees of freedom as
           vibrations may cause significant error
 Vibrational temperatures:    119.78   148.89   165.81   228.25   248.28
          (Kelvin)            312.92   377.39   398.64   419.64   450.72
                              481.82   506.49   544.22   574.99   635.44
                              656.52   720.01   757.45   848.65   911.80
                              963.78  1053.82  1101.60  1163.60  1189.10
                             1200.78  1261.24  1266.14  1349.94  1362.88
                             1367.19  1389.14  1438.82  1482.71  1487.93
                             1524.99  1537.41  1549.35  1579.36  1614.42
                             1633.81  1668.77  1682.90  1740.87  1772.00
                             1777.46  1793.00  1826.63  1852.66  1875.45
                             1905.55  1928.07  1932.85  1940.69  1975.62
                             1982.72  2000.39  2020.17  2025.31  2032.16
                             2084.19  2092.00  2157.22  2160.24  2168.44
                             2176.04  2201.72  2205.29  2216.75  2222.60
                             2451.96  4281.69  4283.14  4295.15  4369.06
                             4371.48  4392.45  4395.03  4409.57  4419.75
                             4437.76  4462.73  4464.36  4469.81  4471.33
                             4481.13  4487.74  4498.77  4999.16  5115.81

 Zero-point correction=                           0.289765 (Hartree/Particle)
 Thermal correction to Energy=                    0.302315
 Thermal correction to Enthalpy=                  0.303259
 Thermal correction to Gibbs Free Energy=         0.251789
 Sum of electronic and zero-point Energies=           -920.427571
 Sum of electronic and thermal Energies=              -920.415022
 Sum of electronic and thermal Enthalpies=            -920.414078
 Sum of electronic and thermal Free Energies=         -920.465547

                     E (Thermal)             CV                S
                      KCal/Mol        Cal/Mol-Kelvin    Cal/Mol-Kelvin
 Total                  189.705             50.926            108.327
 Electronic               0.000              0.000              0.000
 Translational            0.889              2.981             41.801
 Rotational               0.889              2.981             31.593
 Vibrational            187.928             44.964             34.933
 Vibration     1          0.600              1.961              3.813
 Vibration     2          0.605              1.946              3.388
 Vibration     3          0.608              1.937              3.179
 Vibration     4          0.621              1.893              2.566
 Vibration     5          0.626              1.876              2.407
 Vibration     6          0.646              1.814              1.980
 Vibration     7          0.670              1.742              1.646
 Vibration     8          0.678              1.716              1.552
 Vibration     9          0.687              1.689              1.464
 Vibration    10          0.701              1.648              1.345
 Vibration    11          0.716              1.606              1.236
 Vibration    12          0.729              1.571              1.157
 Vibration    13          0.749              1.516              1.046
 Vibration    14          0.766              1.471              0.964
 Vibration    15          0.801              1.379              0.821
 Vibration    16          0.815              1.347              0.777
 Vibration    17          0.856              1.249              0.657
 Vibration    18          0.881              1.191              0.595
 Vibration    19          0.947              1.053              0.467

 Optimization completed.
    -- Stationary point found.
 Normal termination of Gaussian 16 at Wed Dec  9 23:50:42 2020.

 ----------------------------------------------------------------------
 # B3LYP/6-311++G(d,p) empiricaldispersion=gd3bj scf=xqc pop=npa geom=c
 heck
 ----------------------------------------------------------------------

 --------------------------------------
 CID_83908430_JID_3568_Energie_neutraal
 --------------------------------------
 Structure from the checkpoint file:  "JID_3568.chk"
 Charge =  0 Multiplicity = 1

 SCF Done:  E(RB3LYP) =  -920.897484685     A.U. after   14 cycles
 Normal termination of Gaussian 16 at Wed Dec  9 23:55:56 2020.

 ----------------------------------------------------------------------
 # B3LYP/6-311++G(d,p) empiricaldispersion=gd3bj scf=xqc pop=npa geom=c
 heck
 ----------------------------------------------------------------------

 ------------------------------------
 CID_83908430_JID_3568_Energie_kation
 ------------------------------------
 Structure from the checkpoint file:  "JID_3568.chk"
 Charge =  1 Multiplicity = 2

 SCF Done:  E(UB3LYP) =  -920.602044464     A.U. after   24 cycles
 Normal termination of Gaussian 16 at Thu Dec 10 00:08:49 2020.
 Gaussian 16:  ES64L-G16RevA.03 25-Dec-2016

 ----------------------------------------------------------------------
 # B3LYP/6-311++G(d,p) empiricaldispersion=gd3bj scf=xqc pop=npa geom=c
 heck
 ----------------------------------------------------------------------

 -----------------------------------
 CID_83908430_JID_3568_Energie_anion
 -----------------------------------
 Structure from the checkpoint file:  "JID_3568.chk"
 Charge = -1 Multiplicity = 2

                         Standard orientation:
 ---------------------------------------------------------------------
 Center     Atomic      Atomic             Coordinates (Angstroms)
 Number     Number       Type             X           Y           Z
 ---------------------------------------------------------------------
      1          6           0        1.840688    0.281838    1.151056
      2          6           0        2.293527    1.318756    0.123325
      3         16           0        0.880464    2.239267   -0.598855
      4          6           0       -0.148021    0.804918   -1.096562
      5          6           0       -0.422216   -0.230059    0.020117
      6          6           0        0.916964   -0.809991    0.574961
      7          6           0        1.663287   -1.701411   -0.439295
      8          7           0        2.902082   -2.238807    0.140110
      9          6           0       -1.229306    0.399467    1.183157
     10          6           0       -2.680862    0.700539    0.814579
     11          8           0       -3.362470   -0.452626    0.340841
     12          6           0       -2.739956   -0.965316   -0.824566
     13          6           0       -1.288127   -1.374499   -0.568429
     14          1           0        2.720026   -0.205600    1.588685
     15          1           0        1.336988    0.796752    1.974910
     16          1           0        2.930595    2.076524    0.589199
     17          1           0        2.872838    0.858304   -0.685786
     18          1           0        0.323033    0.314826   -1.954732
     19          1           0       -1.078901    1.246928   -1.460293
     20          1           0        0.653668   -1.470718    1.411699
     21          1           0        1.030915   -2.559037   -0.684289
     22          1           0        1.826671   -1.156990   -1.384475
     23          1           0        3.242826   -3.001074   -0.442529
     24          1           0        3.632792   -1.530075    0.120150
     25          1           0       -1.229539   -0.304327    2.025126
     26          1           0       -0.754594    1.323952    1.524497
     27          1           0       -2.734723    1.503156    0.059300
     28          1           0       -3.234485    1.040691    1.694621
     29          1           0       -2.798026   -0.222437   -1.638897
     30          1           0       -3.330724   -1.834082   -1.130544
     31          1           0       -0.858459   -1.747426   -1.506116
     32          1           0       -1.289020   -2.210429    0.143600
 ---------------------------------------------------------------------

 SCF Done:  E(UB3LYP) =  -920.885254273     A.U. after   28 cycles

 The electronic state is 2-A.
 Alpha  occ. eigenvalues --  -88.73612 -19.03220 -14.18292 -10.12525 -10.12161
 Alpha  occ. eigenvalues --  -10.09802 -10.09478 -10.09447 -10.08231 -10.07224
 Alpha  occ. eigenvalues --  -10.07210 -10.07141 -10.06803  -7.82244  -5.78627
 Alpha  occ. eigenvalues --   -5.78285  -5.77614  -0.94817  -0.77994  -0.74890
 Alpha  occ. eigenvalues --   -0.69418  -0.67308  -0.65788  -0.61596  -0.56085
 Alpha  occ. eigenvalues --   -0.54505  -0.53289  -0.50247  -0.46699  -0.42681
 Alpha  occ. eigenvalues --   -0.41061  -0.39598  -0.38653  -0.36636  -0.36127
 Alpha  occ. eigenvalues --   -0.35510  -0.34272  -0.33333  -0.32391  -0.31214
 Alpha  occ. eigenvalues --   -0.30861  -0.29300  -0.28335  -0.27244  -0.26493
 Alpha  occ. eigenvalues --   -0.25778  -0.24792  -0.23707  -0.22879  -0.21227
 Alpha  occ. eigenvalues --   -0.20705  -0.19475  -0.16474  -0.13768  -0.12321
 Alpha  occ. eigenvalues --    0.04464
 Alpha virt. eigenvalues --    0.06536   0.07074   0.07920   0.08276   0.09215
 Alpha virt. eigenvalues --    0.09509   0.09832   0.10392   0.11242   0.11457
 Alpha virt. eigenvalues --    0.12362   0.12407   0.12998   0.13555   0.13778

  Beta  occ. eigenvalues --  -88.73609 -19.03217 -14.18235 -10.12519 -10.12142
  Beta  occ. eigenvalues --  -10.09788 -10.09448 -10.09442 -10.08201 -10.07222
  Beta  occ. eigenvalues --  -10.07197 -10.07134 -10.06788  -7.82242  -5.78626
  Beta  occ. eigenvalues --   -5.78278  -5.77612  -0.94809  -0.77920  -0.74850
  Beta  occ. eigenvalues --   -0.69387  -0.67288  -0.65751  -0.61553  -0.56022
  Beta  occ. eigenvalues --   -0.54466  -0.53249  -0.50187  -0.46650  -0.42640
  Beta  occ. eigenvalues --   -0.41023  -0.39555  -0.38632  -0.36597  -0.36092
  Beta  occ. eigenvalues --   -0.35478  -0.34238  -0.33298  -0.32320  -0.31170
  Beta  occ. eigenvalues --   -0.30832  -0.29277  -0.28293  -0.27210  -0.26466
  Beta  occ. eigenvalues --   -0.25754  -0.24768  -0.23685  -0.22855  -0.21207
  Beta  occ. eigenvalues --   -0.20675  -0.19447  -0.16452  -0.13713  -0.12300
  Beta virt. eigenvalues --    0.06628   0.07453   0.07715   0.08198   0.09034
  Beta virt. eigenvalues --    0.09595   0.09911   0.10321   0.10562   0.11723
  Beta virt. eigenvalues --    0.11818   0.12655   0.12775   0.13087   0.13751

 Mulliken charges and spin densities:
               1          2
     1  C   -0.893931   0.695503
     2  C   -0.242577  -0.607184
     3  S    0.179779  -0.228513
     4  C    0.495958  -1.230419
     5  C    0.263180   0.598517
     6  C    0.625989  -0.398917
     7  C    1.760372  -2.493647
     8  N   -0.721127   0.381723
     9  C   -0.688206   0.386197
    10  C   -0.105188  -0.515614
    11  O   -0.131931   0.038854
    12  C    0.376972  -1.009353
    13  C   -0.596071   0.521584
    14  H   -0.045099   0.246364
    15  H    0.007750   0.133116
    16  H   -0.443873   0.683866
    17  H   -0.045507   0.260624
    18  H   -0.059498   0.291636
    19  H    0.284312  -0.103430
    20  H    0.249060  -0.053131
    21  H   -0.497248   0.705789
    22  H   -0.317107   0.480548
    23  H   -0.298527   0.545940
    24  H   -0.086524   0.312473
    25  H    0.078667   0.102142
    26  H    0.096511   0.008604
    27  H    0.076650   0.062194
    28  H    0.119049   0.068580
    29  H   -0.063785   0.192207
    30  H   -0.345743   0.559191
    31  H   -0.205061   0.343852
    32  H    0.172752   0.020705
 Sum of Mulliken charges =  -1.00000   1.00000

 Dipole moment (field-independent basis, Debye):
    X=             -5.6229    Y=              4.7224    Z=              2.7750  Tot=              7.8497
 Quadrupole moment (field-independent basis, Debye-Ang):
   XX=           -161.6470   YY=           -141.5029   ZZ=           -122.7150
   XY=              4.5406   XZ=              1.3243   YZ=             -5.7819

 Summary of Natural Population Analysis:

                                       Natural Population
                Natural  -----------------------------------------------
    Atom  No    Charge         Core      Valence    Rydberg      Total
 -----------------------------------------------------------------------
      C    1   -0.19942      0.99959     2.18894    0.01088     3.19942
      C    2   -0.24858      0.99959     2.23827    0.01073     3.24858
      S    3    0.07930      4.99963     2.90385    0.01722     7.92070
      C    4   -0.25448      0.99952     2.24240    0.01257     3.25448
      C    5   -0.03760      0.99952     2.02260    0.01548     3.03760
      C    6   -0.10903      0.99955     2.09522    0.01426     3.10903
      C    7   -0.09149      0.99959     2.07958    0.01232     3.09149
      N    8   -0.42331      0.99977     2.91284    0.01071     3.92331
      C    9   -0.20955      0.99958     2.20119    0.00878     3.20955
      C   10   -0.00724      0.99958     1.99635    0.01131     3.00724
      O   11   -0.30080      0.99989     3.29209    0.00882     4.30080
      C   12   -0.00899      0.99957     1.99554    0.01388     3.00899
      C   13   -0.20763      0.99958     2.19627    0.01177     3.20763
      H   14    0.10916      0.00000     0.38955    0.00129     0.39084
      H   15    0.09956      0.00000     0.39917    0.00127     0.40044
      H   16    0.10753      0.00000     0.39115    0.00132     0.39247
      H   17    0.10209      0.00000     0.39582    0.00209     0.39791
      H   18    0.10651      0.00000     0.39173    0.00176     0.39349
      H   19    0.10645      0.00000     0.39227    0.00128     0.39355
      H   20    0.10133      0.00000     0.39679    0.00188     0.39867
      H   21    0.09597      0.00000     0.40233    0.00170     0.40403
      H   22    0.08099      0.00000     0.41595    0.00306     0.41901
      H   23    0.18054      0.00000     0.31562    0.00384     0.31946
      H   24    0.17443      0.00000     0.32222    0.00335     0.32557
      H   25    0.10004      0.00000     0.39880    0.00116     0.39996
      H   26    0.11054      0.00000     0.38789    0.00157     0.38946
      H   27    0.07530      0.00000     0.42333    0.00138     0.42470
      H   28    0.08963      0.00000     0.40928    0.00110     0.41037
      H   29    0.07502      0.00000     0.42370    0.00128     0.42498
      H   30    0.09332      0.00000     0.40534    0.00133     0.40668
      H   31    0.10780      0.00000     0.39050    0.00170     0.39220
      H   32    0.10262      0.00000     0.39602    0.00135     0.39738
 =======================================================================
   * Total *    0.00000     16.99497    37.81259    0.19244    55.00000

 Normal termination of Gaussian 16 at Thu Dec 10 00:23:25 2020.
