 Gaussian 16, Revision A.03,

 -----------------------------------------------------------
 # opt freq B3LYP/6-31G(d) empiricaldispersion=gd3bj scf=xqc
 -----------------------------------------------------------

 ----------------------------
 CID_14225390_JID_23_neutraal
 ----------------------------
 Symbolic Z-matrix:
 Charge =  0 Multiplicity = 1

 SCF Done:  E(RB3LYP) =  -427.829385312     A.U. after   14 cycles
 SCF Done:  E(RB3LYP) =  -427.832494795     A.U. after   12 cycles
 SCF Done:  E(RB3LYP) =  -427.831013537     A.U. after   13 cycles
 SCF Done:  E(RB3LYP) =  -427.832609355     A.U. after   12 cycles
 SCF Done:  E(RB3LYP) =  -427.832945111     A.U. after   12 cycles
 SCF Done:  E(RB3LYP) =  -427.833190364     A.U. after   12 cycles
 SCF Done:  E(RB3LYP) =  -427.833376949     A.U. after   11 cycles
 SCF Done:  E(RB3LYP) =  -427.833403258     A.U. after   10 cycles
 SCF Done:  E(RB3LYP) =  -427.833407207     A.U. after    9 cycles
 SCF Done:  E(RB3LYP) =  -427.833409240     A.U. after    9 cycles
 SCF Done:  E(RB3LYP) =  -427.833410683     A.U. after    9 cycles
 SCF Done:  E(RB3LYP) =  -427.833411628     A.U. after    9 cycles
 SCF Done:  E(RB3LYP) =  -427.833412256     A.U. after    9 cycles
 SCF Done:  E(RB3LYP) =  -427.833412415     A.U. after    7 cycles
 Optimization completed.
    -- Stationary point found.

 1\1\GINC-NODE357\FOpt\RB3LYP\6-31G(d)\C9H16O1\VSC10255\08-Dec-2020\0\\
 # opt freq B3LYP/6-31G(d) empiricaldispersion=gd3bj scf=xqc\\CID_14225
 390_JID_23_neutraal\\0,1\C,1.0552415206,0.0449111246,0.0856570222\C,0.
 7861206839,1.5429014352,0.3115151838\C,1.4347791729,2.4187449817,-0.77
 58623801\C,-0.6869106452,1.9053451762,0.5523750735\O,-0.9738616558,2.4
 412007926,1.6094043857\C,-1.8217012781,1.7183247104,-0.5006716387\C,-2
 .0814873578,3.1446218656,-1.0636775889\C,-1.5145414422,0.7716233066,-1
 .6658876175\C,-3.0629506263,1.2871903342,0.2609958728\C,-3.8952917405,

 Normal termination of Gaussian 16 at Tue Dec  8 10:17:10 2020.

 --------------------------------------------------------------------
 #N Geom=AllCheck Guess=TCheck SCRF=Check GenChk RB3LYP/6-31G(d) Freq
 --------------------------------------------------------------------

 Structure from the checkpoint file:  "JID_23.chk"
 ----------------------------
 CID_14225390_JID_23_neutraal
 ----------------------------
 Charge =  0 Multiplicity = 1

 SCF Done:  E(RB3LYP) =  -427.833412415     A.U. after    1 cycles

  Exact polarizability: 109.749   7.721  89.568  -3.165   3.416  84.374
 Approx polarizability: 140.548  14.851 132.305  -3.358  13.580 129.055

                      1                      2                      3
                      A                      A                      A
 Frequencies --     30.7333                78.0640                97.8100
 Red. masses --      4.0276                 2.5948                 2.7546
 Frc consts  --      0.0022                 0.0093                 0.0155
 IR Inten    --      1.7358                 0.2999                 0.5433

                      4                      5                      6
                      A                      A                      A
 Frequencies --    184.7687               204.8370               230.9534
 Red. masses --      1.5667                 3.0100                 1.1607
 Frc consts  --      0.0315                 0.0744                 0.0365
 IR Inten    --      0.6142                 1.2699                 0.1700

                      7                      8                      9
                      A                      A                      A
 Frequencies --    247.1353               255.4749               259.5493
 Red. masses --      1.4364                 1.8560                 1.9081
 Frc consts  --      0.0517                 0.0714                 0.0757
 IR Inten    --      0.2924                 0.4365                 2.0476

                     10                     11                     12
                      A                      A                      A
 Frequencies --    273.7374               323.0718               342.1342
 Red. masses --      1.5739                 1.7997                 1.8361
 Frc consts  --      0.0695                 0.1107                 0.1266
 IR Inten    --      0.1542                 0.2739                 1.9987

                     13                     14                     15
                      A                      A                      A
 Frequencies --    347.5201               373.7263               374.7968
 Red. masses --      1.8886                 2.0841                 1.9576
 Frc consts  --      0.1344                 0.1715                 0.1620
 IR Inten    --      0.8880                 0.9065                 0.7127

                     16                     17                     18
                      A                      A                      A
 Frequencies --    459.6662               540.6097               572.8407
 Red. masses --      3.0488                 3.7141                 2.9653
 Frc consts  --      0.3795                 0.6395                 0.5733
 IR Inten    --      0.6291                 7.7361                 2.1818

                     19                     20                     21
                      A                      A                      A
 Frequencies --    632.9517               694.0330               771.9562
 Red. masses --      2.4564                 2.2245                 4.8863
 Frc consts  --      0.5798                 0.6313                 1.7156
 IR Inten    --      4.3679                 6.4519                 0.6944

                     22                     23                     24
                      A                      A                      A
 Frequencies --    820.8624               904.5712               936.5536
 Red. masses --      2.3416                 2.3143                 1.4397
 Frc consts  --      0.9296                 1.1157                 0.7441
 IR Inten    --      1.4742                13.4298                17.9987

                     25                     26                     27
                      A                      A                      A
 Frequencies --    940.0469               949.5854               974.7451
 Red. masses --      1.7378                 1.1865                 1.5177
 Frc consts  --      0.9048                 0.6303                 0.8496
 IR Inten    --     18.9585                 1.9659                 1.6033

                     28                     29                     30
                      A                      A                      A
 Frequencies --    985.2082               994.7192              1038.4263
 Red. masses --      1.5142                 1.7604                 1.2771
 Frc consts  --      0.8660                 1.0263                 0.8114
 IR Inten    --      6.6366                82.7042                11.0851

                     31                     32                     33
                      A                      A                      A
 Frequencies --   1057.9420              1069.8419              1121.9666
 Red. masses --      1.1665                 1.4828                 2.3124
 Frc consts  --      0.7692                 0.9999                 1.7150
 IR Inten    --     17.7450                 5.4442                 1.2216

                     34                     35                     36
                      A                      A                      A
 Frequencies --   1178.3756              1184.6210              1208.9245
 Red. masses --      2.1785                 2.1414                 1.9123
 Frc consts  --      1.7823                 1.7705                 1.6466
 IR Inten    --      2.3309                12.3996                 1.1458

                     37                     38                     39
                      A                      A                      A
 Frequencies --   1273.9812              1283.8513              1343.9362
 Red. masses --      3.1569                 3.1230                 1.2781
 Frc consts  --      3.0189                 3.0329                 1.3601
 IR Inten    --     19.3691                 4.5644                 0.5450

                     40                     41                     42
                      A                      A                      A
 Frequencies --   1366.4646              1377.7532              1418.8168
 Red. masses --      1.3286                 1.2945                 1.2059
 Frc consts  --      1.4617                 1.4477                 1.4303
 IR Inten    --      5.2383                 2.1284                 5.2454

                     43                     44                     45
                      A                      A                      A
 Frequencies --   1426.0354              1440.9091              1450.8057
 Red. masses --      1.2168                 1.2364                 1.2140
 Frc consts  --      1.4580                 1.5124                 1.5055
 IR Inten    --      3.4178                 6.3245                 3.1403

                     46                     47                     48
                      A                      A                      A
 Frequencies --   1474.3337              1515.8763              1517.7638
 Red. masses --      1.1884                 1.0484                 1.0494
 Frc consts  --      1.5219                 1.4193                 1.4242
 IR Inten    --      5.1892                 1.2145                 2.8625

                     49                     50                     51
                      A                      A                      A
 Frequencies --   1521.4892              1524.7154              1533.4403
 Red. masses --      1.0461                 1.0490                 1.0471
 Frc consts  --      1.4267                 1.4368                 1.4507
 IR Inten    --      1.5175                 2.4774                 0.4772

                     52                     53                     54
                      A                      A                      A
 Frequencies --   1541.4641              1544.6498              1554.4775
 Red. masses --      1.0570                 1.0482                 1.0528
 Frc consts  --      1.4797                 1.4736                 1.4989
 IR Inten    --     14.6218                22.3623                 2.2232

                     55                     56                     57
                      A                      A                      A
 Frequencies --   1726.3278              1776.8270              3053.8169
 Red. masses --      4.5169                11.1611                 1.0348
 Frc consts  --      7.9311                20.7610                 5.6857
 IR Inten    --     12.0068               115.3702                 3.2368

                     58                     59                     60
                      A                      A                      A
 Frequencies --   3055.2943              3057.8500              3066.4801
 Red. masses --      1.0357                 1.0401                 1.0776
 Frc consts  --      5.6963                 5.7302                 5.9703
 IR Inten    --     43.5543                14.2931                13.3230

                     61                     62                     63
                      A                      A                      A
 Frequencies --   3070.1651              3116.2762              3118.7230
 Red. masses --      1.0442                 1.1024                 1.1020
 Frc consts  --      5.7989                 6.3078                 6.3152
 IR Inten    --     10.8659                 9.7453                55.7983

                     64                     65                     66
                      A                      A                      A
 Frequencies --   3123.6549              3129.4119              3134.9905
 Red. masses --      1.1021                 1.1000                 1.1013
 Frc consts  --      6.3356                 6.3473                 6.3771
 IR Inten    --      8.7344                54.8206                15.8585

                     67                     68                     69
                      A                      A                      A
 Frequencies --   3145.8365              3153.9033              3159.7602
 Red. masses --      1.1027                 1.0980                 1.1002
 Frc consts  --      6.4294                 6.4352                 6.4717
 IR Inten    --     11.8875                24.1047                22.7105

                     70                     71                     72
                      A                      A                      A
 Frequencies --   3168.5635              3194.6880              3243.8818
 Red. masses --      1.0586                 1.0917                 1.1146
 Frc consts  --      6.2621                 6.5649                 6.9104
 IR Inten    --     10.2090                 3.8129                17.6469

 - Thermochemistry -
 -------------------
 Temperature   298.150 Kelvin.  Pressure   1.00000 Atm.
 Atom     1 has atomic number  6 and mass  12.00000

 Molecular mass:   140.12012 amu.
 Principal axes and moments of inertia in atomic units:
                           1         2         3
     Eigenvalues --   972.198331944.767922012.44857
           X            0.99996  -0.00783  -0.00419
           Y            0.00661   0.97119  -0.23821
           Z            0.00594   0.23818   0.97120
 This molecule is an asymmetric top.
 Rotational symmetry number  1.
 Warning -- assumption of classical behavior for rotation
           may cause significant error
 Rotational temperatures (Kelvin)      0.08909     0.04454     0.04304
 Rotational constants (GHZ):           1.85635     0.92800     0.89679
 Zero-point vibrational energy     611710.3 (Joules/Mol)
                                  146.20227 (Kcal/Mol)
 Warning -- explicit consideration of  18 degrees of freedom as
           vibrations may cause significant error
 Vibrational temperatures:     44.22   112.32   140.73   265.84   294.71
          (Kelvin)            332.29   355.57   367.57   373.43   393.85
                              464.83   492.25   500.00   537.71   539.25
                              661.36   777.82   824.19   910.68   998.56
                             1110.67  1181.04  1301.48  1347.49  1352.52
                             1366.24  1402.44  1417.49  1431.18  1494.06
                             1522.14  1539.26  1614.26  1695.42  1704.41
                             1739.37  1832.97  1847.18  1933.62  1966.04
                             1982.28  2041.36  2051.75  2073.15  2087.39
                             2121.24  2181.01  2183.72  2189.08  2193.73
                             2206.28  2217.82  2222.41  2236.55  2483.80
                             2556.46  4393.76  4395.89  4399.56  4411.98
                             4417.28  4483.63  4487.15  4494.24  4502.53
                             4510.55  4526.16  4537.76  4546.19  4558.86
                             4596.44  4667.22

 Zero-point correction=                           0.232988 (Hartree/Particle)
 Thermal correction to Energy=                    0.245195
 Thermal correction to Enthalpy=                  0.246139
 Thermal correction to Gibbs Free Energy=         0.195379
 Sum of electronic and zero-point Energies=           -427.600424
 Sum of electronic and thermal Energies=              -427.588218
 Sum of electronic and thermal Enthalpies=            -427.587273
 Sum of electronic and thermal Free Energies=         -427.638033

                     E (Thermal)             CV                S
                      KCal/Mol        Cal/Mol-Kelvin    Cal/Mol-Kelvin
 Total                  153.862             45.501            106.834
 Electronic               0.000              0.000              0.000
 Translational            0.889              2.981             40.724
 Rotational               0.889              2.981             29.721
 Vibrational            152.085             39.539             36.389
 Vibration     1          0.594              1.984              5.782
 Vibration     2          0.599              1.964              3.939
 Vibration     3          0.603              1.951              3.497
 Vibration     4          0.631              1.861              2.280
 Vibration     5          0.640              1.833              2.089
 Vibration     6          0.653              1.794              1.872
 Vibration     7          0.661              1.768              1.751
 Vibration     8          0.666              1.754              1.692
 Vibration     9          0.668              1.747              1.665
 Vibration    10          0.676              1.722              1.572
 Vibration    11          0.708              1.629              1.295
 Vibration    12          0.721              1.591              1.202
 Vibration    13          0.725              1.580              1.177
 Vibration    14          0.745              1.526              1.064
 Vibration    15          0.746              1.524              1.060
 Vibration    16          0.818              1.340              0.767
 Vibration    17          0.896              1.160              0.564
 Vibration    18          0.929              1.090              0.499

 Optimization completed.
    -- Stationary point found.

 1\1\GINC-NODE357\Freq\RB3LYP\6-31G(d)\C9H16O1\VSC10255\08-Dec-2020\0\\
 #N Geom=AllCheck Guess=TCheck SCRF=Check GenChk RB3LYP/6-31G(d) Freq\\
 CID_14225390_JID_23_neutraal\\0,1\C,1.0552415206,0.0449111246,0.085657
 0222\C,0.7861206839,1.5429014352,0.3115151838\C,1.4347791729,2.4187449
 817,-0.7758623801\C,-0.6869106452,1.9053451762,0.5523750735\O,-0.97386
 16558,2.4412007926,1.6094043857\C,-1.8217012781,1.7183247104,-0.500671
 6387\C,-2.0814873578,3.1446218656,-1.0636775889\C,-1.5145414422,0.7716
 233066,-1.6658876175\C,-3.0629506263,1.2871903342,0.2609958728\C,-3.89

 Normal termination of Gaussian 16 at Tue Dec  8 10:22:05 2020.

 ----------------------------------------------------------------------
 # B3LYP/6-311++G(d,p) empiricaldispersion=gd3bj scf=xqc pop=npa geom=c
 heck
 ----------------------------------------------------------------------

 ------------------------------------
 CID_14225390_JID_23_Energie_neutraal
 ------------------------------------
 Structure from the checkpoint file:  "JID_23.chk"
 Charge =  0 Multiplicity = 1

 SCF Done:  E(RB3LYP) =  -427.958177847     A.U. after   13 cycles
 Normal termination of Gaussian 16 at Tue Dec  8 10:23:43 2020.

 ----------------------------------------------------------------------
 # B3LYP/6-311++G(d,p) empiricaldispersion=gd3bj scf=xqc pop=npa geom=c
 heck
 ----------------------------------------------------------------------

 ----------------------------------
 CID_14225390_JID_23_Energie_kation
 ----------------------------------
 Structure from the checkpoint file:  "JID_23.chk"
 Charge =  1 Multiplicity = 2

 SCF Done:  E(UB3LYP) =  -427.640013036     A.U. after   21 cycles
 Normal termination of Gaussian 16 at Tue Dec  8 10:27:11 2020.
 Gaussian 16:  ES64L-G16RevA.03 25-Dec-2016

 ---------------------------------
 CID_14225390_JID_23_Energie_anion
 ---------------------------------
 Structure from the checkpoint file:  "JID_23.chk"
 Charge = -1 Multiplicity = 2

                         Standard orientation:
 ---------------------------------------------------------------------
 Center     Atomic      Atomic             Coordinates (Angstroms)
 Number     Number       Type             X           Y           Z
 ---------------------------------------------------------------------
      1          6           0        1.950824   -1.636300    0.401585
      2          6           0        1.818614   -0.103932    0.443791
      3          6           0        2.493731    0.569609   -0.764848
      4          6           0        0.392564    0.415009    0.681028
      5          8           0        0.195483    1.100799    1.669787
      6          6           0       -0.796210    0.200868   -0.305174
      7          6           0       -0.957545    1.564027   -1.036308
      8          6           0       -0.618131   -0.906148   -1.349743
      9          6           0       -2.037125   -0.020736    0.542019
     10          6           0       -2.962591   -0.963332    0.367813
     11          1           0        1.629391   -2.060317   -0.551980
     12          1           0        1.371786   -2.111045    1.201283
     13          1           0        3.002295   -1.909160    0.545640
     14          1           0        2.340310    0.244907    1.341767
     15          1           0        2.048328    0.265482   -1.716544
     16          1           0        2.435281    1.660793   -0.693133
     17          1           0        3.553337    0.291331   -0.793788
     18          1           0       -0.074019    1.795747   -1.641850
     19          1           0       -1.828668    1.522186   -1.698197
     20          1           0       -1.103294    2.371569   -0.313977
     21          1           0       -0.560789   -1.896715   -0.891775
     22          1           0       -1.477777   -0.903259   -2.028111
     23          1           0        0.273763   -0.753136   -1.960568
     24          1           0       -2.141819    0.690640    1.357009
     25          1           0       -3.825558   -1.021208    1.025409
     26          1           0       -2.911213   -1.708583   -0.420460
 ---------------------------------------------------------------------

 SCF Done:  E(UB3LYP) =  -427.941937614     A.U. after   33 cycles
 SCF Done:  E(UB3LYP) =  -427.941937614     a.u. after    1 cycles

 The electronic state is 2-A.
 Alpha  occ. eigenvalues --  -19.00406 -10.15056 -10.09480 -10.07790 -10.07228
 Alpha  occ. eigenvalues --  -10.06302 -10.06159 -10.05937 -10.05726 -10.05725
 Alpha  occ. eigenvalues --   -0.93965  -0.72741  -0.69338  -0.63987  -0.59125
 Alpha  occ. eigenvalues --   -0.58351  -0.54258  -0.51523  -0.45727  -0.40968
 Alpha  occ. eigenvalues --   -0.37366  -0.36265  -0.35341  -0.33425  -0.33201
 Alpha  occ. eigenvalues --   -0.32995  -0.30606  -0.29336  -0.28412  -0.28087
 Alpha  occ. eigenvalues --   -0.27674  -0.26991  -0.26154  -0.24339  -0.23525
 Alpha  occ. eigenvalues --   -0.22943  -0.21938  -0.16776  -0.13825   0.04843
 Alpha virt. eigenvalues --    0.07032   0.07135   0.08074   0.08545   0.09214
 Alpha virt. eigenvalues --    0.09663   0.10246   0.10833   0.11125   0.11370
 Alpha virt. eigenvalues --    0.12207   0.13167   0.13464   0.14422   0.14485

  Beta  occ. eigenvalues --  -19.00349 -10.15007 -10.09481 -10.07786 -10.07223
  Beta  occ. eigenvalues --  -10.06259 -10.06125 -10.05908 -10.05693 -10.05665
  Beta  occ. eigenvalues --   -0.93858  -0.72700  -0.69292  -0.63939  -0.59056
  Beta  occ. eigenvalues --   -0.58271  -0.54146  -0.51439  -0.45652  -0.40916
  Beta  occ. eigenvalues --   -0.37306  -0.36204  -0.35291  -0.33363  -0.33140
  Beta  occ. eigenvalues --   -0.32880  -0.30562  -0.29282  -0.28362  -0.28042
  Beta  occ. eigenvalues --   -0.27627  -0.26919  -0.26037  -0.24303  -0.23470
  Beta  occ. eigenvalues --   -0.22809  -0.21897  -0.16697  -0.13770
  Beta virt. eigenvalues --    0.07161   0.07608   0.08037   0.08804   0.09104
  Beta virt. eigenvalues --    0.09607   0.10251   0.10782   0.11248   0.11550
  Beta virt. eigenvalues --    0.11831   0.12826   0.13668   0.13971   0.14801

 Mulliken charges and spin densities:
               1          2
     1  C    0.724379  -1.363710
     2  C   -2.267999   2.677603
     3  C    1.750061  -2.395726
     4  C    1.261944  -1.782521
     5  O   -0.253821   0.029983
     6  C   -0.455684   1.655205
     7  C    0.287846  -0.960152
     8  C    1.035910  -1.805387
     9  C   -1.116540   0.988213
    10  C    0.487539  -1.023828
    11  H   -0.258858   0.416228
    12  H   -0.025115   0.176948
    13  H   -0.370918   0.523880
    14  H    0.089475   0.122290
    15  H   -0.406303   0.560778
    16  H   -0.237600   0.393548
    17  H   -0.549123   0.710827
    18  H   -0.019951   0.167208
    19  H   -0.275737   0.431604
    20  H    0.023334   0.141756
    21  H   -0.307972   0.468149
    22  H    0.008487   0.139294
    23  H    0.049362   0.084549
    24  H    0.114272   0.098580
    25  H   -0.226395   0.358965
    26  H   -0.060595   0.185717
 Sum of Mulliken charges =  -1.00000   1.00000

 Dipole moment (field-independent basis, Debye):
    X=             -3.3626    Y=              0.8164    Z=              2.3546  Tot=              4.1854
 Quadrupole moment (field-independent basis, Debye-Ang):
   XX=           -124.1659   YY=           -102.7101   ZZ=           -103.0160
   XY=             -0.0333   XZ=              5.8690   YZ=             -0.2140

 Summary of Natural Population Analysis:

                                       Natural Population
                Natural  -----------------------------------------------
    Atom  No    Charge         Core      Valence    Rydberg      Total
 -----------------------------------------------------------------------
      C    1   -0.28235      0.99964     2.27715    0.00556     3.28235
      C    2   -0.15467      0.99956     2.14328    0.01183     3.15467
      C    3   -0.28148      0.99964     2.27585    0.00599     3.28148
      C    4    0.32453      0.99959     1.65238    0.02351     2.67547
      O    5   -0.29238      0.99988     3.28583    0.00668     4.29238
      C    6   -0.10035      0.99951     2.08687    0.01397     3.10035
      C    7   -0.27455      0.99963     2.26773    0.00720     3.27455
      C    8   -0.29202      0.99964     2.28349    0.00889     3.29202
      C    9   -0.07641      0.99954     2.06350    0.01337     3.07641
      C   10   -0.19422      0.99955     2.18843    0.00624     3.19422
      H   11    0.10132      0.00000     0.39727    0.00141     0.39868
      H   12    0.09958      0.00000     0.39922    0.00120     0.40042
      H   13    0.10236      0.00000     0.39654    0.00110     0.39764
      H   14    0.10393      0.00000     0.39398    0.00210     0.39607
      H   15    0.09872      0.00000     0.39944    0.00183     0.40128
      H   16    0.10132      0.00000     0.39724    0.00144     0.39868
      H   17    0.10553      0.00000     0.39195    0.00252     0.39447
      H   18    0.10375      0.00000     0.39503    0.00122     0.39625
      H   19    0.10220      0.00000     0.39668    0.00111     0.39780
      H   20    0.10408      0.00000     0.39479    0.00113     0.39592
      H   21    0.10406      0.00000     0.39447    0.00146     0.39594
      H   22    0.10270      0.00000     0.39608    0.00122     0.39730
      H   23    0.10555      0.00000     0.39283    0.00162     0.39445
      H   24    0.10307      0.00000     0.39505    0.00188     0.39693
      H   25    0.09303      0.00000     0.40585    0.00112     0.40697
      H   26    0.09268      0.00000     0.40599    0.00133     0.40732
 =======================================================================
   * Total *   -0.00000      9.99618    28.87690    0.12692    39.00000

 Normal termination of Gaussian 16 at Tue Dec  8 10:32:42 2020.
