 Gaussian 16, Revision A.03,

 -----------------------------------------------------------
 # opt freq B3LYP/6-31G(d) empiricaldispersion=gd3bj scf=xqc
 -----------------------------------------------------------

 -------------------------------
 CID_150361546_JID_4183_neutraal
 -------------------------------
 Symbolic Z-matrix:
 Charge =  0 Multiplicity = 1

 SCF Done:  E(RB3LYP) =  -979.716960824     A.U. after   17 cycles
 SCF Done:  E(RB3LYP) =  -979.727118293     A.U. after   15 cycles
 SCF Done:  E(RB3LYP) =  -979.727613027     A.U. after   15 cycles
 SCF Done:  E(RB3LYP) =  -979.728253382     A.U. after   14 cycles
 SCF Done:  E(RB3LYP) =  -979.729105099     A.U. after   15 cycles
 SCF Done:  E(RB3LYP) =  -979.729777864     A.U. after   14 cycles
 SCF Done:  E(RB3LYP) =  -979.731791422     A.U. after   17 cycles
 SCF Done:  E(RB3LYP) =  -979.732465380     A.U. after   16 cycles
 SCF Done:  E(RB3LYP) =  -979.732928352     A.U. after   14 cycles
 SCF Done:  E(RB3LYP) =  -979.733010277     A.U. after   13 cycles
 SCF Done:  E(RB3LYP) =  -979.733047301     A.U. after   13 cycles
 SCF Done:  E(RB3LYP) =  -979.733051464     A.U. after   11 cycles
 SCF Done:  E(RB3LYP) =  -979.733052016     A.U. after    9 cycles
 SCF Done:  E(RB3LYP) =  -979.733052272     A.U. after    9 cycles
 SCF Done:  E(RB3LYP) =  -979.733052306     A.U. after    8 cycles
 Optimization completed.
    -- Stationary point found.
 Normal termination of Gaussian 16 at Thu Dec 10 09:18:26 2020.

 --------------------------------------------------------------------
 #N Geom=AllCheck Guess=TCheck SCRF=Check GenChk RB3LYP/6-31G(d) Freq
 --------------------------------------------------------------------

 Structure from the checkpoint file:  "JID_4183.chk"
 -------------------------------
 CID_150361546_JID_4183_neutraal
 -------------------------------
 Charge =  0 Multiplicity = 1

 SCF Done:  E(RB3LYP) =  -979.733052306     A.U. after    1 cycles

  Exact polarizability: 164.953  -4.805 141.355  -6.130  -6.528  85.750
 Approx polarizability: 258.492 -12.737 273.913 -10.518 -22.728 178.087

                      1                      2                      3
                      A                      A                      A
 Frequencies --     27.3525                33.2699                88.8037
 Red. masses --     11.2956                 9.6689                 5.7100
 Frc consts  --      0.0050                 0.0063                 0.0265
 IR Inten    --      0.5945                 0.9281                 1.0802

                      4                      5                      6
                      A                      A                      A
 Frequencies --    161.8664               179.1341               200.3098
 Red. masses --      6.9051                 6.3891                11.7098
 Frc consts  --      0.1066                 0.1208                 0.2768
 IR Inten    --      1.9667                 3.3602                 1.9751

                      7                      8                      9
                      A                      A                      A
 Frequencies --    227.5288               277.6911               381.0565
 Red. masses --      7.3036                 6.7476                10.1814
 Frc consts  --      0.2228                 0.3066                 0.8710
 IR Inten    --      1.7307                 5.9373                 2.5329

                     10                     11                     12
                      A                      A                      A
 Frequencies --    422.6744               436.2271               456.9799
 Red. masses --      4.3194                 5.0052                 4.6861
 Frc consts  --      0.4547                 0.5612                 0.5766
 IR Inten    --      0.1748                 4.1685                 0.5851

                     13                     14                     15
                      A                      A                      A
 Frequencies --    528.4674               543.6568               546.2340
 Red. masses --      9.0229                 7.8544                12.6577
 Frc consts  --      1.4847                 1.3678                 2.2252
 IR Inten    --      2.5674                13.5279                15.3463

                     16                     17                     18
                      A                      A                      A
 Frequencies --    576.6034               583.3706               662.5103
 Red. masses --     13.9133                 4.5919                 5.4104
 Frc consts  --      2.7254                 0.9207                 1.3992
 IR Inten    --      8.9470                 4.5832                 0.2618

                     19                     20                     21
                      A                      A                      A
 Frequencies --    696.9816               714.6795               771.8242
 Red. masses --      6.7564                14.4072                 1.3808
 Frc consts  --      1.9338                 4.3356                 0.4847
 IR Inten    --      7.0106                 2.3439                40.2887

                     22                     23                     24
                      A                      A                      A
 Frequencies --    797.8009               817.4770               882.7820
 Red. masses --      3.2392                 7.3272                 5.6815
 Frc consts  --      1.2147                 2.8850                 2.6087
 IR Inten    --      7.3302                 2.2241                 1.7764

                     25                     26                     27
                      A                      A                      A
 Frequencies --    885.8452               945.3093               974.8751
 Red. masses --      1.4567                 1.4133                 1.3740
 Frc consts  --      0.6735                 0.7441                 0.7694
 IR Inten    --      1.4191                 3.9803                 3.7351

                     28                     29                     30
                      A                      A                      A
 Frequencies --   1007.7644              1011.0547              1019.1380
 Red. masses --      1.3779                 5.3259                 7.9721
 Frc consts  --      0.8245                 3.2077                 4.8786
 IR Inten    --      0.4017                12.4820                 6.2749

                     31                     32                     33
                      A                      A                      A
 Frequencies --   1060.8199              1175.6848              1202.5488
 Red. masses --      2.2424                 1.4656                 1.1851
 Frc consts  --      1.4868                 1.1936                 1.0098
 IR Inten    --      1.3673                 0.7371                 3.5678

                     34                     35                     36
                      A                      A                      A
 Frequencies --   1219.0394              1266.3116              1295.1757
 Red. masses --     13.6116                 1.8572                 3.0475
 Frc consts  --     11.9178                 1.7547                 3.0119
 IR Inten    --    152.4326                 9.1601                49.7282

                     37                     38                     39
                      A                      A                      A
 Frequencies --   1312.5133              1339.6054              1411.5704
 Red. masses --      2.3555                 3.9735                 3.2986
 Frc consts  --      2.3907                 4.2012                 3.8724
 IR Inten    --     20.1465                 0.3029                 9.5614

                     40                     41                     42
                      A                      A                      A
 Frequencies --   1426.5461              1477.3371              1533.9897
 Red. masses --      4.3089                 2.2737                 2.5581
 Frc consts  --      5.1664                 2.9237                 3.5466
 IR Inten    --     25.0263                 0.4020                 4.4667

                     43                     44                     45
                      A                      A                      A
 Frequencies --   1593.7953              1623.6938              1674.4108
 Red. masses --      6.0959                 6.0143                 5.6738
 Frc consts  --      9.1234                 9.3421                 9.3724
 IR Inten    --     26.1561                 4.9839                 1.6226

                     46                     47                     48
                      A                      A                      A
 Frequencies --   2235.3205              3176.7669              3194.0459
 Red. masses --     14.0015                 1.0907                 1.0868
 Frc consts  --     41.2197                 6.4855                 6.5327
 IR Inten    --    512.7614                13.6653                 0.6516

                     49                     50                     51
                      A                      A                      A
 Frequencies --   3204.1423              3217.0172              3249.1075
 Red. masses --      1.0909                 1.0960                 1.0929
 Frc consts  --      6.5987                 6.6831                 6.7978
 IR Inten    --     12.6503                18.5212                 0.9062

 - Thermochemistry -
 -------------------
 Temperature   298.150 Kelvin.  Pressure   1.00000 Atm.
 Atom     1 has atomic number  6 and mass  12.00000

 Molecular mass:   203.02657 amu.
 Principal axes and moments of inertia in atomic units:
                           1         2         3
     Eigenvalues --  1888.067553584.459484584.36298
           X            0.99982  -0.01695  -0.00854
           Y            0.01679   0.99968  -0.01892
           Z            0.00886   0.01877   0.99978
 This molecule is an asymmetric top.
 Rotational symmetry number  1.
 Warning -- assumption of classical behavior for rotation
           may cause significant error
 Rotational temperatures (Kelvin)      0.04587     0.02416     0.01889
 Rotational constants (GHZ):           0.95587     0.50349     0.39367
 Zero-point vibrational energy     333451.3 (Joules/Mol)
                                   79.69678 (Kcal/Mol)
 Warning -- explicit consideration of  17 degrees of freedom as
           vibrations may cause significant error
 Vibrational temperatures:     39.35    47.87   127.77   232.89   257.73
          (Kelvin)            288.20   327.36   399.54   548.26   608.13
                              627.63   657.49   760.35   782.20   785.91
                              829.60   839.34   953.20  1002.80  1028.26
                             1110.48  1147.86  1176.17  1270.13  1274.53
                             1360.09  1402.63  1449.95  1454.68  1466.31
                             1526.28  1691.55  1730.20  1753.93  1821.94
                             1863.47  1888.41  1927.39  2030.93  2052.48
                             2125.56  2207.07  2293.12  2336.13  2409.10
                             3216.13  4570.66  4595.52  4610.05  4628.57
                             4674.74

 Zero-point correction=                           0.127005 (Hartree/Particle)
 Thermal correction to Energy=                    0.138226
 Thermal correction to Enthalpy=                  0.139170
 Thermal correction to Gibbs Free Energy=         0.087686
 Sum of electronic and zero-point Energies=           -979.606047
 Sum of electronic and thermal Energies=              -979.594827
 Sum of electronic and thermal Enthalpies=            -979.593882
 Sum of electronic and thermal Free Energies=         -979.645366

                     E (Thermal)             CV                S
                      KCal/Mol        Cal/Mol-Kelvin    Cal/Mol-Kelvin
 Total                   86.738             41.811            108.357
 Electronic               0.000              0.000              0.000
 Translational            0.889              2.981             41.829
 Rotational               0.889              2.981             31.806
 Vibrational             84.961             35.849             34.722
 Vibration     1          0.593              1.984              6.013
 Vibration     2          0.594              1.983              5.624
 Vibration     3          0.602              1.957              3.686
 Vibration     4          0.622              1.889              2.528
 Vibration     5          0.629              1.868              2.337
 Vibration     6          0.638              1.839              2.130
 Vibration     7          0.651              1.799              1.898
 Vibration     8          0.679              1.715              1.548
 Vibration     9          0.751              1.511              1.035
 Vibration    10          0.785              1.421              0.883
 Vibration    11          0.797              1.391              0.839
 Vibration    12          0.815              1.345              0.775
 Vibration    13          0.883              1.187              0.591
 Vibration    14          0.899              1.154              0.557
 Vibration    15          0.901              1.148              0.552
 Vibration    16          0.933              1.082              0.492
 Vibration    17          0.940              1.067              0.479

 Optimization completed.
    -- Stationary point found.
 Normal termination of Gaussian 16 at Thu Dec 10 09:23:15 2020.

 ----------------------------------------------------------------------
 # B3LYP/6-311++G(d,p) empiricaldispersion=gd3bj scf=xqc pop=npa geom=c
 heck
 ----------------------------------------------------------------------

 ---------------------------------------
 CID_150361546_JID_4183_Energie_neutraal
 ---------------------------------------
 Structure from the checkpoint file:  "JID_4183.chk"
 Charge =  0 Multiplicity = 1

 SCF Done:  E(RB3LYP) =  -979.906483722     A.U. after   17 cycles
 Normal termination of Gaussian 16 at Thu Dec 10 09:24:57 2020.

 ----------------------------------------------------------------------
 # B3LYP/6-311++G(d,p) empiricaldispersion=gd3bj scf=xqc pop=npa geom=c
 heck
 ----------------------------------------------------------------------

 -------------------------------------
 CID_150361546_JID_4183_Energie_kation
 -------------------------------------
 Structure from the checkpoint file:  "JID_4183.chk"
 Charge =  1 Multiplicity = 2

 SCF Done:  E(UB3LYP) =  -979.582544624     A.U. after   33 cycles
 SCF Done:  E(UB3LYP) =  -979.582544624     a.u. after    1 cycles
 Normal termination of Gaussian 16 at Thu Dec 10 09:29:21 2020.
 Gaussian 16:  ES64L-G16RevA.03 25-Dec-2016

 ----------------------------------------------------------------------
 # B3LYP/6-311++G(d,p) empiricaldispersion=gd3bj scf=xqc pop=npa geom=c
 heck
 ----------------------------------------------------------------------

 ------------------------------------
 CID_150361546_JID_4183_Energie_anion
 ------------------------------------
 Structure from the checkpoint file:  "JID_4183.chk"
 Charge = -1 Multiplicity = 2

                         Standard orientation:
 ---------------------------------------------------------------------
 Center     Atomic      Atomic             Coordinates (Angstroms)
 Number     Number       Type             X           Y           Z
 ---------------------------------------------------------------------
      1          6           0        2.937181   -1.738116   -0.164999
      2          6           0        1.748876   -2.267250    0.388706
      3          6           0        0.644899   -1.467093    0.602620
      4          6           0        0.700921   -0.096210    0.261492
      5          6           0        1.902305    0.439796   -0.273368
      6          6           0        3.017615   -0.401043   -0.489413
      7          6           0        1.923107    1.839481   -0.525514
      8          7           0        0.919380    2.655048   -0.303768
      9          7           0       -0.260409    2.137515    0.148559
     10          6           0       -0.359961    0.855135    0.418040
     11         16           0       -1.957166    0.436892    1.126226
     12          7           0       -2.383619   -1.044311    0.246502
     13          7           0       -2.888254   -0.814297   -0.873628
     14          7           0       -3.353033   -0.749777   -1.909827
     15          1           0        3.789993   -2.390614   -0.326217
     16          1           0        1.706188   -3.320238    0.650362
     17          1           0       -0.264731   -1.882933    1.016839
     18          1           0        3.929047    0.021788   -0.902584
     19          1           0        2.826047    2.304281   -0.918269
 ---------------------------------------------------------------------

 SCF Done:  E(UB3LYP) =  -979.947428821     A.U. after   27 cycles

 The electronic state is 2-A.
 Alpha  occ. eigenvalues --  -88.73596 -14.34358 -14.24832 -14.23547 -14.19703
 Alpha  occ. eigenvalues --  -14.19202 -10.09062 -10.06988 -10.06797 -10.06357
 Alpha  occ. eigenvalues --  -10.06232 -10.05711 -10.05489 -10.04824  -7.82004
 Alpha  occ. eigenvalues --   -5.78596  -5.78002  -5.77266  -1.00902  -0.86699
 Alpha  occ. eigenvalues --   -0.84491  -0.74373  -0.70873  -0.65623  -0.63353
 Alpha  occ. eigenvalues --   -0.61044  -0.52720  -0.51607  -0.48178  -0.42077
 Alpha  occ. eigenvalues --   -0.40349  -0.38711  -0.38259  -0.37817  -0.36196
 Alpha  occ. eigenvalues --   -0.33108  -0.32547  -0.32019  -0.30109  -0.30013
 Alpha  occ. eigenvalues --   -0.26174  -0.25114  -0.24316  -0.23333  -0.20902
 Alpha  occ. eigenvalues --   -0.17874  -0.17535  -0.15150  -0.13270  -0.12535
 Alpha  occ. eigenvalues --   -0.10355  -0.10169   0.01701
 Alpha virt. eigenvalues --    0.06474   0.07903   0.08223   0.09462   0.10465
 Alpha virt. eigenvalues --    0.11063   0.11879   0.12774   0.13217   0.14021
 Alpha virt. eigenvalues --    0.14954   0.15164   0.15674   0.16903   0.17425

  Beta  occ. eigenvalues --  -88.73509 -14.34208 -14.24532 -14.23453 -14.19706
  Beta  occ. eigenvalues --  -14.19008 -10.08851 -10.07012 -10.06870 -10.06223
  Beta  occ. eigenvalues --  -10.06045 -10.05616 -10.05277 -10.04678  -7.81917
  Beta  occ. eigenvalues --   -5.78368  -5.77949  -5.77196  -1.00505  -0.86354
  Beta  occ. eigenvalues --   -0.84145  -0.74153  -0.70439  -0.65347  -0.63024
  Beta  occ. eigenvalues --   -0.60534  -0.52209  -0.51446  -0.47835  -0.41847
  Beta  occ. eigenvalues --   -0.39924  -0.38328  -0.37587  -0.37487  -0.35941
  Beta  occ. eigenvalues --   -0.32966  -0.31938  -0.31843  -0.29954  -0.29218
  Beta  occ. eigenvalues --   -0.25951  -0.24867  -0.23498  -0.23204  -0.20054
  Beta  occ. eigenvalues --   -0.17496  -0.16849  -0.14546  -0.12963  -0.11646
  Beta  occ. eigenvalues --   -0.10069  -0.09531
  Beta virt. eigenvalues --    0.06730   0.07862   0.08375   0.08645   0.09465
  Beta virt. eigenvalues --    0.10610   0.11341   0.12390   0.12918   0.13353
  Beta virt. eigenvalues --    0.14267   0.15033   0.15341   0.15928   0.16998

 Mulliken charges and spin densities:
               1          2
     1  C   -0.244715   0.012103
     2  C   -0.288025   0.079657
     3  C   -1.078635   0.084548
     4  C    1.808822   0.003625
     5  C    1.216245  -0.068756
     6  C   -0.808153   0.142475
     7  C   -0.455852   0.237230
     8  N   -0.150270  -0.015645
     9  N    0.189004   0.068610
    10  C   -1.350058   0.123731
    11  S   -0.233270   0.183307
    12  N   -0.492459   0.031026
    13  N    0.452744   0.018987
    14  N   -0.220235   0.143082
    15  H    0.116953  -0.001215
    16  H    0.138023  -0.005952
    17  H    0.152229  -0.008955
    18  H    0.095602  -0.012420
    19  H    0.152048  -0.015439
 Sum of Mulliken charges =  -1.00000   1.00000

 Dipole moment (field-independent basis, Debye):
    X=              3.4136    Y=             -3.8050    Z=              0.6427  Tot=              5.1520
 Quadrupole moment (field-independent basis, Debye-Ang):
   XX=           -112.0494   YY=           -113.7002   ZZ=           -101.3017
   XY=             -1.3251   XZ=             -5.7483   YZ=             -0.8024

 Summary of Natural Population Analysis:

                                       Natural Population
                Natural  -----------------------------------------------
    Atom  No    Charge         Core      Valence    Rydberg      Total
 -----------------------------------------------------------------------
      C    1   -0.10411      0.99958     2.09524    0.00929     3.10411
      C    2   -0.08336      0.99958     2.07455    0.00923     3.08336
      C    3   -0.06577      0.99954     2.05741    0.00883     3.06577
      C    4   -0.04644      0.99943     2.03556    0.01145     3.04644
      C    5   -0.05149      0.99949     2.04427    0.00773     3.05149
      C    6   -0.05638      0.99954     2.04803    0.00881     3.05638
      C    7    0.08194      0.99958     1.90381    0.01467     2.91806
      N    8   -0.14619      0.99971     2.62983    0.01664     3.64619
      N    9   -0.11923      0.99964     2.60277    0.01682     3.61923
      C   10    0.06354      0.99944     1.91981    0.01722     2.93646
      S   11    0.21834      4.99952     2.75947    0.02267     7.78166
      N   12   -0.26676      0.99975     2.74778    0.01924     3.76676
      N   13    0.12035      0.99971     2.36360    0.01634     3.37965
      N   14   -0.01135      0.99982     2.49820    0.01334     3.51135
      H   15    0.09206      0.00000     0.40693    0.00102     0.40794
      H   16    0.09233      0.00000     0.40670    0.00097     0.40767
      H   17    0.11083      0.00000     0.38788    0.00129     0.38917
      H   18    0.09150      0.00000     0.40685    0.00165     0.40850
      H   19    0.08019      0.00000     0.41799    0.00182     0.41981
 =======================================================================
   * Total *   -0.00000     17.99431    33.80667    0.19901    52.00000

 Normal termination of Gaussian 16 at Thu Dec 10 09:33:02 2020.
