 Gaussian 16, Revision A.03,

 -----------------------------------------------------------
 # opt freq B3LYP/6-31G(d) empiricaldispersion=gd3bj scf=xqc
 -----------------------------------------------------------

 -------------------------------
 CID_102595616_JID_3809_neutraal
 -------------------------------
 Symbolic Z-matrix:
 Charge =  0 Multiplicity = 1

 SCF Done:  E(RB3LYP) =  -668.359187820     A.U. after   15 cycles
 SCF Done:  E(RB3LYP) =  -668.369276397     A.U. after   13 cycles
 SCF Done:  E(RB3LYP) =  -668.371734526     A.U. after   13 cycles
 SCF Done:  E(RB3LYP) =  -668.374042619     A.U. after   13 cycles
 SCF Done:  E(RB3LYP) =  -668.376533712     A.U. after   13 cycles
 SCF Done:  E(RB3LYP) =  -668.378129693     A.U. after   12 cycles
 SCF Done:  E(RB3LYP) =  -668.378564602     A.U. after   12 cycles
 SCF Done:  E(RB3LYP) =  -668.378788763     A.U. after   12 cycles
 SCF Done:  E(RB3LYP) =  -668.378894183     A.U. after   11 cycles
 SCF Done:  E(RB3LYP) =  -668.378994204     A.U. after   12 cycles
 SCF Done:  E(RB3LYP) =  -668.379043850     A.U. after   10 cycles
 SCF Done:  E(RB3LYP) =  -668.379048294     A.U. after    9 cycles
 SCF Done:  E(RB3LYP) =  -668.379050423     A.U. after    9 cycles
 SCF Done:  E(RB3LYP) =  -668.379050892     A.U. after    8 cycles
 SCF Done:  E(RB3LYP) =  -668.379050986     A.U. after    8 cycles
 Optimization completed.
    -- Stationary point found.
 Normal termination of Gaussian 16 at Mon Dec 14 13:16:30 2020.

 --------------------------------------------------------------------
 #N Geom=AllCheck Guess=TCheck SCRF=Check GenChk RB3LYP/6-31G(d) Freq
 --------------------------------------------------------------------

 Structure from the checkpoint file:  "JID_3809.chk"
 -------------------------------
 CID_102595616_JID_3809_neutraal
 -------------------------------
 Charge =  0 Multiplicity = 1

 SCF Done:  E(RB3LYP) =  -668.379050986     A.U. after    1 cycles

  Exact polarizability: 113.894   3.618  96.272   3.879   2.179  87.399
 Approx polarizability: 166.548   9.265 123.574  13.681   2.419 135.270

                      1                      2                      3
                      A                      A                      A
 Frequencies --     38.2456                51.1874                68.1747
 Red. masses --      4.4392                 2.9735                 2.9195
 Frc consts  --      0.0038                 0.0046                 0.0080
 IR Inten    --      0.2472                 0.1491                 0.6189

                      4                      5                      6
                      A                      A                      A
 Frequencies --     68.9599               117.4005               146.8093
 Red. masses --      2.9201                 2.6671                 7.4698
 Frc consts  --      0.0082                 0.0217                 0.0949
 IR Inten    --      0.6174                 4.3841                 4.8118

                      7                      8                      9
                      A                      A                      A
 Frequencies --    168.1703               221.5664               232.4149
 Red. masses --      3.4091                 1.6536                 1.5991
 Frc consts  --      0.0568                 0.0478                 0.0509
 IR Inten    --      3.1050                 1.0238                 0.1557

                     10                     11                     12
                      A                      A                      A
 Frequencies --    265.8723               290.9456               305.0834
 Red. masses --      1.9273                 2.6788                 2.4662
 Frc consts  --      0.0803                 0.1336                 0.1352
 IR Inten    --      1.3163                 1.2434                 3.0398

                     13                     14                     15
                      A                      A                      A
 Frequencies --    354.9487               374.5844               420.2033
 Red. masses --      3.4613                 4.4904                 4.4209
 Frc consts  --      0.2569                 0.3712                 0.4599
 IR Inten    --      2.2742                 9.5091                22.6533

                     16                     17                     18
                      A                      A                      A
 Frequencies --    428.9722               512.8132               554.4722
 Red. masses --      2.9786                 3.0782                 3.0511
 Frc consts  --      0.3229                 0.4769                 0.5527
 IR Inten    --      1.1221                11.9219                 0.6585

                     19                     20                     21
                      A                      A                      A
 Frequencies --    601.9652               630.3722               667.5996
 Red. masses --      4.9929                 8.9867                 4.1380
 Frc consts  --      1.0660                 2.1040                 1.0866
 IR Inten    --      9.3745                 3.6508                 7.6375

                     22                     23                     24
                      A                      A                      A
 Frequencies --    679.7122               724.4709               769.8143
 Red. masses --      1.2752                 4.2811                 4.3141
 Frc consts  --      0.3471                 1.3239                 1.5063
 IR Inten    --     92.4562                22.8113                27.0492

                     25                     26                     27
                      A                      A                      A
 Frequencies --    814.3942               817.6380               858.7420
 Red. masses --      1.2518                 1.1818                 2.1186
 Frc consts  --      0.4892                 0.4655                 0.9205
 IR Inten    --      0.7574                 2.7315                 8.0666

                     28                     29                     30
                      A                      A                      A
 Frequencies --    887.2188               936.2230               955.1767
 Red. masses --      3.1968                 2.2919                 2.2738
 Frc consts  --      1.4826                 1.1836                 1.2223
 IR Inten    --      4.6163                 2.5307                10.9841

                     31                     32                     33
                      A                      A                      A
 Frequencies --   1045.8050              1059.4667              1089.1048
 Red. masses --      4.0659                 3.7197                 3.5411
 Frc consts  --      2.6201                 2.4600                 2.4747
 IR Inten    --     35.8319                54.7044                60.5111

                     34                     35                     36
                      A                      A                      A
 Frequencies --   1112.1965              1129.0567              1139.8993
 Red. masses --      2.7185                 1.9971                 2.0535
 Frc consts  --      1.9813                 1.5000                 1.5721
 IR Inten    --    263.9570                 9.1562                32.2879

                     37                     38                     39
                      A                      A                      A
 Frequencies --   1170.0317              1201.9429              1215.0883
 Red. masses --      2.1210                 1.5263                 3.1359
 Frc consts  --      1.7107                 1.2991                 2.7279
 IR Inten    --     32.6005                16.3166               177.7646

                     40                     41                     42
                      A                      A                      A
 Frequencies --   1234.6721              1256.7816              1306.4267
 Red. masses --      2.3501                 2.0511                 2.6419
 Frc consts  --      2.1107                 1.9088                 2.6567
 IR Inten    --    123.8314               104.7777                94.5120

                     43                     44                     45
                      A                      A                      A
 Frequencies --   1338.4967              1340.3264              1358.7269
 Red. masses --      1.1891                 1.2369                 3.5742
 Frc consts  --      1.2552                 1.3092                 3.8877
 IR Inten    --     15.1083                29.5884                33.5063

                     46                     47                     48
                      A                      A                      A
 Frequencies --   1377.5004              1414.6388              1419.9443
 Red. masses --      2.0518                 1.2388                 1.2394
 Frc consts  --      2.2939                 1.4606                 1.4724
 IR Inten    --     53.3747                 2.6272                 0.6043

                     49                     50                     51
                      A                      A                      A
 Frequencies --   1444.7975              1447.4572              1473.6254
 Red. masses --      1.3058                 1.3224                 1.0928
 Frc consts  --      1.6060                 1.6324                 1.3982
 IR Inten    --     13.6144                25.8362                11.0771

                     52                     53                     54
                      A                      A                      A
 Frequencies --   1516.1031              1519.9236              1526.1782
 Red. masses --      1.0407                 1.0427                 1.0495
 Frc consts  --      1.4094                 1.4192                 1.4403
 IR Inten    --      4.0293                 5.3069                 0.5171

                     55                     56                     57
                      A                      A                      A
 Frequencies --   1531.0099              1543.6338              1550.5000
 Red. masses --      1.0491                 1.0817                 1.0830
 Frc consts  --      1.4489                 1.5187                 1.5340
 IR Inten    --      2.2979                 4.5399                 2.7946

                     58                     59                     60
                      A                      A                      A
 Frequencies --   1832.8837              1882.1733              3033.6684
 Red. masses --      9.8532                12.4905                 1.0583
 Frc consts  --     19.5029                26.0705                 5.7386
 IR Inten    --    627.3081               109.2220                34.9534

                     61                     62                     63
                      A                      A                      A
 Frequencies --   3058.0920              3060.1141              3073.2541
 Red. masses --      1.0361                 1.0373                 1.1053
 Frc consts  --      5.7088                 5.7228                 6.1509
 IR Inten    --     18.8752                16.4948                40.7421

                     64                     65                     66
                      A                      A                      A
 Frequencies --   3076.9426              3095.3903              3123.6570
 Red. masses --      1.0675                 1.0655                 1.1023
 Frc consts  --      5.9548                 6.0152                 6.3368
 IR Inten    --     39.5329                 2.4466                21.2257

                     67                     68                     69
                      A                      A                      A
 Frequencies --   3128.9696              3136.5726              3153.2593
 Red. masses --      1.1016                 1.0988                 1.1035
 Frc consts  --      6.3544                 6.3693                 6.4646
 IR Inten    --     26.5316                18.3281                17.9891

                     70                     71                     72
                      A                      A                      A
 Frequencies --   3157.2663              3162.2342              3596.9373
 Red. masses --      1.1030                 1.0999                 1.0787
 Frc consts  --      6.4782                 6.4800                 8.2227
 IR Inten    --     23.1815                 0.5303                47.2268

 - Thermochemistry -
 -------------------
 Temperature   298.150 Kelvin.  Pressure   1.00000 Atm.
 Atom     1 has atomic number  6 and mass  12.00000

 Molecular mass:   187.08446 amu.
 Principal axes and moments of inertia in atomic units:
                           1         2         3
     Eigenvalues --  2008.391902459.557333314.73210
           X            0.99802  -0.06241   0.00732
           Y            0.06235   0.99802   0.00779
           Z           -0.00779  -0.00732   0.99994
 This molecule is an asymmetric top.
 Rotational symmetry number  1.
 Warning -- assumption of classical behavior for rotation
           may cause significant error
 Rotational temperatures (Kelvin)      0.04313     0.03522     0.02613
 Rotational constants (GHZ):           0.89860     0.73377     0.54446
 Zero-point vibrational energy     564032.7 (Joules/Mol)
                                  134.80705 (Kcal/Mol)
 Warning -- explicit consideration of  19 degrees of freedom as
           vibrations may cause significant error
 Vibrational temperatures:     55.03    73.65    98.09    99.22   168.91
          (Kelvin)            211.23   241.96   318.78   334.39   382.53
                              418.61   438.95   510.69   538.94   604.58
                              617.20   737.82   797.76   866.09   906.97
                              960.53   977.95  1042.35  1107.59  1171.73
                             1176.40  1235.54  1276.51  1347.02  1374.29
                             1504.68  1524.34  1566.98  1600.20  1624.46
                             1640.06  1683.41  1729.33  1748.24  1776.42
                             1808.23  1879.66  1925.80  1928.43  1954.90
                             1981.92  2035.35  2042.98  2078.74  2082.57
                             2120.22  2181.33  2186.83  2195.83  2202.78
                             2220.94  2230.82  2637.11  2708.03  4364.77
                             4399.91  4402.82  4421.73  4427.03  4453.58
                             4494.25  4501.89  4512.83  4536.84  4542.60
                             4549.75  5175.19

 Zero-point correction=                           0.214829 (Hartree/Particle)
 Thermal correction to Energy=                    0.228363
 Thermal correction to Enthalpy=                  0.229307
 Thermal correction to Gibbs Free Energy=         0.173817
 Sum of electronic and zero-point Energies=           -668.164222
 Sum of electronic and thermal Energies=              -668.150688
 Sum of electronic and thermal Enthalpies=            -668.149744
 Sum of electronic and thermal Free Energies=         -668.205234

                     E (Thermal)             CV                S
                      KCal/Mol        Cal/Mol-Kelvin    Cal/Mol-Kelvin
 Total                  143.300             49.230            116.789
 Electronic               0.000              0.000              0.000
 Translational            0.889              2.981             41.585
 Rotational               0.889              2.981             31.171
 Vibrational            141.522             43.269             44.032
 Vibration     1          0.594              1.982              5.348
 Vibration     2          0.595              1.977              4.771
 Vibration     3          0.598              1.969              4.205
 Vibration     4          0.598              1.969              4.183
 Vibration     5          0.608              1.935              3.143
 Vibration     6          0.617              1.906              2.713
 Vibration     7          0.625              1.882              2.456
 Vibration     8          0.648              1.808              1.946
 Vibration     9          0.653              1.791              1.860
 Vibration    10          0.672              1.736              1.623
 Vibration    11          0.687              1.691              1.468
 Vibration    12          0.696              1.664              1.389
 Vibration    13          0.731              1.565              1.144
 Vibration    14          0.746              1.524              1.061
 Vibration    15          0.783              1.426              0.891
 Vibration    16          0.790              1.407              0.862
 Vibration    17          0.868              1.222              0.627
 Vibration    18          0.910              1.130              0.535
 Vibration    19          0.960              1.028              0.446

                           ! Non-Optimized Parameters !
 Normal termination of Gaussian 16 at Mon Dec 14 13:23:17 2020.

 ----------------------------------------------------------------------
 # B3LYP/6-311++G(d,p) empiricaldispersion=gd3bj scf=xqc pop=npa geom=c
 heck
 ----------------------------------------------------------------------

 ---------------------------------------
 CID_102595616_JID_3809_Energie_neutraal
 ---------------------------------------
 Structure from the checkpoint file:  "JID_3809.chk"
 Charge =  0 Multiplicity = 1

 SCF Done:  E(RB3LYP) =  -668.579891699     A.U. after   15 cycles
 Normal termination of Gaussian 16 at Mon Dec 14 13:26:12 2020.

 ----------------------------------------------------------------------
 # B3LYP/6-311++G(d,p) empiricaldispersion=gd3bj scf=xqc pop=npa geom=c
 heck
 ----------------------------------------------------------------------

 -------------------------------------
 CID_102595616_JID_3809_Energie_kation
 -------------------------------------
 Structure from the checkpoint file:  "JID_3809.chk"
 Charge =  1 Multiplicity = 2

 SCF Done:  E(UB3LYP) =  -668.243040727     A.U. after   25 cycles
 Normal termination of Gaussian 16 at Mon Dec 14 13:33:04 2020.
 Gaussian 16:  ES64L-G16RevA.03 25-Dec-2016

 ----------------------------------------------------------------------
 # B3LYP/6-311++G(d,p) empiricaldispersion=gd3bj scf=xqc pop=npa geom=c
 heck
 ----------------------------------------------------------------------

 ------------------------------------
 CID_102595616_JID_3809_Energie_anion
 ------------------------------------
 Structure from the checkpoint file:  "JID_3809.chk"
 Charge = -1 Multiplicity = 2

                         Standard orientation:
 ---------------------------------------------------------------------
 Center     Atomic      Atomic             Coordinates (Angstroms)
 Number     Number       Type             X           Y           Z
 ---------------------------------------------------------------------
      1          6           0        0.688145    3.224103    0.270267
      2          6           0        1.208155    2.060053   -0.556626
      3          8           0        0.099298    1.266029   -1.040241
      4          6           0        0.013832   -0.044810   -0.575177
      5          6           0       -1.287666   -0.631537   -1.152835
      6          6           0       -2.311565   -0.533704   -0.032659
      7          8           0       -3.507422   -0.701211   -0.085738
      8          7           0       -1.603825   -0.235521    1.137830
      9          6           0       -0.246163   -0.023838    0.968255
     10          8           0        0.554861    0.191416    1.853636
     11          8           0        1.190559   -0.717901   -0.917539
     12          6           0        1.396049   -2.018423   -0.347569
     13          6           0        2.704746   -2.032728    0.423875
     14          1           0       -0.041815    3.807458   -0.300344
     15          1           0        1.515811    3.885857    0.550651
     16          1           0        0.212288    2.868478    1.188897
     17          1           0        1.735975    2.414015   -1.448255
     18          1           0        1.891954    1.432827    0.017259
     19          1           0       -1.162466   -1.685259   -1.422467
     20          1           0       -1.616801   -0.084111   -2.037386
     21          1           0       -2.063645   -0.153690    2.038009
     22          1           0        0.561763   -2.290655    0.312504
     23          1           0        1.408904   -2.742791   -1.171292
     24          1           0        2.649564   -1.333472    1.262424
     25          1           0        2.913024   -3.037711    0.808377
     26          1           0        3.530653   -1.733653   -0.229328
 ---------------------------------------------------------------------

 SCF Done:  E(UB3LYP) =  -668.570242741     A.U. after   33 cycles
 SCF Done:  E(UB3LYP) =  -668.570242741     a.u. after    1 cycles

 The electronic state is 2-A.
 Alpha  occ. eigenvalues --  -19.02589 -19.02069 -18.98377 -18.98100 -14.24282
 Alpha  occ. eigenvalues --  -10.17687 -10.15757 -10.14570 -10.10963 -10.10958
 Alpha  occ. eigenvalues --  -10.07014 -10.05824 -10.05122  -0.97640  -0.93959
 Alpha  occ. eigenvalues --   -0.92343  -0.90712  -0.82662  -0.68630  -0.64493
 Alpha  occ. eigenvalues --   -0.64036  -0.56254  -0.52822  -0.51908  -0.49630
 Alpha  occ. eigenvalues --   -0.46386  -0.41920  -0.40055  -0.38756  -0.36008
 Alpha  occ. eigenvalues --   -0.35200  -0.34611  -0.33137  -0.32421  -0.30550
 Alpha  occ. eigenvalues --   -0.30319  -0.29845  -0.29060  -0.28339  -0.27991
 Alpha  occ. eigenvalues --   -0.26472  -0.26004  -0.24802  -0.22866  -0.22103
 Alpha  occ. eigenvalues --   -0.19438  -0.17714  -0.17472  -0.14714  -0.13030
 Alpha  occ. eigenvalues --    0.05094
 Alpha virt. eigenvalues --    0.07219   0.07340   0.08647   0.09038   0.09972
 Alpha virt. eigenvalues --    0.10424   0.10615   0.11478   0.11984   0.12888
 Alpha virt. eigenvalues --    0.13294   0.13816   0.14307   0.14833   0.15958

  Beta  occ. eigenvalues --  -19.02551 -19.02066 -18.98192 -18.97843 -14.24360
  Beta  occ. eigenvalues --  -10.17697 -10.15528 -10.14268 -10.10953 -10.10911
  Beta  occ. eigenvalues --  -10.07016 -10.05809 -10.05106  -0.97539  -0.93619
  Beta  occ. eigenvalues --   -0.91900  -0.90662  -0.82517  -0.68598  -0.64440
  Beta  occ. eigenvalues --   -0.63980  -0.55920  -0.52589  -0.51840  -0.49418
  Beta  occ. eigenvalues --   -0.46277  -0.41786  -0.39946  -0.38629  -0.35894
  Beta  occ. eigenvalues --   -0.34955  -0.34165  -0.32948  -0.32238  -0.30345
  Beta  occ. eigenvalues --   -0.30186  -0.29504  -0.28803  -0.28202  -0.27899
  Beta  occ. eigenvalues --   -0.26264  -0.25833  -0.24078  -0.22779  -0.22060
  Beta  occ. eigenvalues --   -0.19312  -0.17612  -0.16875  -0.14588  -0.12855
  Beta virt. eigenvalues --    0.07296   0.08134   0.08789   0.09488   0.10133
  Beta virt. eigenvalues --    0.10233   0.10754   0.11119   0.11694   0.12499
  Beta virt. eigenvalues --    0.13272   0.13411   0.14031   0.14548   0.15025

 Mulliken charges and spin densities:
               1          2
     1  C    0.118606  -0.573271
     2  C   -0.229201   0.239596
     3  O    0.021029   0.011508
     4  C   -1.774092   0.928247
     5  C    0.983592  -0.996997
     6  C   -0.057594   0.163227
     7  O   -0.399726   0.072477
     8  N   -0.250438   0.057702
     9  C    0.820335  -0.571155
    10  O   -0.328661   0.114955
    11  O    0.013427   0.002667
    12  C    0.233916  -0.311567
    13  C    0.606166  -1.144908
    14  H    0.091042   0.038117
    15  H   -0.124847   0.248653
    16  H   -0.049936   0.223585
    17  H   -0.138025   0.286830
    18  H    0.343497  -0.154159
    19  H   -0.299529   0.510067
    20  H    0.194192  -0.007178
    21  H    0.174621   0.145055
    22  H    0.048137   0.122715
    23  H   -0.814745   0.986755
    24  H    0.048295   0.116255
    25  H   -0.270275   0.399746
    26  H    0.040213   0.091075
 Sum of Mulliken charges =  -1.00000   1.00000

 Dipole moment (field-independent basis, Debye):
    X=              0.2873    Y=              3.5116    Z=              0.8136  Tot=              3.6160
 Quadrupole moment (field-independent basis, Debye-Ang):
   XX=           -123.3889   YY=           -123.4614   ZZ=           -103.9108
   XY=              2.0901   XZ=             -1.3097   YZ=             -7.2032

 Summary of Natural Population Analysis:

                                       Natural Population
                Natural  -----------------------------------------------
    Atom  No    Charge         Core      Valence    Rydberg      Total
 -----------------------------------------------------------------------
      C    1   -0.29498      0.99966     2.29101    0.00431     3.29498
      C    2   -0.01627      0.99957     2.00594    0.01075     3.01627
      O    3   -0.29998      0.99986     3.29000    0.01011     4.29998
      C    4    0.26983      0.99950     1.70872    0.02196     2.73017
      C    5   -0.25150      0.99955     2.24165    0.01030     3.25150
      C    6    0.37982      0.99970     1.59817    0.02231     2.62018
      O    7   -0.29135      0.99987     3.28557    0.00590     4.29135
      N    8   -0.33842      0.99964     2.83012    0.00866     3.83842
      C    9    0.36262      0.99963     1.61269    0.02505     2.63738
      O   10   -0.28792      0.99987     3.28122    0.00683     4.28792
      O   11   -0.31045      0.99985     3.29967    0.01093     4.31045
      C   12   -0.01213      0.99958     1.99956    0.01300     3.01213
      C   13   -0.29647      0.99965     2.29053    0.00628     3.29647
      H   14    0.09560      0.00000     0.40313    0.00127     0.40440
      H   15    0.09577      0.00000     0.40301    0.00122     0.40423
      H   16    0.10523      0.00000     0.39338    0.00138     0.39477
      H   17    0.08233      0.00000     0.41635    0.00132     0.41767
      H   18    0.09893      0.00000     0.39905    0.00201     0.40107
      H   19    0.11844      0.00000     0.37952    0.00204     0.38156
      H   20    0.11807      0.00000     0.38058    0.00135     0.38193
      H   21    0.19881      0.00000     0.29816    0.00302     0.30119
      H   22    0.08385      0.00000     0.41397    0.00218     0.41615
      H   23    0.08714      0.00000     0.40949    0.00337     0.41286
      H   24    0.10856      0.00000     0.39015    0.00129     0.39144
      H   25    0.09737      0.00000     0.40154    0.00109     0.40263
      H   26    0.09708      0.00000     0.40198    0.00094     0.40292
 =======================================================================
   * Total *    0.00000     12.99594    36.82517    0.17888    50.00000

 Normal termination of Gaussian 16 at Mon Dec 14 13:42:05 2020.
