 Gaussian 16, Revision A.03,

 -----------------------------------------------------------
 # opt freq B3LYP/6-31G(d) empiricaldispersion=gd3bj scf=xqc
 -----------------------------------------------------------

 -------------------------------
 CID_154164111_JID_9502_neutraal
 -------------------------------
 Symbolic Z-matrix:
 Charge =  0 Multiplicity = 1

 SCF Done:  E(RB3LYP) =  -883.355908251     A.U. after   15 cycles
 SCF Done:  E(RB3LYP) =  -883.362063714     A.U. after   13 cycles
 SCF Done:  E(RB3LYP) =  -883.362562893     A.U. after   14 cycles
 SCF Done:  E(RB3LYP) =  -883.363879895     A.U. after   12 cycles
 SCF Done:  E(RB3LYP) =  -883.364011294     A.U. after   13 cycles
 SCF Done:  E(RB3LYP) =  -883.364100034     A.U. after   13 cycles
 SCF Done:  E(RB3LYP) =  -883.363980743     A.U. after   13 cycles
 SCF Done:  E(RB3LYP) =  -883.364979233     A.U. after   11 cycles
 SCF Done:  E(RB3LYP) =  -883.364941296     A.U. after   11 cycles
 SCF Done:  E(RB3LYP) =  -883.364997247     A.U. after   12 cycles
 SCF Done:  E(RB3LYP) =  -883.365047294     A.U. after   10 cycles
 SCF Done:  E(RB3LYP) =  -883.365051378     A.U. after   10 cycles
 SCF Done:  E(RB3LYP) =  -883.365054779     A.U. after   10 cycles
 SCF Done:  E(RB3LYP) =  -883.365055339     A.U. after    8 cycles
 SCF Done:  E(RB3LYP) =  -883.365055290     A.U. after    7 cycles
 Optimization completed.
    -- Stationary point found.
 Normal termination of Gaussian 16 at Sun Dec 13 16:25:31 2020.

 --------------------------------------------------------------------
 #N Geom=AllCheck Guess=TCheck SCRF=Check GenChk RB3LYP/6-31G(d) Freq
 --------------------------------------------------------------------

 Structure from the checkpoint file:  "JID_9502.chk"
 -------------------------------
 CID_154164111_JID_9502_neutraal
 -------------------------------
 Charge =  0 Multiplicity = 1

 SCF Done:  E(RB3LYP) =  -883.365055290     A.U. after    1 cycles

  Exact polarizability: 140.826   3.893 171.202 -21.714   1.416 156.004
 Approx polarizability: 199.371  13.856 264.203 -47.864  -4.225 246.620

                      1                      2                      3
                      A                      A                      A
 Frequencies --     12.4309                38.6855                50.5955
 Red. masses --      4.5391                 4.5651                 3.3766
 Frc consts  --      0.0004                 0.0040                 0.0051
 IR Inten    --      0.6003                 0.8849                 0.3227

                      4                      5                      6
                      A                      A                      A
 Frequencies --     62.4837                77.8412                97.9065
 Red. masses --      3.0580                 4.3635                 4.1779
 Frc consts  --      0.0070                 0.0156                 0.0236
 IR Inten    --      0.1652                 0.2339                 0.7251

                      7                      8                      9
                      A                      A                      A
 Frequencies --    125.2399               141.1336               169.1985
 Red. masses --      4.8821                 3.3786                 5.3841
 Frc consts  --      0.0451                 0.0397                 0.0908
 IR Inten    --      0.3793                 0.9936                 2.8045

                     10                     11                     12
                      A                      A                      A
 Frequencies --    180.9094               223.2455               238.9893
 Red. masses --      3.9183                 2.7104                 1.7207
 Frc consts  --      0.0756                 0.0796                 0.0579
 IR Inten    --      2.1828                 0.4690                 3.3748

                     13                     14                     15
                      A                      A                      A
 Frequencies --    262.4577               319.9604               338.3232
 Red. masses --      4.0072                 2.5577                 2.2067
 Frc consts  --      0.1626                 0.1543                 0.1488
 IR Inten    --      0.3923                 1.8828                 0.2953

                     16                     17                     18
                      A                      A                      A
 Frequencies --    344.7383               365.5274               397.2437
 Red. masses --      2.7078                 2.6774                 5.6911
 Frc consts  --      0.1896                 0.2108                 0.5291
 IR Inten    --      6.9867                13.3523                 4.5290

                     19                     20                     21
                      A                      A                      A
 Frequencies --    421.5199               433.7118               454.7881
 Red. masses --      3.0300                 4.1708                 4.3000
 Frc consts  --      0.3172                 0.4622                 0.5240
 IR Inten    --      0.2673                 2.0134                 3.4587

                     22                     23                     24
                      A                      A                      A
 Frequencies --    468.9890               485.7091               537.3062
 Red. masses --      4.3041                 3.3071                 6.3231
 Frc consts  --      0.5578                 0.4597                 1.0755
 IR Inten    --      7.5263                 7.9468                10.2775

                     25                     26                     27
                      A                      A                      A
 Frequencies --    584.6932               604.2324               636.0148
 Red. masses --      4.3736                 4.5392                 6.3635
 Frc consts  --      0.8809                 0.9764                 1.5166
 IR Inten    --     12.0292                18.8882                 0.1918

                     28                     29                     30
                      A                      A                      A
 Frequencies --    653.5067               699.2971               715.1834
 Red. masses --      4.8800                 2.1926                 2.4441
 Frc consts  --      1.2279                 0.6317                 0.7366
 IR Inten    --      3.5213                 0.0979                31.1315

                     31                     32                     33
                      A                      A                      A
 Frequencies --    722.5039               750.8599               785.1289
 Red. masses --      4.2290                 1.8189                 1.8854
 Frc consts  --      1.3007                 0.6042                 0.6848
 IR Inten    --      2.5650                26.1826                 8.2444

                     34                     35                     36
                      A                      A                      A
 Frequencies --    809.5128               839.1276               866.8767
 Red. masses --      2.0128                 3.0779                 1.4940
 Frc consts  --      0.7771                 1.2769                 0.6615
 IR Inten    --     11.6342                 7.7865                 2.8245

                     37                     38                     39
                      A                      A                      A
 Frequencies --    871.9664               892.2529               923.5086
 Red. masses --      2.0564                 2.6594                 2.3639
 Frc consts  --      0.9212                 1.2474                 1.1879
 IR Inten    --      3.4428                12.5904                 6.9391

                     40                     41                     42
                      A                      A                      A
 Frequencies --    933.5976               940.6251               948.0450
 Red. masses --      1.6061                 2.4200                 1.3558
 Frc consts  --      0.8248                 1.2615                 0.7179
 IR Inten    --     17.2205                33.6846                36.4768

                     43                     44                     45
                      A                      A                      A
 Frequencies --    964.7179               980.6994               995.4048
 Red. masses --      2.2324                 1.3432                 1.6715
 Frc consts  --      1.2241                 0.7611                 0.9758
 IR Inten    --      1.9917                 1.4381                 9.9278

                     46                     47                     48
                      A                      A                      A
 Frequencies --   1005.7274              1019.2570              1024.6001
 Red. masses --      1.8696                 3.4807                 4.6775
 Frc consts  --      1.1142                 2.1305                 2.8932
 IR Inten    --      2.2152               139.1827                25.0114

                     49                     50                     51
                      A                      A                      A
 Frequencies --   1030.3346              1054.7211              1064.3038
 Red. masses --      1.1773                 3.7242                 2.3236
 Frc consts  --      0.7363                 2.4409                 1.5508
 IR Inten    --      1.7044                33.8657                 1.5102

                     52                     53                     54
                      A                      A                      A
 Frequencies --   1082.4710              1102.1369              1127.9830
 Red. masses --      2.6193                 3.2796                 1.7490
 Frc consts  --      1.8083                 2.3471                 1.3111
 IR Inten    --     53.8105                36.2723                 5.5379

                     55                     56                     57
                      A                      A                      A
 Frequencies --   1133.7599              1177.1520              1185.6967
 Red. masses --      1.9798                 2.8850                 3.4478
 Frc consts  --      1.4994                 2.3554                 2.8559
 IR Inten    --     23.1676                87.3432               131.6555

                     58                     59                     60
                      A                      A                      A
 Frequencies --   1194.2945              1205.1450              1217.5295
 Red. masses --      1.1297                 1.8015                 2.1431
 Frc consts  --      0.9493                 1.5416                 1.8718
 IR Inten    --      6.9599                27.3642                59.6415

                     61                     62                     63
                      A                      A                      A
 Frequencies --   1224.6534              1266.4643              1285.6713
 Red. masses --      1.1577                 1.2697                 2.3930
 Frc consts  --      1.0230                 1.1999                 2.3305
 IR Inten    --      2.0274                25.4884               150.5257

                     64                     65                     66
                      A                      A                      A
 Frequencies --   1328.2570              1340.0150              1341.8386
 Red. masses --      2.0404                 1.3669                 2.1688
 Frc consts  --      2.1210                 1.4461                 2.3008
 IR Inten    --     88.8105                13.5367                 3.4561

                     67                     68                     69
                      A                      A                      A
 Frequencies --   1345.9489              1371.3660              1379.9815
 Red. masses --      1.2904                 1.9285                 1.3701
 Frc consts  --      1.3773                 2.1369                 1.5373
 IR Inten    --     45.3710                11.7034                17.4484

                     70                     71                     72
                      A                      A                      A
 Frequencies --   1381.4404              1388.5143              1394.9030
 Red. masses --      1.2861                 1.2059                 1.2526
 Frc consts  --      1.4460                 1.3698                 1.4360
 IR Inten    --      5.1571                 5.2987                 4.6558

                     73                     74                     75
                      A                      A                      A
 Frequencies --   1406.6951              1408.1131              1422.4412
 Red. masses --      1.2806                 1.3507                 1.3340
 Frc consts  --      1.4930                 1.5779                 1.5903
 IR Inten    --      5.2032                13.1643                15.0637

                     76                     77                     78
                      A                      A                      A
 Frequencies --   1445.5618              1485.4757              1497.4597
 Red. masses --      1.3571                 1.2009                 2.1716
 Frc consts  --      1.6708                 1.5613                 2.8691
 IR Inten    --     10.9471                23.3174                 6.2729

                     79                     80                     81
                      A                      A                      A
 Frequencies --   1514.9178              1515.9235              1519.2154
 Red. masses --      1.1102                 1.0579                 1.0868
 Frc consts  --      1.5011                 1.4323                 1.4778
 IR Inten    --     22.1816                 3.1717                 5.1204

                     82                     83                     84
                      A                      A                      A
 Frequencies --   1539.0034              1549.9966              1645.4199
 Red. masses --      1.0580                 2.1198                 5.3727
 Frc consts  --      1.4764                 3.0007                 8.5703
 IR Inten    --      5.8211                 5.6639                 0.4817

                     85                     86                     87
                      A                      A                      A
 Frequencies --   1667.2425              1729.3852              1796.3343
 Red. masses --      5.4065                 4.4031                11.1446
 Frc consts  --      8.8544                 7.7587                21.1880
 IR Inten    --      1.0384                 0.1244               159.0090

                     88                     89                     90
                      A                      A                      A
 Frequencies --   3050.4862              3058.6078              3063.4040
 Red. masses --      1.0848                 1.0837                 1.0365
 Frc consts  --      5.9473                 5.9732                 5.7308
 IR Inten    --     22.0330                18.1668                18.3037

                     91                     92                     93
                      A                      A                      A
 Frequencies --   3093.5386              3097.2435              3097.5457
 Red. masses --      1.0681                 1.0844                 1.0625
 Frc consts  --      6.0224                 6.1292                 6.0061
 IR Inten    --     26.9714                43.2559                10.5352

                     94                     95                     96
                      A                      A                      A
 Frequencies --   3130.2127              3143.1754              3150.2876
 Red. masses --      1.1010                 1.1049                 1.0990
 Frc consts  --      6.3558                 6.4317                 6.4261
 IR Inten    --     20.7871                 4.1587                 8.0985

                     97                     98                     99
                      A                      A                      A
 Frequencies --   3155.0323              3163.2479              3183.0371
 Red. masses --      1.0607                 1.1074                 1.0853
 Frc consts  --      6.2211                 6.5285                 6.4784
 IR Inten    --     13.9263                22.5175                 0.0482

                    100                    101                    102
                      A                      A                      A
 Frequencies --   3193.3742              3206.6780              3222.2577
 Red. masses --      1.0898                 1.0951                 1.0931
 Frc consts  --      6.5480                 6.6349                 6.6870
 IR Inten    --     17.5240                28.8766                 6.8069

                    103                    104                    105
                      A                      A                      A
 Frequencies --   3231.3570              3239.6929              3262.5223
 Red. masses --      1.1112                 1.0911                 1.0942
 Frc consts  --      6.8360                 6.7470                 6.8618
 IR Inten    --      8.6905                 2.8455                 9.2691

 - Thermochemistry -
 -------------------
 Temperature   298.150 Kelvin.  Pressure   1.00000 Atm.
 Atom     1 has atomic number  6 and mass  12.00000

 Molecular mass:   262.12051 amu.
 Principal axes and moments of inertia in atomic units:
                           1         2         3
     Eigenvalues --  3998.312234845.893165905.09402
           X            0.99840   0.05614   0.00710
           Y           -0.05625   0.99828   0.01645
           Z           -0.00616  -0.01682   0.99984
 This molecule is an asymmetric top.
 Rotational symmetry number  1.
 Warning -- assumption of classical behavior for rotation
           may cause significant error
 Rotational temperatures (Kelvin)      0.02166     0.01787     0.01467
 Rotational constants (GHZ):           0.45138     0.37243     0.30562
 Zero-point vibrational energy     813016.5 (Joules/Mol)
                                  194.31560 (Kcal/Mol)
 Warning -- explicit consideration of  26 degrees of freedom as
           vibrations may cause significant error
 Vibrational temperatures:     17.89    55.66    72.80    89.90   112.00
          (Kelvin)            140.87   180.19   203.06   243.44   260.29
                              321.20   343.85   377.62   460.35   486.77
                              496.00   525.91   571.55   606.47   624.01
                              654.34   674.77   698.83   773.06   841.24
                              869.36   915.08   940.25  1006.13  1028.99
                             1039.52  1080.32  1129.63  1164.71  1207.32
                             1247.24  1254.57  1283.75  1328.72  1343.24
                             1353.35  1364.03  1388.01  1411.01  1432.17
                             1447.02  1466.48  1474.17  1482.42  1517.51
                             1531.30  1557.43  1585.73  1622.92  1631.23
                             1693.66  1705.95  1718.32  1733.93  1751.75
                             1762.00  1822.16  1849.79  1911.07  1927.98
                             1930.61  1936.52  1973.09  1985.49  1987.58
                             1997.76  2006.95  2023.92  2025.96  2046.58
                             2079.84  2137.27  2154.51  2179.63  2181.08
                             2185.81  2214.28  2230.10  2367.39  2398.79
                             2488.20  2584.52  4388.97  4400.65  4407.56
                             4450.91  4456.24  4456.68  4503.68  4522.33
                             4532.56  4539.39  4551.21  4579.68  4594.55
                             4613.69  4636.11  4649.20  4661.20  4694.04

 Zero-point correction=                           0.309662 (Hartree/Particle)
 Thermal correction to Energy=                    0.327064
 Thermal correction to Enthalpy=                  0.328009
 Thermal correction to Gibbs Free Energy=         0.262669
 Sum of electronic and zero-point Energies=           -883.055394
 Sum of electronic and thermal Energies=              -883.037991
 Sum of electronic and thermal Enthalpies=            -883.037047
 Sum of electronic and thermal Free Energies=         -883.102387

                     E (Thermal)             CV                S
                      KCal/Mol        Cal/Mol-Kelvin    Cal/Mol-Kelvin
 Total                  205.236             66.911            137.520
 Electronic               0.000              0.000              0.000
 Translational            0.889              2.981             42.590
 Rotational               0.889              2.981             33.103
 Vibrational            203.459             60.950             61.826
 Vibration     1          0.593              1.987              7.579
 Vibration     2          0.594              1.981              5.325
 Vibration     3          0.595              1.977              4.794
 Vibration     4          0.597              1.972              4.377
 Vibration     5          0.599              1.964              3.945
 Vibration     6          0.603              1.951              3.496
 Vibration     7          0.610              1.928              3.018
 Vibration     8          0.615              1.912              2.788
 Vibration     9          0.625              1.880              2.444
 Vibration    10          0.630              1.866              2.319
 Vibration    11          0.649              1.806              1.933
 Vibration    12          0.657              1.781              1.810
 Vibration    13          0.670              1.742              1.645
 Vibration    14          0.706              1.635              1.310
 Vibration    15          0.719              1.599              1.220
 Vibration    16          0.723              1.586              1.190
 Vibration    17          0.739              1.543              1.099
 Vibration    18          0.764              1.476              0.973
 Vibration    19          0.784              1.423              0.887
 Vibration    20          0.794              1.397              0.847
 Vibration    21          0.813              1.350              0.781
 Vibration    22          0.826              1.319              0.740
 Vibration    23          0.842              1.282              0.695
 Vibration    24          0.892              1.168              0.571
 Vibration    25          0.942              1.064              0.477
 Vibration    26          0.963              1.023              0.442

 Optimization completed.
    -- Stationary point found.
 Normal termination of Gaussian 16 at Sun Dec 13 16:49:36 2020.

 ----------------------------------------------------------------------
 # B3LYP/6-311++G(d,p) empiricaldispersion=gd3bj scf=xqc pop=npa geom=c
 heck
 ----------------------------------------------------------------------

 ---------------------------------------
 CID_154164111_JID_9502_Energie_neutraal
 ---------------------------------------
 Structure from the checkpoint file:  "JID_9502.chk"
 Charge =  0 Multiplicity = 1

 SCF Done:  E(RB3LYP) =  -883.611407567     A.U. after   16 cycles
 Normal termination of Gaussian 16 at Sun Dec 13 17:00:08 2020.

 ----------------------------------------------------------------------
 # B3LYP/6-311++G(d,p) empiricaldispersion=gd3bj scf=xqc pop=npa geom=c
 heck
 ----------------------------------------------------------------------

 -------------------------------------
 CID_154164111_JID_9502_Energie_kation
 -------------------------------------
 Structure from the checkpoint file:  "JID_9502.chk"
 Charge =  1 Multiplicity = 2

 SCF Done:  E(UB3LYP) =  -883.299568342     A.U. after   30 cycles
 Normal termination of Gaussian 16 at Sun Dec 13 17:28:24 2020.
 Gaussian 16:  ES64L-G16RevA.03 25-Dec-2016

 ----------------------------------------------------------------------
 # B3LYP/6-311++G(d,p) empiricaldispersion=gd3bj scf=xqc pop=npa geom=c
 heck
 ----------------------------------------------------------------------

 ------------------------------------
 CID_154164111_JID_9502_Energie_anion
 ------------------------------------
 Structure from the checkpoint file:  "JID_9502.chk"
 Charge = -1 Multiplicity = 2

                         Standard orientation:
 ---------------------------------------------------------------------
 Center     Atomic      Atomic             Coordinates (Angstroms)
 Number     Number       Type             X           Y           Z
 ---------------------------------------------------------------------
      1          6           0        3.908166    1.516646    1.041074
      2          6           0        2.390182    1.474332    1.076450
      3          8           0        1.889399    0.197348    0.607087
      4          6           0        1.781853    0.051853   -0.716332
      5          8           0        2.125820    0.882722   -1.535012
      6          6           0        1.220187   -1.307166   -1.154887
      7          6           0        0.032751   -1.151446   -2.116949
      8          6           0       -1.296366   -1.019105   -1.369565
      9          8           0       -1.394696   -2.110320   -0.439093
     10          6           0       -0.331482   -2.261125    0.488730
     11          8           0        0.958488   -2.238195   -0.121677
     12          6           0       -0.426091   -1.336422    1.676773
     13          6           0       -0.692307   -1.800717    2.896053
     14          6           0       -1.622291    0.327921   -0.730403
     15          6           0       -2.641225    0.372017    0.232613
     16          6           0       -3.011658    1.575127    0.825369
     17          6           0       -2.372331    2.763228    0.461219
     18          6           0       -1.371131    2.732763   -0.506714
     19          6           0       -1.003240    1.524130   -1.105442
     20          1           0        4.330727    0.686765    1.616215
     21          1           0        4.263097    2.456561    1.478584
     22          1           0        4.268535    1.456917    0.011066
     23          1           0        2.006117    1.546914    2.096113
     24          1           0        1.949403    2.264566    0.464226
     25          1           0        2.049066   -1.749773   -1.720313
     26          1           0        0.216400   -0.321277   -2.801247
     27          1           0       -0.030332   -2.067070   -2.711869
     28          1           0       -2.099817   -1.238649   -2.082693
     29          1           0       -0.436751   -3.290242    0.842520
     30          1           0       -0.266340   -0.280198    1.508589
     31          1           0       -0.768198   -1.141769    3.756458
     32          1           0       -0.847049   -2.861841    3.082623
     33          1           0       -3.118074   -0.555088    0.531970
     34          1           0       -3.797230    1.586414    1.575902
     35          1           0       -2.656346    3.702852    0.926815
     36          1           0       -0.869092    3.649352   -0.804085
     37          1           0       -0.216303    1.530904   -1.849257
 ---------------------------------------------------------------------

 SCF Done:  E(UB3LYP) =  -883.600968191     A.U. after   33 cycles
 SCF Done:  E(UB3LYP) =  -883.600968191     a.u. after    1 cycles

 The electronic state is 2-A.
 Alpha  occ. eigenvalues --  -19.07049 -19.03692 -19.03414 -19.00830 -10.19603
 Alpha  occ. eigenvalues --  -10.18005 -10.14205 -10.13299 -10.13276 -10.07848
 Alpha  occ. eigenvalues --  -10.07732 -10.07652 -10.07580 -10.07477 -10.07198
 Alpha  occ. eigenvalues --  -10.07197 -10.07100 -10.07077 -10.06699  -1.01249
 Alpha  occ. eigenvalues --   -0.97875  -0.92164  -0.91602  -0.75820  -0.72160
 Alpha  occ. eigenvalues --   -0.68391  -0.67825  -0.65282  -0.64565  -0.60319
 Alpha  occ. eigenvalues --   -0.58621  -0.56333  -0.51977  -0.50411  -0.48830
 Alpha  occ. eigenvalues --   -0.47390  -0.45143  -0.43474  -0.42876  -0.40344
 Alpha  occ. eigenvalues --   -0.39798  -0.38612  -0.37173  -0.36888  -0.36331
 Alpha  occ. eigenvalues --   -0.35706  -0.35030  -0.34437  -0.33584  -0.32129
 Alpha  occ. eigenvalues --   -0.32106  -0.31194  -0.30304  -0.29102  -0.28651
 Alpha  occ. eigenvalues --   -0.28148  -0.27012  -0.26189  -0.25346  -0.25150
 Alpha  occ. eigenvalues --   -0.24416  -0.23528  -0.23066  -0.20960  -0.19734
 Alpha  occ. eigenvalues --   -0.18931  -0.16978  -0.16014  -0.15468  -0.14757
 Alpha  occ. eigenvalues --    0.04254
 Alpha virt. eigenvalues --    0.06165   0.06652   0.07435   0.07721   0.07884
 Alpha virt. eigenvalues --    0.08445   0.08710   0.08973   0.09555   0.09581
 Alpha virt. eigenvalues --    0.09926   0.10314   0.10682   0.11390   0.11570

  Beta  occ. eigenvalues --  -19.07042 -19.03693 -19.03405 -19.00792 -10.19515
  Beta  occ. eigenvalues --  -10.18001 -10.14206 -10.13290 -10.13273 -10.07845
  Beta  occ. eigenvalues --  -10.07699 -10.07577 -10.07576 -10.07493 -10.07166
  Beta  occ. eigenvalues --  -10.07161 -10.07099 -10.07001 -10.06643  -1.01183
  Beta  occ. eigenvalues --   -0.97859  -0.92103  -0.91587  -0.75712  -0.72107
  Beta  occ. eigenvalues --   -0.68353  -0.67769  -0.65158  -0.64482  -0.60235
  Beta  occ. eigenvalues --   -0.58592  -0.56263  -0.51904  -0.50306  -0.48776
  Beta  occ. eigenvalues --   -0.47314  -0.45086  -0.43423  -0.42808  -0.40293
  Beta  occ. eigenvalues --   -0.39756  -0.38545  -0.37091  -0.36793  -0.36291
  Beta  occ. eigenvalues --   -0.35645  -0.34964  -0.34384  -0.33532  -0.32087
  Beta  occ. eigenvalues --   -0.32034  -0.31113  -0.30263  -0.29073  -0.28604
  Beta  occ. eigenvalues --   -0.28042  -0.26930  -0.26002  -0.25312  -0.25101
  Beta  occ. eigenvalues --   -0.24361  -0.23495  -0.23029  -0.20854  -0.19683
  Beta  occ. eigenvalues --   -0.18872  -0.16955  -0.15945  -0.15306  -0.14321
  Beta virt. eigenvalues --    0.06355   0.07034   0.07181   0.07559   0.07807
  Beta virt. eigenvalues --    0.08509   0.08844   0.08889   0.09247   0.09809
  Beta virt. eigenvalues --    0.09842   0.10192   0.10701   0.11009   0.11607

 Mulliken charges and spin densities:
               1          2
     1  C    0.521281  -1.010310
     2  C   -0.303597   0.286190
     3  O    0.144506   0.011498
     4  C   -0.445018  -0.246157
     5  O   -0.199884   0.032758
     6  C    0.086461   0.306089
     7  C    0.767326  -1.412207
     8  C    0.776280  -0.969189
     9  O    0.001347   0.009689
    10  C   -0.987768  -0.252426
    11  O   -0.000718   0.007932
    12  C    0.320391   0.513394
    13  C    0.012012  -0.550215
    14  C   -0.179600   0.725872
    15  C    0.177519   0.068177
    16  C   -0.472085   0.140591
    17  C    0.238978  -0.570547
    18  C    0.021679  -0.295160
    19  C   -0.851688   0.439807
    20  H    0.017264   0.124893
    21  H   -0.328721   0.474713
    22  H   -0.064464   0.240912
    23  H   -0.277509   0.433139
    24  H    0.293865  -0.134388
    25  H   -0.281412   0.532634
    26  H    0.034048   0.138542
    27  H   -0.237736   0.464862
    28  H   -0.318983   0.571777
    29  H    0.012535   0.166184
    30  H    0.500675  -0.297825
    31  H   -0.020034   0.138941
    32  H    0.140347  -0.021187
    33  H    0.073065   0.102644
    34  H   -0.065843   0.230458
    35  H   -0.149239   0.284054
    36  H   -0.135655   0.301286
    37  H    0.180374   0.012576
 Sum of Mulliken charges =  -1.00000   1.00000

 Dipole moment (field-independent basis, Debye):
    X=             -1.4941    Y=             -0.8741    Z=              2.0208  Tot=              2.6608
 Quadrupole moment (field-independent basis, Debye-Ang):
   XX=           -170.1876   YY=           -159.8918   ZZ=           -153.4895
   XY=             -3.9191   XZ=             -4.9800   YZ=            -11.5933

 Summary of Natural Population Analysis:

                                       Natural Population
                Natural  -----------------------------------------------
    Atom  No    Charge         Core      Valence    Rydberg      Total
 -----------------------------------------------------------------------
      C    1   -0.29801      0.99966     2.29429    0.00406     3.29801
      C    2   -0.01668      0.99957     2.00551    0.01160     3.01668
      O    3   -0.27465      0.99985     3.26471    0.01008     4.27465
      C    4    0.41260      0.99966     1.56136    0.02639     2.58740
      O    5   -0.31757      0.99987     3.31229    0.00541     4.31757
      C    6    0.02393      0.99948     1.96034    0.01625     2.97607
      C    7   -0.20923      0.99959     2.20032    0.00931     3.20923
      C    8    0.05879      0.99949     1.92504    0.01668     2.94121
      O    9   -0.30060      0.99988     3.29260    0.00812     4.30060
      C   10    0.20855      0.99952     1.77035    0.02157     2.79145
      O   11   -0.29768      0.99987     3.28950    0.00831     4.29768
      C   12   -0.09806      0.99952     2.08975    0.00879     3.09806
      C   13   -0.19063      0.99957     2.18456    0.00650     3.19063
      C   14   -0.02666      0.99948     2.01619    0.01099     3.02666
      C   15   -0.08708      0.99951     2.07786    0.00970     3.08708
      C   16   -0.10626      0.99956     2.09733    0.00937     3.10626
      C   17   -0.09340      0.99956     2.08393    0.00991     3.09340
      C   18   -0.09613      0.99956     2.08605    0.01052     3.09613
      C   19   -0.10784      0.99951     2.09965    0.00868     3.10784
      H   20    0.09975      0.00000     0.39904    0.00121     0.40025
      H   21    0.10257      0.00000     0.39593    0.00149     0.39743
      H   22    0.10678      0.00000     0.39216    0.00105     0.39322
      H   23    0.09071      0.00000     0.40772    0.00157     0.40929
      H   24    0.09595      0.00000     0.40248    0.00157     0.40405
      H   25    0.11015      0.00000     0.38790    0.00195     0.38985
      H   26    0.11404      0.00000     0.38469    0.00127     0.38596
      H   27    0.10928      0.00000     0.38857    0.00215     0.39072
      H   28    0.10432      0.00000     0.39355    0.00213     0.39568
      H   29    0.08504      0.00000     0.41349    0.00147     0.41496
      H   30    0.10694      0.00000     0.39041    0.00265     0.39306
      H   31    0.09336      0.00000     0.40565    0.00099     0.40664
      H   32    0.08721      0.00000     0.41152    0.00127     0.41279
      H   33    0.10716      0.00000     0.39133    0.00150     0.39284
      H   34    0.09789      0.00000     0.40127    0.00084     0.40211
      H   35    0.09782      0.00000     0.40138    0.00080     0.40218
      H   36    0.09866      0.00000     0.40046    0.00088     0.40134
      H   37    0.10895      0.00000     0.38912    0.00193     0.39105
 =======================================================================
   * Total *    0.00000     18.99273    50.76829    0.23898    70.00000

 Normal termination of Gaussian 16 at Sun Dec 13 17:59:43 2020.
