 Gaussian 16, Revision A.03,

 -----------------------------------------------------------
 # opt freq B3LYP/6-31G(d) empiricaldispersion=gd3bj scf=xqc
 -----------------------------------------------------------

 -------------------------------
 CID_130503142_JID_3950_neutraal
 -------------------------------
 Symbolic Z-matrix:
 Charge =  0 Multiplicity = 1

 SCF Done:  E(RB3LYP) =  -956.591631035     A.U. after   13 cycles
 SCF Done:  E(RB3LYP) =  -956.596638567     A.U. after   11 cycles
 SCF Done:  E(RB3LYP) =  -956.597351945     A.U. after   10 cycles
 SCF Done:  E(RB3LYP) =  -956.597492661     A.U. after   10 cycles
 SCF Done:  E(RB3LYP) =  -956.597517781     A.U. after    9 cycles
 SCF Done:  E(RB3LYP) =  -956.597538827     A.U. after    9 cycles
 SCF Done:  E(RB3LYP) =  -956.597548525     A.U. after    9 cycles
 SCF Done:  E(RB3LYP) =  -956.597558080     A.U. after    9 cycles
 SCF Done:  E(RB3LYP) =  -956.597566051     A.U. after    9 cycles
 SCF Done:  E(RB3LYP) =  -956.597570604     A.U. after    9 cycles
 SCF Done:  E(RB3LYP) =  -956.597576665     A.U. after    9 cycles
 SCF Done:  E(RB3LYP) =  -956.597581414     A.U. after    9 cycles
 SCF Done:  E(RB3LYP) =  -956.597584273     A.U. after    8 cycles
 SCF Done:  E(RB3LYP) =  -956.597584596     A.U. after    7 cycles
 SCF Done:  E(RB3LYP) =  -956.597584681     A.U. after    6 cycles
 Optimization completed.
    -- Stationary point found.
 Normal termination of Gaussian 16 at Sat Feb 27 18:20:46 2021.

 --------------------------------------------------------------------
 #N Geom=AllCheck Guess=TCheck SCRF=Check GenChk RB3LYP/6-31G(d) Freq
 --------------------------------------------------------------------

 Structure from the checkpoint file:  "JID_3950.chk"
 -------------------------------
 CID_130503142_JID_3950_neutraal
 -------------------------------
 Charge =  0 Multiplicity = 1

 SCF Done:  E(RB3LYP) =  -956.597584682     A.U. after    1 cycles

  Exact polarizability: 138.463  -4.830 120.996   1.325  -1.644  99.488
 Approx polarizability: 175.286  -6.059 179.148  -1.378  -4.409 157.530

                      1                      2                      3
                      A                      A                      A
 Frequencies --     43.3941                54.9459                75.6086
 Red. masses --      3.5510                 5.0952                 2.9755
 Frc consts  --      0.0039                 0.0091                 0.0100
 IR Inten    --      0.5351                 2.0183                 3.8815

                      4                      5                      6
                      A                      A                      A
 Frequencies --    131.7895               140.1740               168.4944
 Red. masses --      3.4742                 3.3408                 3.3511
 Frc consts  --      0.0356                 0.0387                 0.0561
 IR Inten    --      0.9119                 0.0632                 0.7757

                      7                      8                      9
                      A                      A                      A
 Frequencies --    193.7892               216.6432               252.4532
 Red. masses --      1.1394                 2.5611                 5.3659
 Frc consts  --      0.0252                 0.0708                 0.2015
 IR Inten    --      0.4676                 4.8746                 0.2750

                     10                     11                     12
                      A                      A                      A
 Frequencies --    288.8654               305.0466               331.6952
 Red. masses --      1.8108                 1.3872                 3.6097
 Frc consts  --      0.0890                 0.0761                 0.2340
 IR Inten    --     25.3431                79.0759                 4.2201

                     13                     14                     15
                      A                      A                      A
 Frequencies --    350.6089               389.2924               425.3010
 Red. masses --      3.0505                 2.9023                 2.2647
 Frc consts  --      0.2209                 0.2591                 0.2414
 IR Inten    --      2.1884                 2.7712                 5.1047

                     16                     17                     18
                      A                      A                      A
 Frequencies --    430.3021               468.0804               531.8634
 Red. masses --      3.3621                 2.6512                 3.6377
 Frc consts  --      0.3668                 0.3422                 0.6063
 IR Inten    --      2.5072                 0.4732                 0.8610

                     19                     20                     21
                      A                      A                      A
 Frequencies --    628.7268               650.2364               682.4063
 Red. masses --      4.0489                 2.7721                 3.3243
 Frc consts  --      0.9430                 0.6906                 0.9121
 IR Inten    --      8.8887                 9.1138                 4.5593

                     22                     23                     24
                      A                      A                      A
 Frequencies --    705.2105               766.3673               834.7939
 Red. masses --      3.6181                 4.0561                 2.8869
 Frc consts  --      1.0602                 1.4036                 1.1853
 IR Inten    --      3.1521                 9.9879                 3.6933

                     25                     26                     27
                      A                      A                      A
 Frequencies --    876.1550               886.9927               898.1872
 Red. masses --      3.2453                 2.5276                 2.2663
 Frc consts  --      1.4678                 1.1716                 1.0772
 IR Inten    --     11.0702                10.8885                 8.5716

                     28                     29                     30
                      A                      A                      A
 Frequencies --    937.1944               950.7781               979.0650
 Red. masses --      1.9431                 3.8275                 1.7310
 Frc consts  --      1.0056                 2.0386                 0.9776
 IR Inten    --     14.1117                33.5034                 0.1361

                     31                     32                     33
                      A                      A                      A
 Frequencies --   1010.7436              1017.7511              1036.5128
 Red. masses --      1.7809                 1.7951                 1.9591
 Frc consts  --      1.0720                 1.0955                 1.2401
 IR Inten    --      5.1474                15.7685                 6.5036

                     34                     35                     36
                      A                      A                      A
 Frequencies --   1041.7774              1055.6488              1089.9341
 Red. masses --      1.6941                 1.7057                 2.7142
 Frc consts  --      1.0833                 1.1199                 1.8998
 IR Inten    --     30.0058                13.1749                18.1286

                     37                     38                     39
                      A                      A                      A
 Frequencies --   1112.8106              1138.6176              1140.8670
 Red. masses --      1.6795                 2.9214                 3.7438
 Frc consts  --      1.2254                 2.2315                 2.8710
 IR Inten    --     21.5929                71.6748                59.3404

                     40                     41                     42
                      A                      A                      A
 Frequencies --   1155.1248              1184.7918              1199.9516
 Red. masses --      2.4614                 2.5152                 2.1493
 Frc consts  --      1.9351                 2.0802                 1.8234
 IR Inten    --     19.5065                21.4059                29.3841

                     43                     44                     45
                      A                      A                      A
 Frequencies --   1209.6397              1229.8592              1244.1902
 Red. masses --      1.2028                 1.2503                 1.1980
 Frc consts  --      1.0370                 1.1143                 1.0926
 IR Inten    --     33.9889                 1.5270                 2.4148

                     46                     47                     48
                      A                      A                      A
 Frequencies --   1265.6874              1279.0903              1314.1011
 Red. masses --      1.1687                 1.5562                 1.4436
 Frc consts  --      1.1030                 1.5001                 1.4688
 IR Inten    --     15.0673                 0.6820                15.4948

                     49                     50                     51
                      A                      A                      A
 Frequencies --   1321.0125              1342.2998              1350.5868
 Red. masses --      1.2259                 1.3332                 1.2920
 Frc consts  --      1.2604                 1.4153                 1.3885
 IR Inten    --     12.1099                16.7740                17.2287

                     52                     53                     54
                      A                      A                      A
 Frequencies --   1352.5702              1369.2542              1376.7550
 Red. masses --      1.3727                 1.2790                 1.4129
 Frc consts  --      1.4796                 1.4129                 1.5779
 IR Inten    --      6.6139                 1.5569                11.5759

                     55                     56                     57
                      A                      A                      A
 Frequencies --   1398.1160              1405.7418              1420.0574
 Red. masses --      1.4302                 1.3030                 1.3150
 Frc consts  --      1.6471                 1.5171                 1.5624
 IR Inten    --     18.9510                 0.8640                 9.5600

                     58                     59                     60
                      A                      A                      A
 Frequencies --   1435.2109              1448.1452              1463.0508
 Red. masses --      1.2768                 1.4554                 1.4548
 Frc consts  --      1.5495                 1.7983                 1.8348
 IR Inten    --      5.9243                 9.9637                 8.0213

                     61                     62                     63
                      A                      A                      A
 Frequencies --   1492.5962              1505.0213              1516.8172
 Red. masses --      1.0989                 1.0730                 1.0601
 Frc consts  --      1.4424                 1.4320                 1.4371
 IR Inten    --      9.3136                 1.3824                 3.3867

                     64                     65                     66
                      A                      A                      A
 Frequencies --   1526.5567              1529.6937              1540.3022
 Red. masses --      1.0821                 1.0725                 1.0863
 Frc consts  --      1.4857                 1.4786                 1.5185
 IR Inten    --      4.2925                10.9574                 0.8484

                     67                     68                     69
                      A                      A                      A
 Frequencies --   1554.9701              2909.3584              2938.5806
 Red. masses --      1.0926                 1.0806                 1.0731
 Frc consts  --      1.5565                 5.3893                 5.4597
 IR Inten    --      0.6367                42.3840                46.4827

                     70                     71                     72
                      A                      A                      A
 Frequencies --   2951.4305              3013.1503              3030.0596
 Red. masses --      1.0726                 1.0641                 1.0782
 Frc consts  --      5.5052                 5.6922                 5.8325
 IR Inten    --     85.3386                51.3529                95.6611

                     73                     74                     75
                      A                      A                      A
 Frequencies --   3041.8398              3051.5353              3056.1753
 Red. masses --      1.0657                 1.1076                 1.0424
 Frc consts  --      5.8099                 6.0766                 5.7365
 IR Inten    --     12.7154                63.7614                26.9618

                     76                     77                     78
                      A                      A                      A
 Frequencies --   3072.6041              3076.6763              3094.7856
 Red. masses --      1.0840                 1.0611                 1.0874
 Frc consts  --      6.0294                 5.9177                 6.1362
 IR Inten    --     18.5532                10.9159                29.9891

                     79                     80                     81
                      A                      A                      A
 Frequencies --   3112.9895              3123.7757              3128.4434
 Red. masses --      1.0995                 1.0931                 1.0905
 Frc consts  --      6.2779                 6.2844                 6.2881
 IR Inten    --     44.2215                 6.1935                38.8823

                     82                     83                     84
                      A                      A                      A
 Frequencies --   3129.8051              3158.3989              3744.2677
 Red. masses --      1.1067                 1.1024                 1.0663
 Frc consts  --      6.3875                 6.4792                 8.8077
 IR Inten    --      9.5637                19.7364                14.6343

 - Thermochemistry -
 -------------------
 Temperature   298.150 Kelvin.  Pressure   1.00000 Atm.
 Atom     1 has atomic number 16 and mass  31.97207

 Molecular mass:   203.09800 amu.
 Principal axes and moments of inertia in atomic units:
                           1         2         3
     Eigenvalues --  1203.648004282.023754946.60029
           X            0.99995   0.00015   0.01048
           Y           -0.00012   0.99999  -0.00358
           Z           -0.01048   0.00358   0.99994
 This molecule is an asymmetric top.
 Rotational symmetry number  1.
 Warning -- assumption of classical behavior for rotation
           may cause significant error
 Rotational temperatures (Kelvin)      0.07196     0.02023     0.01751
 Rotational constants (GHZ):           1.49939     0.42147     0.36484
 Zero-point vibrational energy     689672.2 (Joules/Mol)
                                  164.83562 (Kcal/Mol)
 Warning -- explicit consideration of  18 degrees of freedom as
           vibrations may cause significant error
 Vibrational temperatures:     62.43    79.05   108.78   189.62   201.68
          (Kelvin)            242.43   278.82   311.70   363.22   415.61
                              438.89   477.24   504.45   560.10   611.91
                              619.11   673.46   765.23   904.60   935.55
                              981.83  1014.64  1102.63  1201.08  1260.59
                             1276.18  1292.29  1348.41  1367.96  1408.66
                             1454.23  1464.32  1491.31  1498.89  1518.84
                             1568.17  1601.09  1638.22  1641.45  1661.97
                             1704.65  1726.46  1740.40  1769.49  1790.11
                             1821.04  1840.33  1890.70  1900.64  1931.27
                             1943.19  1946.05  1970.05  1980.84  2011.58
                             2022.55  2043.15  2064.95  2083.56  2105.00
                             2147.51  2165.39  2182.36  2196.37  2200.89
                             2216.15  2237.26  4185.92  4227.96  4246.45
                             4335.25  4359.58  4376.53  4390.48  4397.15
                             4420.79  4426.65  4452.71  4478.90  4494.42
                             4501.13  4503.09  4544.23  5387.17

 Zero-point correction=                           0.262682 (Hartree/Particle)
 Thermal correction to Energy=                    0.275919
 Thermal correction to Enthalpy=                  0.276864
 Thermal correction to Gibbs Free Energy=         0.222482
 Sum of electronic and zero-point Energies=           -956.334902
 Sum of electronic and thermal Energies=              -956.321665
 Sum of electronic and thermal Enthalpies=            -956.320721
 Sum of electronic and thermal Free Energies=         -956.375103

                     E (Thermal)             CV                S
                      KCal/Mol        Cal/Mol-Kelvin    Cal/Mol-Kelvin
 Total                  173.142             50.369            114.456
 Electronic               0.000              0.000              0.000
 Translational            0.889              2.981             41.830
 Rotational               0.889              2.981             31.611
 Vibrational            171.365             44.408             41.014
 Vibration     1          0.595              1.980              5.098
 Vibration     2          0.596              1.976              4.631
 Vibration     3          0.599              1.965              4.002
 Vibration     4          0.612              1.922              2.920
 Vibration     5          0.615              1.913              2.801
 Vibration     6          0.625              1.881              2.452
 Vibration     7          0.635              1.849              2.191
 Vibration     8          0.645              1.816              1.987
 Vibration     9          0.664              1.759              1.713
 Vibration    10          0.685              1.694              1.481
 Vibration    11          0.696              1.664              1.389
 Vibration    12          0.714              1.612              1.252
 Vibration    13          0.728              1.574              1.163
 Vibration    14          0.757              1.493              1.003
 Vibration    15          0.787              1.415              0.874
 Vibration    16          0.791              1.404              0.858
 Vibration    17          0.825              1.321              0.743
 Vibration    18          0.887              1.180              0.583

 Optimization completed.
    -- Stationary point found.
 Normal termination of Gaussian 16 at Sat Feb 27 18:28:57 2021.

 ----------------------------------------------------------------------
 # B3LYP/6-311++G(d,p) empiricaldispersion=gd3bj scf=xqc pop=npa geom=c
 heck
 ----------------------------------------------------------------------

 ---------------------------------------
 CID_130503142_JID_3950_Energie_neutraal
 ---------------------------------------
 Structure from the checkpoint file:  "JID_3950.chk"
 Charge =  0 Multiplicity = 1

 SCF Done:  E(RB3LYP) =  -956.791759156     A.U. after   14 cycles
 Normal termination of Gaussian 16 at Sat Feb 27 18:32:05 2021.

 ----------------------------------------------------------------------
 # B3LYP/6-311++G(d,p) empiricaldispersion=gd3bj scf=xqc pop=npa geom=c
 heck
 ----------------------------------------------------------------------

 -------------------------------------
 CID_130503142_JID_3950_Energie_kation
 -------------------------------------
 Structure from the checkpoint file:  "JID_3950.chk"
 Charge =  1 Multiplicity = 2

 SCF Done:  E(UB3LYP) =  -956.501593692     A.U. after   28 cycles
 Normal termination of Gaussian 16 at Sat Feb 27 18:40:22 2021.
 Gaussian 16:  ES64L-G16RevA.03 25-Dec-2016

 ----------------------------------------------------------------------
 # B3LYP/6-311++G(d,p) empiricaldispersion=gd3bj scf=xqc pop=npa geom=c
 heck
 ----------------------------------------------------------------------

 ------------------------------------
 CID_130503142_JID_3950_Energie_anion
 ------------------------------------
 Structure from the checkpoint file:  "JID_3950.chk"
 Charge = -1 Multiplicity = 2

                         Standard orientation:
 ---------------------------------------------------------------------
 Center     Atomic      Atomic             Coordinates (Angstroms)
 Number     Number       Type             X           Y           Z
 ---------------------------------------------------------------------
      1         16           0        3.275635   -0.331470   -0.250167
      2          8           0       -3.491398   -0.930171    0.357450
      3          8           0       -1.747402    1.642333    0.601215
      4          7           0        0.083466   -0.307093   -0.109440
      5          6           0       -1.318489   -0.468382   -0.455427
      6          6           0       -2.137326    0.834481   -0.503737
      7          6           0        0.777004    0.671385   -0.948547
      8          6           0       -2.122970   -1.258748    0.592062
      9          6           0        0.784021   -1.592306   -0.088667
     10          6           0        2.118076    1.104081   -0.345078
     11          6           0       -3.566054    0.295667   -0.366310
     12          6           0        2.141962   -1.491528    0.599093
     13          6           0        1.942176    1.816081    0.997065
     14          1           0       -1.448990   -0.959054   -1.441833
     15          1           0       -2.009237    1.377409   -1.451022
     16          1           0        0.151391    1.563908   -1.013148
     17          1           0        0.939548    0.287309   -1.973001
     18          1           0       -2.026800   -2.344062    0.499669
     19          1           0       -1.804781   -0.948370    1.596615
     20          1           0        0.915164   -1.998536   -1.110548
     21          1           0        0.177563   -2.309362    0.473529
     22          1           0        2.601969    1.778709   -1.060439
     23          1           0       -4.207987    1.008558    0.170098
     24          1           0       -4.015310    0.109921   -1.352713
     25          1           0        2.008512   -1.186113    1.641114
     26          1           0        2.641276   -2.464881    0.588714
     27          1           0        1.305373    2.700064    0.869832
     28          1           0        2.907691    2.130225    1.402767
     29          1           0        1.443554    1.165239    1.718656
     30          1           0       -2.373361    2.380529    0.658427
 ---------------------------------------------------------------------

 SCF Done:  E(UB3LYP) =  -956.781201995     A.U. after   28 cycles

 The electronic state is 2-A.
 Alpha  occ. eigenvalues --  -88.73924 -19.01832 -19.01392 -14.20992 -10.11858
 Alpha  occ. eigenvalues --  -10.11053 -10.10841 -10.10750 -10.10468 -10.10420
 Alpha  occ. eigenvalues --  -10.10283 -10.09378 -10.05961  -7.82577  -5.78947
 Alpha  occ. eigenvalues --   -5.78623  -5.77948  -0.94227  -0.91279  -0.83702
 Alpha  occ. eigenvalues --   -0.72199  -0.68377  -0.65758  -0.63444  -0.59487
 Alpha  occ. eigenvalues --   -0.55353  -0.53229  -0.49400  -0.48150  -0.44823
 Alpha  occ. eigenvalues --   -0.42374  -0.41794  -0.37888  -0.36724  -0.36452
 Alpha  occ. eigenvalues --   -0.34762  -0.34496  -0.33981  -0.32385  -0.31737
 Alpha  occ. eigenvalues --   -0.30618  -0.29843  -0.28487  -0.27341  -0.26677
 Alpha  occ. eigenvalues --   -0.26101  -0.25294  -0.24467  -0.22888  -0.21002
 Alpha  occ. eigenvalues --   -0.20287  -0.17343  -0.15091  -0.13175  -0.12433
 Alpha  occ. eigenvalues --    0.04461
 Alpha virt. eigenvalues --    0.06542   0.07518   0.07811   0.08878   0.09304
 Alpha virt. eigenvalues --    0.09681   0.09959   0.10870   0.11399   0.11683
 Alpha virt. eigenvalues --    0.12245   0.12611   0.13028   0.13633   0.13937

  Beta  occ. eigenvalues --  -88.73923 -19.01833 -19.01340 -14.20977 -10.11827
  Beta  occ. eigenvalues --  -10.11040 -10.10806 -10.10746 -10.10457 -10.10406
  Beta  occ. eigenvalues --  -10.10276 -10.09362 -10.05947  -7.82576  -5.78946
  Beta  occ. eigenvalues --   -5.78623  -5.77947  -0.94195  -0.91184  -0.83674
  Beta  occ. eigenvalues --   -0.72178  -0.68353  -0.65702  -0.63390  -0.59460
  Beta  occ. eigenvalues --   -0.55321  -0.53192  -0.49319  -0.48110  -0.44769
  Beta  occ. eigenvalues --   -0.42296  -0.41738  -0.37851  -0.36685  -0.36403
  Beta  occ. eigenvalues --   -0.34730  -0.34476  -0.33939  -0.32343  -0.31709
  Beta  occ. eigenvalues --   -0.30590  -0.29812  -0.28454  -0.27304  -0.26650
  Beta  occ. eigenvalues --   -0.26065  -0.25260  -0.24438  -0.22863  -0.20961
  Beta  occ. eigenvalues --   -0.20272  -0.17286  -0.15071  -0.13155  -0.12363
  Beta virt. eigenvalues --    0.06687   0.07558   0.07981   0.08421   0.09278
  Beta virt. eigenvalues --    0.09898   0.10161   0.10302   0.11117   0.11610
  Beta virt. eigenvalues --    0.11920   0.12693   0.12837   0.13242   0.13723

 Mulliken charges and spin densities:
               1          2
     1  S   -0.087709  -0.048059
     2  O   -0.224212   0.064204
     3  O   -0.298703   0.109114
     4  N    0.522312  -0.014382
     5  C   -1.990495   1.389983
     6  C    0.973179  -0.984276
     7  C   -0.257769  -0.294782
     8  C    0.354707  -0.648703
     9  C    0.091404  -0.220350
    10  C   -0.056823   0.470471
    11  C    1.639764  -2.270597
    12  C   -0.173078  -0.385724
    13  C   -0.091236  -0.594655
    14  H    0.019468   0.164043
    15  H   -0.588624   0.783504
    16  H   -0.184138   0.422507
    17  H   -0.083954   0.194943
    18  H   -0.133843   0.329004
    19  H    0.225673  -0.039774
    20  H   -0.085107   0.190969
    21  H   -0.048630   0.186717
    22  H   -0.017154   0.294768
    23  H   -0.307819   0.468936
    24  H   -0.322113   0.488556
    25  H    0.110956   0.076451
    26  H    0.002684   0.200814
    27  H   -0.005112   0.143486
    28  H    0.062314   0.071181
    29  H    0.132571   0.023411
    30  H   -0.178514   0.428240
 Sum of Mulliken charges =  -1.00000   1.00000

 Dipole moment (field-independent basis, Debye):
    X=              5.6060    Y=             -3.6726    Z=              2.0149  Tot=              6.9982
 Quadrupole moment (field-independent basis, Debye-Ang):
   XX=           -156.2693   YY=           -133.0560   ZZ=           -118.8233
   XY=              9.6416   XZ=             -2.8534   YZ=              1.2958

 Summary of Natural Population Analysis:

                                       Natural Population
                Natural  -----------------------------------------------
    Atom  No    Charge         Core      Valence    Rydberg      Total
 -----------------------------------------------------------------------
      S    1    0.08026      4.99962     2.90360    0.01652     7.91974
      O    2   -0.30330      0.99989     3.29474    0.00867     4.30330
      O    3   -0.37212      0.99989     3.36452    0.00771     4.37212
      N    4   -0.28162      0.99968     2.76873    0.01322     3.78162
      C    5   -0.02060      0.99956     2.00758    0.01346     3.02060
      C    6    0.04477      0.99954     1.93960    0.01609     2.95523
      C    7   -0.09052      0.99957     2.07819    0.01276     3.09052
      C    8   -0.00826      0.99956     1.99752    0.01118     3.00826
      C    9   -0.08919      0.99960     2.07775    0.01185     3.08919
      C   10   -0.16652      0.99957     2.15304    0.01391     3.16652
      C   11   -0.01617      0.99957     2.00306    0.01353     3.01617
      C   12   -0.25375      0.99958     2.24311    0.01106     3.25375
      C   13   -0.29082      0.99963     2.28387    0.00732     3.29082
      H   14    0.08819      0.00000     0.41002    0.00179     0.41181
      H   15    0.09160      0.00000     0.40259    0.00582     0.40840
      H   16    0.11075      0.00000     0.38679    0.00246     0.38925
      H   17    0.08637      0.00000     0.41196    0.00167     0.41363
      H   18    0.08660      0.00000     0.41165    0.00174     0.41340
      H   19    0.08675      0.00000     0.41138    0.00187     0.41325
      H   20    0.08356      0.00000     0.41478    0.00165     0.41644
      H   21    0.09984      0.00000     0.39850    0.00166     0.40016
      H   22    0.10460      0.00000     0.39455    0.00086     0.39540
      H   23    0.08938      0.00000     0.40867    0.00194     0.41062
      H   24    0.08719      0.00000     0.41084    0.00197     0.41281
      H   25    0.10145      0.00000     0.39706    0.00149     0.39855
      H   26    0.10610      0.00000     0.39298    0.00092     0.39390
      H   27    0.10654      0.00000     0.39241    0.00105     0.39346
      H   28    0.09668      0.00000     0.40225    0.00106     0.40332
      H   29    0.10602      0.00000     0.39273    0.00125     0.39398
      H   30    0.23620      0.00000     0.25403    0.00977     0.26380
 =======================================================================
   * Total *    0.00000     16.99525    37.80849    0.19626    55.00000

 Normal termination of Gaussian 16 at Sat Feb 27 18:48:33 2021.
