 Gaussian 16, Revision A.03,

 -----------------------------------------------------------
 # opt freq B3LYP/6-31G(d) empiricaldispersion=gd3bj scf=xqc
 -----------------------------------------------------------

 ------------------------------
 CID_12826133_JID_2845_neutraal
 ------------------------------
 Symbolic Z-matrix:
 Charge =  0 Multiplicity = 1

 SCF Done:  E(RB3LYP) =  -570.859438423     A.U. after   15 cycles
 SCF Done:  E(RB3LYP) =  -570.862797001     A.U. after   12 cycles
 SCF Done:  E(RB3LYP) =  -570.863204785     A.U. after   11 cycles
 SCF Done:  E(RB3LYP) =  -570.863281742     A.U. after   11 cycles
 SCF Done:  E(RB3LYP) =  -570.863306644     A.U. after   10 cycles
 SCF Done:  E(RB3LYP) =  -570.863313356     A.U. after   10 cycles
 SCF Done:  E(RB3LYP) =  -570.863318966     A.U. after    9 cycles
 SCF Done:  E(RB3LYP) =  -570.863320826     A.U. after    8 cycles
 SCF Done:  E(RB3LYP) =  -570.863322501     A.U. after    8 cycles
 SCF Done:  E(RB3LYP) =  -570.863324077     A.U. after    8 cycles
 SCF Done:  E(RB3LYP) =  -570.863390571     A.U. after   10 cycles
 SCF Done:  E(RB3LYP) =  -570.863391756     A.U. after    9 cycles
 SCF Done:  E(RB3LYP) =  -570.863391976     A.U. after    9 cycles
 SCF Done:  E(RB3LYP) =  -570.863392175     A.U. after    8 cycles
 SCF Done:  E(RB3LYP) =  -570.863392178     A.U. after    6 cycles
 Optimization completed.
    -- Stationary point found.
 Normal termination of Gaussian 16 at Wed Dec  9 18:12:57 2020.

 --------------------------------------------------------------------
 #N Geom=AllCheck Guess=TCheck SCRF=Check GenChk RB3LYP/6-31G(d) Freq
 --------------------------------------------------------------------

 Structure from the checkpoint file:  "JID_2845.chk"
 ------------------------------
 CID_12826133_JID_2845_neutraal
 ------------------------------
 Charge =  0 Multiplicity = 1

 SCF Done:  E(RB3LYP) =  -570.863392178     A.U. after    1 cycles

  Exact polarizability: 114.093   5.192 118.342   0.100   0.625  59.442
 Approx polarizability: 178.221  15.865 175.753  -3.150   0.517  90.408

                      1                      2                      3
                      A                      A                      A
 Frequencies --     54.5849                81.5993               100.2537
 Red. masses --      1.0737                 1.2950                 2.5036
 Frc consts  --      0.0019                 0.0051                 0.0148
 IR Inten    --      0.0536                 1.4518                 0.6126

                      4                      5                      6
                      A                      A                      A
 Frequencies --    124.4049               168.5505               201.9592
 Red. masses --      3.1490                 3.1909                 4.0077
 Frc consts  --      0.0287                 0.0534                 0.0963
 IR Inten    --      0.3667                 5.8320                 4.6770

                      7                      8                      9
                      A                      A                      A
 Frequencies --    212.7298               262.7833               276.6507
 Red. masses --      4.4043                 2.7344                 2.5297
 Frc consts  --      0.1174                 0.1113                 0.1141
 IR Inten    --      4.0781                 1.1867                 2.3592

                     10                     11                     12
                      A                      A                      A
 Frequencies --    354.2259               406.3073               456.9193
 Red. masses --      3.0751                 5.9732                 5.4863
 Frc consts  --      0.2273                 0.5810                 0.6749
 IR Inten    --      0.4915                 2.1477                 3.3702

                     13                     14                     15
                      A                      A                      A
 Frequencies --    492.8607               596.5585               616.6409
 Red. masses --      4.7589                 4.4001                 3.5362
 Frc consts  --      0.6811                 0.9226                 0.7922
 IR Inten    --      3.8197                 2.8882                 3.7990

                     16                     17                     18
                      A                      A                      A
 Frequencies --    637.4166               666.0093               679.1426
 Red. masses --      5.2457                 4.7270                 5.1448
 Frc consts  --      1.2558                 1.2354                 1.3981
 IR Inten    --      3.6604                 3.9256                 5.9492

                     19                     20                     21
                      A                      A                      A
 Frequencies --    693.0148               781.1019               847.7152
 Red. masses --      5.6522                 8.3222                 2.3876
 Frc consts  --      1.5994                 2.9916                 1.0109
 IR Inten    --      8.4960                13.0256                 0.2984

                     22                     23                     24
                      A                      A                      A
 Frequencies --    931.7466               992.1537              1018.9583
 Red. masses --      2.7244                 2.9527                 1.9642
 Frc consts  --      1.3935                 1.7125                 1.2015
 IR Inten    --     10.6242                18.3490                 4.6659

                     25                     26                     27
                      A                      A                      A
 Frequencies --   1042.3962              1065.3548              1079.6154
 Red. masses --      4.1932                 2.3077                 1.5148
 Frc consts  --      2.6845                 1.5432                 1.0403
 IR Inten    --    132.4530                26.1187                 2.4424

                     28                     29                     30
                      A                      A                      A
 Frequencies --   1086.6027              1104.6133              1159.8948
 Red. masses --      2.2973                 3.9958                 1.3196
 Frc consts  --      1.5981                 2.8726                 1.0460
 IR Inten    --     20.3667               102.7482                 7.3832

                     31                     32                     33
                      A                      A                      A
 Frequencies --   1178.3597              1239.2448              1274.6781
 Red. masses --      2.2573                 1.2621                 3.4070
 Frc consts  --      1.8467                 1.1420                 3.2616
 IR Inten    --     21.9231                 5.4248                25.6443

                     34                     35                     36
                      A                      A                      A
 Frequencies --   1297.1530              1334.0720              1373.2871
 Red. masses --      1.4773                 4.1074                 1.5197
 Frc consts  --      1.4645                 4.3071                 1.6886
 IR Inten    --     21.8340                35.7821                 5.2498

                     37                     38                     39
                      A                      A                      A
 Frequencies --   1429.1893              1441.3814              1449.5493
 Red. masses --      1.3091                 1.3368                 3.3567
 Frc consts  --      1.5754                 1.6364                 4.1555
 IR Inten    --      3.3417                10.9045                21.8801

                     40                     41                     42
                      A                      A                      A
 Frequencies --   1475.3737              1497.8418              1504.8314
 Red. masses --      1.2889                 1.1155                 1.0563
 Frc consts  --      1.6530                 1.4746                 1.4094
 IR Inten    --     32.5991                15.0681                 6.7586

                     43                     44                     45
                      A                      A                      A
 Frequencies --   1507.3663              1515.7587              1527.0291
 Red. masses --      1.0538                 1.2693                 1.2612
 Frc consts  --      1.4107                 1.7183                 1.7327
 IR Inten    --      8.3318                18.5968                 5.2060

                     46                     47                     48
                      A                      A                      A
 Frequencies --   1533.4588              1540.0839              1579.0298
 Red. masses --      1.1938                 4.5499                 3.4155
 Frc consts  --      1.6539                 6.3583                 5.0175
 IR Inten    --      8.6977                93.6014                80.7054

                     49                     50                     51
                      A                      A                      A
 Frequencies --   1604.5471              1836.9399              3042.5666
 Red. masses --      6.5576                12.7552                 1.0660
 Frc consts  --      9.9472                25.3588                 5.8144
 IR Inten    --     17.9487               404.8153                17.6777

                     52                     53                     54
                      A                      A                      A
 Frequencies --   3051.5055              3063.7609              3071.1764
 Red. masses --      1.0661                 1.0370                 1.0357
 Frc consts  --      5.8489                 5.7348                 5.7558
 IR Inten    --     35.3214                15.0506                41.2969

                     55                     56                     57
                      A                      A                      A
 Frequencies --   3091.1139              3121.0877              3140.5642
 Red. masses --      1.0989                 1.0990                 1.0994
 Frc consts  --      6.1864                 6.3078                 6.3890
 IR Inten    --     23.9357                 8.9538                31.4472

                     58                     59                     60
                      A                      A                      A
 Frequencies --   3142.8625              3155.7901              3171.8904
 Red. masses --      1.1011                 1.1038                 1.1056
 Frc consts  --      6.4081                 6.4769                 6.5539
 IR Inten    --     12.8873                10.7372                 8.0116

 - Thermochemistry -
 -------------------
 Temperature   298.150 Kelvin.  Pressure   1.00000 Atm.
 Atom     1 has atomic number  6 and mass  12.00000

 Molecular mass:   166.07423 amu.
 Principal axes and moments of inertia in atomic units:
                           1         2         3
     Eigenvalues --  1398.047131818.700513133.54066
           X            0.99995   0.00814   0.00659
           Y           -0.00815   0.99997   0.00148
           Z           -0.00658  -0.00153   0.99998
 This molecule is an asymmetric top.
 Rotational symmetry number  1.
 Warning -- assumption of classical behavior for rotation
           may cause significant error
 Rotational temperatures (Kelvin)      0.06195     0.04762     0.02764
 Rotational constants (GHZ):           1.29090     0.99232     0.57594
 Zero-point vibrational energy     468842.0 (Joules/Mol)
                                  112.05592 (Kcal/Mol)
 Warning -- explicit consideration of  15 degrees of freedom as
           vibrations may cause significant error
 Vibrational temperatures:     78.54   117.40   144.24   178.99   242.51
          (Kelvin)            290.57   306.07   378.09   398.04   509.65
                              584.59   657.40   709.12   858.31   887.21
                              917.10   958.24   977.13   997.09  1123.83
                             1219.67  1340.58  1427.49  1466.05  1499.78
                             1532.81  1553.33  1563.38  1589.29  1668.83
                             1695.40  1783.00  1833.98  1866.31  1919.43
                             1975.85  2056.28  2073.83  2085.58  2122.73
                             2155.06  2165.12  2168.76  2180.84  2197.05
                             2206.31  2215.84  2271.87  2308.59  2642.95
                             4377.57  4390.44  4408.07  4418.74  4447.42
                             4490.55  4518.57  4521.88  4540.48  4563.64

 Zero-point correction=                           0.178572 (Hartree/Particle)
 Thermal correction to Energy=                    0.189584
 Thermal correction to Enthalpy=                  0.190528
 Thermal correction to Gibbs Free Energy=         0.141267
 Sum of electronic and zero-point Energies=           -570.684820
 Sum of electronic and thermal Energies=              -570.673809
 Sum of electronic and thermal Enthalpies=            -570.672864
 Sum of electronic and thermal Free Energies=         -570.722125

                     E (Thermal)             CV                S
                      KCal/Mol        Cal/Mol-Kelvin    Cal/Mol-Kelvin
 Total                  118.965             40.148            103.678
 Electronic               0.000              0.000              0.000
 Translational            0.889              2.981             41.230
 Rotational               0.889              2.981             30.456
 Vibrational            117.188             34.187             31.993
 Vibration     1          0.596              1.976              4.644
 Vibration     2          0.600              1.962              3.852
 Vibration     3          0.604              1.949              3.449
 Vibration     4          0.610              1.929              3.031
 Vibration     5          0.625              1.881              2.452
 Vibration     6          0.639              1.837              2.115
 Vibration     7          0.644              1.822              2.020
 Vibration     8          0.670              1.741              1.643
 Vibration     9          0.678              1.717              1.554
 Vibration    10          0.730              1.567              1.147
 Vibration    11          0.771              1.457              0.940
 Vibration    12          0.815              1.346              0.775
 Vibration    13          0.849              1.266              0.676
 Vibration    14          0.954              1.039              0.456
 Vibration    15          0.976              0.997              0.422

 Optimization completed.
    -- Stationary point found.
 Normal termination of Gaussian 16 at Wed Dec  9 18:18:17 2020.

 ----------------------------------------------------------------------
 # B3LYP/6-311++G(d,p) empiricaldispersion=gd3bj scf=xqc pop=npa geom=c
 heck
 ----------------------------------------------------------------------

 --------------------------------------
 CID_12826133_JID_2845_Energie_neutraal
 --------------------------------------
 Structure from the checkpoint file:  "JID_2845.chk"
 Charge =  0 Multiplicity = 1

 SCF Done:  E(RB3LYP) =  -571.019608025     A.U. after   15 cycles
 Normal termination of Gaussian 16 at Wed Dec  9 18:20:41 2020.

 ----------------------------------------------------------------------
 # B3LYP/6-311++G(d,p) empiricaldispersion=gd3bj scf=xqc pop=npa geom=c
 heck
 ----------------------------------------------------------------------

 ------------------------------------
 CID_12826133_JID_2845_Energie_kation
 ------------------------------------
 Structure from the checkpoint file:  "JID_2845.chk"
 Charge =  1 Multiplicity = 2

 SCF Done:  E(UB3LYP) =  -570.683924115     A.U. after   33 cycles
 SCF Done:  E(UB3LYP) =  -570.683934858     a.u. after    3 cycles
 Normal termination of Gaussian 16 at Wed Dec  9 18:37:28 2020.
 Gaussian 16:  ES64L-G16RevA.03 25-Dec-2016

 ----------------------------------------------------------------------
 # B3LYP/6-311++G(d,p) empiricaldispersion=gd3bj scf=xqc pop=npa geom=c
 heck
 ----------------------------------------------------------------------

 -----------------------------------
 CID_12826133_JID_2845_Energie_anion
 -----------------------------------
 Structure from the checkpoint file:  "JID_2845.chk"
 Charge = -1 Multiplicity = 2

                         Standard orientation:
 ---------------------------------------------------------------------
 Center     Atomic      Atomic             Coordinates (Angstroms)
 Number     Number       Type             X           Y           Z
 ---------------------------------------------------------------------
      1          6           0       -0.460108    2.934831    0.150503
      2          6           0       -0.699692    1.463373    0.071683
      3          7           0       -1.927928    0.952606    0.063339
      4          7           0       -1.764572   -0.407488   -0.013858
      5          6           0       -0.463082   -0.757937   -0.053978
      6          6           0        0.266481    0.420292    0.002991
      7          6           0        1.718340    0.444735   -0.105815
      8          8           0        2.405459    1.431495   -0.244369
      9          8           0        2.317384   -0.800101   -0.109053
     10          6           0        1.598890   -1.919242    0.432460
     11          6           0        0.191922   -2.092099   -0.161053
     12          6           0       -2.938960   -1.249751   -0.103252
     13          1           0        0.174191    3.264748   -0.678072
     14          1           0        0.070212    3.194558    1.073507
     15          1           0       -1.410835    3.472490    0.122661
     16          1           0        2.225240   -2.788299    0.222690
     17          1           0        1.519780   -1.796981    1.520367
     18          1           0        0.253883   -2.414282   -1.209266
     19          1           0       -0.339233   -2.875137    0.392724
     20          1           0       -3.669265   -0.920747    0.638570
     21          1           0       -3.387265   -1.183654   -1.099895
     22          1           0       -2.654695   -2.284881    0.096489
 ---------------------------------------------------------------------

 SCF Done:  E(UB3LYP) =  -571.013126392     A.U. after   31 cycles

 The electronic state is 2-A.
 Alpha  occ. eigenvalues --  -19.05604 -19.00071 -14.29744 -14.23260 -10.19736
 Alpha  occ. eigenvalues --  -10.13517 -10.12504 -10.11099 -10.10635 -10.09198
 Alpha  occ. eigenvalues --  -10.07691 -10.07393  -0.99167  -0.95434  -0.91664
 Alpha  occ. eigenvalues --   -0.76015  -0.72791  -0.66743  -0.64783  -0.59559
 Alpha  occ. eigenvalues --   -0.56957  -0.52766  -0.46033  -0.44801  -0.43362
 Alpha  occ. eigenvalues --   -0.39989  -0.38526  -0.37258  -0.35082  -0.33898
 Alpha  occ. eigenvalues --   -0.33595  -0.32573  -0.32240  -0.31591  -0.29989
 Alpha  occ. eigenvalues --   -0.29533  -0.27474  -0.27086  -0.24288  -0.20238
 Alpha  occ. eigenvalues --   -0.19756  -0.17604  -0.15575  -0.15408   0.04309
 Alpha virt. eigenvalues --    0.07051   0.07455   0.07971   0.08780   0.09672
 Alpha virt. eigenvalues --    0.09985   0.10295   0.11537   0.11859   0.12292
 Alpha virt. eigenvalues --    0.13040   0.14042   0.15192   0.15325   0.16017

  Beta  occ. eigenvalues --  -19.05611 -19.00042 -14.29743 -14.23254 -10.19705
  Beta  occ. eigenvalues --  -10.13485 -10.12483 -10.11092 -10.10558 -10.09136
  Beta  occ. eigenvalues --  -10.07688 -10.07396  -0.99140  -0.95419  -0.91627
  Beta  occ. eigenvalues --   -0.75990  -0.72743  -0.66681  -0.64745  -0.59503
  Beta  occ. eigenvalues --   -0.56872  -0.52704  -0.45971  -0.44742  -0.43323
  Beta  occ. eigenvalues --   -0.39930  -0.38460  -0.37201  -0.35035  -0.33835
  Beta  occ. eigenvalues --   -0.33535  -0.32519  -0.32191  -0.31540  -0.29913
  Beta  occ. eigenvalues --   -0.29489  -0.27419  -0.27027  -0.24255  -0.20209
  Beta  occ. eigenvalues --   -0.19707  -0.17578  -0.15522  -0.15359
  Beta virt. eigenvalues --    0.07197   0.07395   0.08122   0.08522   0.09565
  Beta virt. eigenvalues --    0.09933   0.10663   0.11393   0.11725   0.11991
  Beta virt. eigenvalues --    0.12630   0.13611   0.14342   0.15572   0.15593

 Mulliken charges and spin densities:
               1          2
     1  C   -0.495205  -0.305023
     2  C    0.774826  -0.888226
     3  N   -0.541865   0.424369
     4  N    0.078757   0.012419
     5  C    0.232465   0.316267
     6  C    0.127606   0.134079
     7  C   -0.329380   0.201571
     8  O   -0.354854   0.013950
     9  O   -0.145222   0.050224
    10  C    0.276694  -0.735834
    11  C    0.284250  -0.607340
    12  C    1.627268  -1.929315
    13  H    0.148612   0.021795
    14  H    0.122689   0.038038
    15  H    0.128124   0.011846
    16  H   -0.386686   0.592148
    17  H    0.009018   0.181252
    18  H   -0.187147   0.390208
    19  H   -0.694568   0.875686
    20  H   -0.443971   0.616839
    21  H   -0.456091   0.646681
    22  H   -0.775320   0.938369
 Sum of Mulliken charges =  -1.00000   1.00000

 Dipole moment (field-independent basis, Debye):
    X=              2.7204    Y=              6.8387    Z=              0.1275  Tot=              7.3610
 Quadrupole moment (field-independent basis, Debye-Ang):
   XX=           -130.2614   YY=           -126.2773   ZZ=            -94.1112
   XY=            -15.3936   XZ=              1.3169   YZ=              2.8022

 Summary of Natural Population Analysis:

                                       Natural Population
                Natural  -----------------------------------------------
    Atom  No    Charge         Core      Valence    Rydberg      Total
 -----------------------------------------------------------------------
      C    1   -0.29897      0.99963     2.29467    0.00467     3.29897
      C    2    0.10397      0.99957     1.88333    0.01312     2.89603
      N    3   -0.16010      0.99970     2.64951    0.01090     3.66010
      N    4   -0.10195      0.99961     2.58985    0.01249     3.60195
      C    5    0.12825      0.99946     1.86021    0.01208     2.87175
      C    6   -0.14743      0.99935     2.13848    0.00960     3.14743
      C    7    0.40412      0.99959     1.57219    0.02410     2.59588
      O    8   -0.29899      0.99987     3.29349    0.00563     4.29899
      O    9   -0.28703      0.99987     3.27934    0.00782     4.28703
      C   10   -0.00539      0.99958     1.99249    0.01332     3.00539
      C   11   -0.22343      0.99959     2.21442    0.00942     3.22343
      C   12   -0.17292      0.99963     2.16473    0.00856     3.17292
      H   13    0.11033      0.00000     0.38855    0.00112     0.38967
      H   14    0.10645      0.00000     0.39243    0.00112     0.39355
      H   15    0.10483      0.00000     0.39419    0.00098     0.39517
      H   16    0.09719      0.00000     0.40114    0.00167     0.40281
      H   17    0.08595      0.00000     0.41246    0.00160     0.41405
      H   18    0.11188      0.00000     0.38650    0.00163     0.38812
      H   19    0.12538      0.00000     0.36424    0.01038     0.37462
      H   20    0.10545      0.00000     0.39270    0.00185     0.39455
      H   21    0.10241      0.00000     0.39524    0.00235     0.39759
      H   22    0.10999      0.00000     0.38490    0.00511     0.39001
 =======================================================================
   * Total *    0.00000     11.99545    31.84504    0.15951    44.00000

 Normal termination of Gaussian 16 at Wed Dec  9 18:43:28 2020.
