 Gaussian 16, Revision A.03,

 -----------------------------------------------------------
 # opt freq B3LYP/6-31G(d) empiricaldispersion=gd3bj scf=xqc
 -----------------------------------------------------------

 -------------------------------
 CID_152675877_JID_8606_neutraal
 -------------------------------
 Symbolic Z-matrix:
 Charge =  0 Multiplicity = 1

 SCF Done:  E(RB3LYP) =  -857.404500377     A.U. after   15 cycles
 SCF Done:  E(RB3LYP) =  -857.405610486     A.U. after   14 cycles
 SCF Done:  E(RB3LYP) =  -857.403121366     A.U. after   15 cycles
 SCF Done:  E(RB3LYP) =  -857.410134762     A.U. after   13 cycles
 SCF Done:  E(RB3LYP) =  -857.410461711     A.U. after   13 cycles
 SCF Done:  E(RB3LYP) =  -857.410843042     A.U. after   14 cycles
 SCF Done:  E(RB3LYP) =  -857.410681724     A.U. after   13 cycles
 SCF Done:  E(RB3LYP) =  -857.411278126     A.U. after   13 cycles
 SCF Done:  E(RB3LYP) =  -857.411740006     A.U. after   13 cycles
 SCF Done:  E(RB3LYP) =  -857.411868949     A.U. after   12 cycles
 SCF Done:  E(RB3LYP) =  -857.412349592     A.U. after   10 cycles
 SCF Done:  E(RB3LYP) =  -857.412350383     A.U. after    9 cycles
 SCF Done:  E(RB3LYP) =  -857.412350467     A.U. after    9 cycles
 SCF Done:  E(RB3LYP) =  -857.412350733     A.U. after    8 cycles
 Optimization completed.
    -- Stationary point found.
 Normal termination of Gaussian 16 at Fri Dec 11 21:21:40 2020.

 --------------------------------------------------------------------
 #N Geom=AllCheck Guess=TCheck SCRF=Check GenChk RB3LYP/6-31G(d) Freq
 --------------------------------------------------------------------

 Structure from the checkpoint file:  "JID_8606.chk"
 -------------------------------
 CID_152675877_JID_8606_neutraal
 -------------------------------
 Charge =  0 Multiplicity = 1

 SCF Done:  E(RB3LYP) =  -857.412350733     A.U. after    1 cycles

  Exact polarizability: 159.814   5.505 165.094  12.979  -3.433 123.434
 Approx polarizability: 200.213   6.108 301.576  25.315  -8.815 204.351

                      1                      2                      3
                      A                      A                      A
 Frequencies --     24.7823                34.0970                41.9455
 Red. masses --      6.1636                 5.9025                 6.0157
 Frc consts  --      0.0022                 0.0040                 0.0062
 IR Inten    --      0.0891                 0.1006                 0.2901

                      4                      5                      6
                      A                      A                      A
 Frequencies --     47.5077                74.1364                90.7055
 Red. masses --      4.6142                 4.8332                 5.7664
 Frc consts  --      0.0061                 0.0157                 0.0280
 IR Inten    --      0.1818                 1.2037                 0.3093

                      7                      8                      9
                      A                      A                      A
 Frequencies --    110.3186               157.2951               176.9381
 Red. masses --      4.3972                 5.1137                 6.4720
 Frc consts  --      0.0315                 0.0745                 0.1194
 IR Inten    --      1.2666                 3.1185                 0.1910

                     10                     11                     12
                      A                      A                      A
 Frequencies --    227.9981               232.1812               258.3800
 Red. masses --      3.3190                 2.3254                 2.6504
 Frc consts  --      0.1017                 0.0739                 0.1043
 IR Inten    --      6.7341                 2.2558                 6.6531

                     13                     14                     15
                      A                      A                      A
 Frequencies --    271.2192               304.1456               319.0517
 Red. masses --      3.4520                 2.0986                 3.6662
 Frc consts  --      0.1496                 0.1144                 0.2199
 IR Inten    --     11.7742                 5.3913                 5.5232

                     16                     17                     18
                      A                      A                      A
 Frequencies --    349.5621               371.1123               390.6934
 Red. masses --      2.3465                 2.9791                 2.4830
 Frc consts  --      0.1689                 0.2417                 0.2233
 IR Inten    --      6.8762                16.0791                17.0295

                     19                     20                     21
                      A                      A                      A
 Frequencies --    418.4895               435.8701               443.5938
 Red. masses --      2.9999                 3.2190                 4.2765
 Frc consts  --      0.3095                 0.3603                 0.4958
 IR Inten    --      0.4904                 4.8427                 2.2156

                     22                     23                     24
                      A                      A                      A
 Frequencies --    481.5941               498.7389               517.7161
 Red. masses --      3.4130                 3.7044                 1.1788
 Frc consts  --      0.4664                 0.5429                 0.1862
 IR Inten    --      5.5299                 7.4671               130.8625

                     25                     26                     27
                      A                      A                      A
 Frequencies --    553.5814               567.8607               620.1899
 Red. masses --      3.3544                13.6929                 4.2073
 Frc consts  --      0.6057                 2.6015                 0.9535
 IR Inten    --     39.2272                 9.9636                18.9622

                     28                     29                     30
                      A                      A                      A
 Frequencies --    635.8513               676.1035               697.5327
 Red. masses --      6.3679                 4.5638                 2.8863
 Frc consts  --      1.5169                 1.2291                 0.8274
 IR Inten    --      0.2678                20.4025                17.7655

                     31                     32                     33
                      A                      A                      A
 Frequencies --    712.4816               716.9853               749.1780
 Red. masses --      1.6771                 1.6656                 1.8971
 Frc consts  --      0.5016                 0.5045                 0.6274
 IR Inten    --     14.2950                52.4597                11.0544

                     34                     35                     36
                      A                      A                      A
 Frequencies --    767.0229               830.7255               868.2075
 Red. masses --      2.6408                 3.9656                 1.2544
 Frc consts  --      0.9154                 1.6124                 0.5571
 IR Inten    --     33.4447                 1.0367                 0.3193

                     37                     38                     39
                      A                      A                      A
 Frequencies --    870.9046               918.6484               932.2050
 Red. masses --      2.8937                 2.3339                 1.7052
 Frc consts  --      1.2932                 1.1605                 0.8731
 IR Inten    --     17.1830                25.9309                 8.8075

                     40                     41                     42
                      A                      A                      A
 Frequencies --    939.3496               945.4505               976.5727
 Red. masses --      2.4922                 3.7149                 1.3480
 Frc consts  --      1.2957                 1.9565                 0.7574
 IR Inten    --      6.0476                40.1521                 0.0600

                     43                     44                     45
                      A                      A                      A
 Frequencies --    977.8997               999.4754              1003.7102
 Red. masses --      1.8725                 1.2497                 1.9357
 Frc consts  --      1.0550                 0.7355                 1.1490
 IR Inten    --      4.3621                 0.7057                 0.7717

                     46                     47                     48
                      A                      A                      A
 Frequencies --   1021.7358              1036.1284              1058.8240
 Red. masses --      5.8139                 1.9188                 2.2844
 Frc consts  --      3.5759                 1.2137                 1.5089
 IR Inten    --      2.2666                 9.6229                10.0768

                     49                     50                     51
                      A                      A                      A
 Frequencies --   1069.2583              1091.9275              1113.1300
 Red. masses --      2.4273                 2.6765                 4.3298
 Frc consts  --      1.6351                 1.8802                 3.1609
 IR Inten    --     19.3215                62.4810               156.7924

                     52                     53                     54
                      A                      A                      A
 Frequencies --   1120.1516              1161.2561              1194.3504
 Red. masses --      1.5410                 2.0013                 1.7623
 Frc consts  --      1.1392                 1.5901                 1.4812
 IR Inten    --      3.3695                20.8347                42.8739

                     55                     56                     57
                      A                      A                      A
 Frequencies --   1194.5505              1211.9029              1220.2218
 Red. masses --      1.3587                 1.1398                 2.4189
 Frc consts  --      1.1423                 0.9863                 2.1220
 IR Inten    --     24.7114                 0.7323                15.7683

                     58                     59                     60
                      A                      A                      A
 Frequencies --   1238.4837              1268.8638              1273.3392
 Red. masses --      3.1095                 1.3823                 1.2183
 Frc consts  --      2.8101                 1.3112                 1.1638
 IR Inten    --     16.9992                 7.3107                36.4899

                     61                     62                     63
                      A                      A                      A
 Frequencies --   1310.5929              1342.1716              1350.5995
 Red. masses --      1.3044                 1.8868                 2.1166
 Frc consts  --      1.3201                 2.0026                 2.2748
 IR Inten    --     14.5891                83.4317                68.6110

                     64                     65                     66
                      A                      A                      A
 Frequencies --   1358.2881              1368.4298              1380.9801
 Red. masses --      1.5387                 1.9755                 1.5905
 Frc consts  --      1.6726                 2.1796                 1.7871
 IR Inten    --      8.3487                 0.9815                33.2093

                     67                     68                     69
                      A                      A                      A
 Frequencies --   1391.1916              1408.4069              1431.5732
 Red. masses --      1.2524                 1.2541                 1.2540
 Frc consts  --      1.4281                 1.4657                 1.5141
 IR Inten    --     25.5194                11.0730                17.3467

                     70                     71                     72
                      A                      A                      A
 Frequencies --   1437.4037              1459.2455              1467.4359
 Red. masses --      1.3311                 1.5708                 1.3440
 Frc consts  --      1.6204                 1.9707                 1.7051
 IR Inten    --     46.5775                32.5926                48.4649

                     73                     74                     75
                      A                      A                      A
 Frequencies --   1505.5981              1514.5070              1520.7621
 Red. masses --      1.9665                 1.0879                 1.0710
 Frc consts  --      2.6264                 1.4702                 1.4593
 IR Inten    --      7.1847                 7.6918                 4.5191

                     76                     77                     78
                      A                      A                      A
 Frequencies --   1524.2100              1540.7085              1546.6518
 Red. masses --      1.0880                 1.3209                 1.0785
 Frc consts  --      1.4893                 1.8474                 1.5201
 IR Inten    --     13.1331                 4.3133                 1.6868

                     79                     80                     81
                      A                      A                      A
 Frequencies --   1551.0580              1648.7582              1668.4239
 Red. masses --      1.6197                 5.4871                 5.5294
 Frc consts  --      2.2959                 8.7884                 9.0686
 IR Inten    --      8.8585                 0.5782                 0.5541

                     82                     83                     84
                      A                      A                      A
 Frequencies --   2260.9935              3059.8738              3062.2833
 Red. masses --     13.6720                 1.0803                 1.0591
 Frc consts  --     41.1794                 5.9593                 5.8517
 IR Inten    --    536.2263                 3.6166                46.6640

                     85                     86                     87
                      A                      A                      A
 Frequencies --   3065.6998              3070.4760              3084.8169
 Red. masses --      1.0409                 1.0609                 1.0613
 Frc consts  --      5.7641                 5.8932                 5.9507
 IR Inten    --     13.1461                23.5069                25.4729

                     88                     89                     90
                      A                      A                      A
 Frequencies --   3112.0558              3129.4834              3132.4884
 Red. masses --      1.1076                 1.1054                 1.1042
 Frc consts  --      6.3199                 6.3786                 6.3840
 IR Inten    --      4.5518                24.7356                 7.6840

                     91                     92                     93
                      A                      A                      A
 Frequencies --   3142.0312              3154.9704              3179.9164
 Red. masses --      1.1044                 1.1003                 1.0862
 Frc consts  --      6.4241                 6.4529                 6.4715
 IR Inten    --      9.8763                 8.8462                 5.0955

                     94                     95                     96
                      A                      A                      A
 Frequencies --   3186.7076              3196.4949              3205.2230
 Red. masses --      1.0870                 1.0906                 1.0937
 Frc consts  --      6.5039                 6.5655                 6.6200
 IR Inten    --      0.4578                16.2836                26.9672

                     97                     98                     99
                      A                      A                      A
 Frequencies --   3212.9780              3607.4828              3630.0304
 Red. masses --      1.0979                 1.0652                 1.0640
 Frc consts  --      6.6777                 8.1678                 8.2604
 IR Inten    --     17.1194               141.2953                49.6131

 - Thermochemistry -
 -------------------
 Temperature   298.150 Kelvin.  Pressure   1.00000 Atm.
 Atom     1 has atomic number  6 and mass  12.00000

 Molecular mass:   251.12699 amu.
 Principal axes and moments of inertia in atomic units:
                           1         2         3
     Eigenvalues --  2567.707268015.826569253.96971
           X            0.99988   0.01387   0.00711
           Y           -0.01378   0.99982  -0.01306
           Z           -0.00729   0.01296   0.99989
 This molecule is an asymmetric top.
 Rotational symmetry number  1.
 Warning -- assumption of classical behavior for rotation
           may cause significant error
 Rotational temperatures (Kelvin)      0.03373     0.01081     0.00936
 Rotational constants (GHZ):           0.70286     0.22515     0.19502
 Zero-point vibrational energy     764013.8 (Joules/Mol)
                                  182.60368 (Kcal/Mol)
 Warning -- explicit consideration of  27 degrees of freedom as
           vibrations may cause significant error
 Vibrational temperatures:     35.66    49.06    60.35    68.35   106.67
          (Kelvin)            130.50   158.72   226.31   254.57   328.04
                              334.06   371.75   390.22   437.60   459.04
                              502.94   533.95   562.12   602.11   627.12
                              638.23   692.91   717.57   744.88   796.48
                              817.02   892.31   914.85   972.76  1003.59
                             1025.10  1031.58  1077.90  1103.57  1195.23
                             1249.16  1253.04  1321.73  1341.24  1351.51
                             1360.29  1405.07  1406.98  1438.02  1444.12
                             1470.05  1490.76  1523.41  1538.42  1571.04
                             1601.55  1611.65  1670.79  1718.40  1718.69
                             1743.66  1755.63  1781.90  1825.61  1832.05
                             1885.65  1931.09  1943.21  1954.27  1968.87
                             1986.92  2001.61  2026.38  2059.71  2068.10
                             2099.53  2111.31  2166.22  2179.04  2188.04
                             2193.00  2216.74  2225.29  2231.63  2372.20
                             2400.49  3253.07  4402.48  4405.94  4410.86
                             4417.73  4438.36  4477.55  4502.63  4506.95
                             4520.68  4539.30  4575.19  4584.96  4599.04
                             4611.60  4622.76  5190.36  5222.80

 Zero-point correction=                           0.290997 (Hartree/Particle)
 Thermal correction to Energy=                    0.308340
 Thermal correction to Enthalpy=                  0.309284
 Thermal correction to Gibbs Free Energy=         0.244007
 Sum of electronic and zero-point Energies=           -857.121353
 Sum of electronic and thermal Energies=              -857.104011
 Sum of electronic and thermal Enthalpies=            -857.103067
 Sum of electronic and thermal Free Energies=         -857.168344

                     E (Thermal)             CV                S
                      KCal/Mol        Cal/Mol-Kelvin    Cal/Mol-Kelvin
 Total                  193.486             66.001            137.388
 Electronic               0.000              0.000              0.000
 Translational            0.889              2.981             42.463
 Rotational               0.889              2.981             33.609
 Vibrational            191.709             60.040             61.316
 Vibration     1          0.593              1.985              6.209
 Vibration     2          0.594              1.983              5.576
 Vibration     3          0.595              1.980              5.165
 Vibration     4          0.595              1.979              4.919
 Vibration     5          0.599              1.966              4.040
 Vibration     6          0.602              1.956              3.645
 Vibration     7          0.606              1.941              3.263
 Vibration     8          0.621              1.894              2.582
 Vibration     9          0.628              1.871              2.360
 Vibration    10          0.651              1.798              1.895
 Vibration    11          0.653              1.792              1.862
 Vibration    12          0.667              1.749              1.673
 Vibration    13          0.675              1.726              1.588
 Vibration    14          0.695              1.666              1.394
 Vibration    15          0.705              1.637              1.315
 Vibration    16          0.727              1.576              1.168
 Vibration    17          0.743              1.532              1.075
 Vibration    18          0.758              1.490              0.997
 Vibration    19          0.781              1.430              0.897
 Vibration    20          0.796              1.392              0.840
 Vibration    21          0.803              1.375              0.815
 Vibration    22          0.838              1.291              0.706
 Vibration    23          0.854              1.253              0.661
 Vibration    24          0.873              1.211              0.615
 Vibration    25          0.909              1.132              0.537
 Vibration    26          0.924              1.101              0.508
 Vibration    27          0.980              0.989              0.416

                           ! Non-Optimized Parameters !
 Normal termination of Gaussian 16 at Fri Dec 11 21:37:32 2020.

 ----------------------------------------------------------------------
 # B3LYP/6-311++G(d,p) empiricaldispersion=gd3bj scf=xqc pop=npa geom=c
 heck
 ----------------------------------------------------------------------

 ---------------------------------------
 CID_152675877_JID_8606_Energie_neutraal
 ---------------------------------------
 Structure from the checkpoint file:  "JID_8606.chk"
 Charge =  0 Multiplicity = 1

 SCF Done:  E(RB3LYP) =  -857.666263364     A.U. after   16 cycles
 Normal termination of Gaussian 16 at Fri Dec 11 21:43:52 2020.

 ----------------------------------------------------------------------
 # B3LYP/6-311++G(d,p) empiricaldispersion=gd3bj scf=xqc pop=npa geom=c
 heck
 ----------------------------------------------------------------------

 -------------------------------------
 CID_152675877_JID_8606_Energie_kation
 -------------------------------------
 Structure from the checkpoint file:  "JID_8606.chk"
 Charge =  1 Multiplicity = 2

 SCF Done:  E(UB3LYP) =  -857.351657953     A.U. after   33 cycles
 SCF Done:  E(UB3LYP) =  -857.351657953     a.u. after    1 cycles
 Normal termination of Gaussian 16 at Fri Dec 11 22:01:47 2020.
 Gaussian 16:  ES64L-G16RevA.03 25-Dec-2016

 ----------------------------------------------------------------------
 # B3LYP/6-311++G(d,p) empiricaldispersion=gd3bj scf=xqc pop=npa geom=c
 heck
 ----------------------------------------------------------------------

 ------------------------------------
 CID_152675877_JID_8606_Energie_anion
 ------------------------------------
 Structure from the checkpoint file:  "JID_8606.chk"
 Charge = -1 Multiplicity = 2

                         Standard orientation:
 ---------------------------------------------------------------------
 Center     Atomic      Atomic             Coordinates (Angstroms)
 Number     Number       Type             X           Y           Z
 ---------------------------------------------------------------------
      1          6           0        1.129998   -1.205621    0.349351
      2          6           0        1.696968    0.198219    0.516785
      3          6           0        3.243730    0.163817    0.613151
      4          7           0        3.896667   -0.387841   -0.594393
      5          7           0        4.103904   -1.604102   -0.593538
      6          7           0        4.356770   -2.712498   -0.711806
      7          6           0        1.302379    1.173555   -0.627905
      8          6           0       -0.139859    1.126124   -1.176721
      9          8           0       -1.015140    1.995810   -0.458578
     10          6           0       -1.666094    1.420781    0.686035
     11          6           0       -2.604893    0.293102    0.325097
     12          6           0       -2.660010   -0.857989    1.116973
     13          6           0       -3.543875   -1.892991    0.804938
     14          6           0       -4.372246   -1.789037   -0.312020
     15          6           0       -4.316305   -0.645243   -1.112922
     16          6           0       -3.440480    0.390342   -0.794253
     17          8           0        1.570362    2.503160   -0.171777
     18          8           0        1.238748    0.709918    1.767888
     19          1           0        1.371837   -1.616554   -0.636101
     20          1           0        0.043686   -1.203596    0.463956
     21          1           0        1.545540   -1.873087    1.111410
     22          1           0        3.613620    1.187020    0.710855
     23          1           0        3.523412   -0.398498    1.510892
     24          1           0        1.972388    0.955216   -1.468205
     25          1           0       -0.128392    1.525109   -2.195183
     26          1           0       -0.536270    0.107897   -1.217016
     27          1           0       -0.924836    1.082172    1.417044
     28          1           0       -2.222486    2.259140    1.119550
     29          1           0       -2.006944   -0.942016    1.982371
     30          1           0       -3.577265   -2.781884    1.428584
     31          1           0       -5.055913   -2.595633   -0.561114
     32          1           0       -4.958175   -0.561176   -1.985559
     33          1           0       -3.387444    1.278646   -1.417061
     34          1           0        0.687762    2.917159   -0.095717
     35          1           0        1.410465    1.669726    1.698141
 ---------------------------------------------------------------------

 SCF Done:  E(UB3LYP) =  -857.660588329     A.U. after   33 cycles
 SCF Done:  E(UB3LYP) =  -857.660588329     a.u. after    2 cycles

 The electronic state is 2-A.
 Alpha  occ. eigenvalues --  -19.04127 -19.03299 -19.02752 -14.34728 -14.25025
 Alpha  occ. eigenvalues --  -14.24088 -10.13717 -10.12827 -10.12696 -10.11848
 Alpha  occ. eigenvalues --  -10.10684 -10.07978 -10.07943 -10.07882 -10.07817
 Alpha  occ. eigenvalues --  -10.07529 -10.07257 -10.06956  -1.01696  -0.96225
 Alpha  occ. eigenvalues --   -0.93936  -0.91705  -0.86023  -0.76160  -0.70204
 Alpha  occ. eigenvalues --   -0.67655  -0.65120  -0.64193  -0.61825  -0.58643
 Alpha  occ. eigenvalues --   -0.53912  -0.51187  -0.49427  -0.47847  -0.43561
 Alpha  occ. eigenvalues --   -0.42842  -0.42050  -0.41130  -0.40856  -0.40171
 Alpha  occ. eigenvalues --   -0.39834  -0.38003  -0.36485  -0.36393  -0.34790
 Alpha  occ. eigenvalues --   -0.34026  -0.32857  -0.32758  -0.32225  -0.31942
 Alpha  occ. eigenvalues --   -0.30182  -0.29750  -0.28333  -0.27976  -0.26959
 Alpha  occ. eigenvalues --   -0.26534  -0.26135  -0.25078  -0.23977  -0.22266
 Alpha  occ. eigenvalues --   -0.21186  -0.18780  -0.18424  -0.18074  -0.16185
 Alpha  occ. eigenvalues --   -0.15516  -0.13758   0.04254
 Alpha virt. eigenvalues --    0.05826   0.06469   0.07379   0.07486   0.07963
 Alpha virt. eigenvalues --    0.08556   0.08848   0.08948   0.09896   0.10424
 Alpha virt. eigenvalues --    0.10944   0.11285   0.11826   0.12033   0.12765

  Beta  occ. eigenvalues --  -19.04106 -19.03278 -19.02735 -14.34458 -14.24690
  Beta  occ. eigenvalues --  -14.24133 -10.13718 -10.12819 -10.12686 -10.11834
  Beta  occ. eigenvalues --  -10.10609 -10.07991 -10.07911 -10.07840 -10.07782
  Beta  occ. eigenvalues --  -10.07443 -10.07194 -10.06952  -1.01192  -0.96183
  Beta  occ. eigenvalues --   -0.93894  -0.91661  -0.85782  -0.76046  -0.70142
  Beta  occ. eigenvalues --   -0.67520  -0.65033  -0.64080  -0.61726  -0.58569
  Beta  occ. eigenvalues --   -0.53802  -0.51140  -0.49309  -0.47766  -0.43480
  Beta  occ. eigenvalues --   -0.42773  -0.41965  -0.41043  -0.40763  -0.39769
  Beta  occ. eigenvalues --   -0.39337  -0.37751  -0.36377  -0.36304  -0.34625
  Beta  occ. eigenvalues --   -0.33691  -0.32710  -0.32518  -0.32126  -0.31664
  Beta  occ. eigenvalues --   -0.30132  -0.29675  -0.28293  -0.27837  -0.26836
  Beta  occ. eigenvalues --   -0.26480  -0.26011  -0.25026  -0.23939  -0.22221
  Beta  occ. eigenvalues --   -0.21027  -0.18693  -0.18033  -0.17955  -0.15992
  Beta  occ. eigenvalues --   -0.15052  -0.13676
  Beta virt. eigenvalues --    0.06323   0.07015   0.07661   0.07709   0.07902
  Beta virt. eigenvalues --    0.08628   0.08790   0.09113   0.09518   0.10059
  Beta virt. eigenvalues --    0.10661   0.11098   0.11290   0.11891   0.12150

 Mulliken charges and spin densities:
               1          2
     1  C   -0.632720  -0.168892
     2  C   -0.224883   0.879092
     3  C    0.164469  -0.858057
     4  N   -0.293939   0.114724
     5  N    0.513206   0.027211
     6  N   -0.350982   0.154900
     7  C    0.134517  -1.029890
     8  C   -0.557018   0.487385
     9  O   -0.025915  -0.034909
    10  C    0.956362  -1.852877
    11  C    0.201600   0.577521
    12  C   -1.270650   0.678798
    13  C   -0.383012   0.152803
    14  C    0.582865  -0.883526
    15  C   -0.383424   0.020272
    16  C    0.380216   0.036184
    17  O   -0.243717   0.058146
    18  O   -0.137437   0.011248
    19  H    0.086723   0.103244
    20  H    0.315576  -0.251735
    21  H    0.170050   0.011635
    22  H    0.032086   0.186029
    23  H    0.102809   0.078694
    24  H    0.130893   0.094612
    25  H   -0.052001   0.257359
    26  H    0.245066  -0.098132
    27  H    0.309448  -0.040704
    28  H   -0.461682   0.650659
    29  H    0.011377   0.151035
    30  H   -0.064011   0.224631
    31  H   -0.131798   0.267484
    32  H   -0.279898   0.445539
    33  H   -0.123862   0.311306
    34  H    0.161718   0.097233
    35  H    0.117969   0.140977
 Sum of Mulliken charges =  -1.00000   1.00000

 Dipole moment (field-independent basis, Debye):
    X=              0.0181    Y=             -0.1462    Z=              1.0642  Tot=              1.0744
 Quadrupole moment (field-independent basis, Debye-Ang):
   XX=           -197.3559   YY=           -152.8072   ZZ=           -131.1809
   XY=              8.1782   XZ=              4.2105   YZ=             -3.7769

 Summary of Natural Population Analysis:

                                       Natural Population
                Natural  -----------------------------------------------
    Atom  No    Charge         Core      Valence    Rydberg      Total
 -----------------------------------------------------------------------
      C    1   -0.30055      0.99961     2.29491    0.00603     3.30055
      C    2    0.11702      0.99951     1.86771    0.01576     2.88298
      C    3   -0.09813      0.99952     2.08409    0.01452     3.09813
      N    4   -0.21014      0.99970     2.69645    0.01399     3.71014
      N    5    0.13571      0.99970     2.34917    0.01541     3.36429
      N    6   -0.02300      0.99982     2.50946    0.01371     3.52300
      C    7    0.03725      0.99950     1.94823    0.01501     2.96275
      C    8   -0.02528      0.99955     2.01366    0.01207     3.02528
      O    9   -0.30903      0.99989     3.29867    0.01047     4.30903
      C   10   -0.02377      0.99951     2.01080    0.01346     3.02377
      C   11   -0.02623      0.99950     2.01679    0.00993     3.02623
      C   12   -0.10661      0.99951     2.09731    0.00979     3.10661
      C   13   -0.09647      0.99956     2.08740    0.00951     3.09647
      C   14   -0.09167      0.99956     2.08270    0.00941     3.09167
      C   15   -0.10489      0.99956     2.09481    0.01051     3.10489
      C   16   -0.08959      0.99951     2.08038    0.00970     3.08959
      O   17   -0.38426      0.99990     3.37756    0.00680     4.38426
      O   18   -0.38236      0.99989     3.37521    0.00726     4.38236
      H   19    0.10550      0.00000     0.39358    0.00092     0.39450
      H   20    0.10933      0.00000     0.38963    0.00104     0.39067
      H   21    0.10451      0.00000     0.39464    0.00085     0.39549
      H   22    0.10419      0.00000     0.39444    0.00137     0.39581
      H   23    0.09356      0.00000     0.40522    0.00122     0.40644
      H   24    0.09961      0.00000     0.39878    0.00161     0.40039
      H   25    0.09258      0.00000     0.40642    0.00100     0.40742
      H   26    0.09660      0.00000     0.40214    0.00126     0.40340
      H   27    0.09919      0.00000     0.39885    0.00195     0.40081
      H   28    0.09796      0.00000     0.39988    0.00215     0.40204
      H   29    0.10201      0.00000     0.39700    0.00099     0.39799
      H   30    0.09808      0.00000     0.40113    0.00079     0.40192
      H   31    0.09783      0.00000     0.40127    0.00090     0.40217
      H   32    0.09908      0.00000     0.40002    0.00089     0.40092
      H   33    0.10460      0.00000     0.39375    0.00166     0.39540
      H   34    0.24044      0.00000     0.25570    0.00386     0.25956
      H   35    0.23691      0.00000     0.25976    0.00333     0.26309
 =======================================================================
   * Total *   -0.00000     17.99332    48.77754    0.22914    67.00000

 Normal termination of Gaussian 16 at Fri Dec 11 22:51:47 2020.
