 Gaussian 16, Revision A.03,

 -----------------------------------------------------------
 # opt freq B3LYP/6-31G(d) empiricaldispersion=gd3bj scf=xqc
 -----------------------------------------------------------

 -------------------------------
 CID_149605804_JID_3624_neutraal
 -------------------------------
 Symbolic Z-matrix:
 Charge =  0 Multiplicity = 1

 SCF Done:  E(RB3LYP) =  -1301.70725787     A.U. after   16 cycles
 SCF Done:  E(RB3LYP) =  -1301.71648011     A.U. after   16 cycles
 SCF Done:  E(RB3LYP) =  -1301.71860834     A.U. after   14 cycles
 SCF Done:  E(RB3LYP) =  -1301.71977620     A.U. after   16 cycles
 SCF Done:  E(RB3LYP) =  -1301.72025308     A.U. after   13 cycles
 SCF Done:  E(RB3LYP) =  -1301.72041532     A.U. after   12 cycles
 SCF Done:  E(RB3LYP) =  -1301.72045265     A.U. after   12 cycles
 SCF Done:  E(RB3LYP) =  -1301.72046591     A.U. after   11 cycles
 SCF Done:  E(RB3LYP) =  -1301.72048212     A.U. after   12 cycles
 SCF Done:  E(RB3LYP) =  -1301.72050487     A.U. after   12 cycles
 SCF Done:  E(RB3LYP) =  -1301.72337455     A.U. after   13 cycles
 SCF Done:  E(RB3LYP) =  -1301.72338766     A.U. after   11 cycles
 SCF Done:  E(RB3LYP) =  -1301.72339563     A.U. after   11 cycles
 SCF Done:  E(RB3LYP) =  -1301.72339723     A.U. after   11 cycles
 SCF Done:  E(RB3LYP) =  -1301.72339732     A.U. after    9 cycles
 Optimization completed.
    -- Stationary point found.
 Normal termination of Gaussian 16 at Sun Dec 13 12:25:47 2020.

 --------------------------------------------------------------------
 #N Geom=AllCheck Guess=TCheck SCRF=Check GenChk RB3LYP/6-31G(d) Freq
 --------------------------------------------------------------------

 Structure from the checkpoint file:  "JID_3624.chk"
 -------------------------------
 CID_149605804_JID_3624_neutraal
 -------------------------------
 Charge =  0 Multiplicity = 1

 SCF Done:  E(RB3LYP) =  -1301.72339732     A.U. after    1 cycles

  Exact polarizability: 144.856  13.304 142.971  -0.433   0.810  81.170
 Approx polarizability: 232.813  38.227 253.663  -8.442   6.579 152.819

                      1                      2                      3
                      A                      A                      A
 Frequencies --     23.5554                55.1268                61.7363
 Red. masses --      7.2559                11.3088                 7.8352
 Frc consts  --      0.0024                 0.0202                 0.0176
 IR Inten    --      1.8332                 0.4824                 1.2108

                      4                      5                      6
                      A                      A                      A
 Frequencies --    121.8438               143.6520               222.8496
 Red. masses --     12.3444                 9.7218                 3.9307
 Frc consts  --      0.1080                 0.1182                 0.1150
 IR Inten    --      0.7920                 2.7832                 7.6754

                      7                      8                      9
                      A                      A                      A
 Frequencies --    252.6048               268.9971               321.5745
 Red. masses --     13.3530                 8.6193                 4.3338
 Frc consts  --      0.5020                 0.3675                 0.2640
 IR Inten    --      0.6104                 1.9443                 1.5397

                     10                     11                     12
                      A                      A                      A
 Frequencies --    415.3668               475.1359               478.8457
 Red. masses --      6.9925                 5.6484                11.1407
 Frc consts  --      0.7108                 0.7513                 1.5051
 IR Inten    --     13.3140                 3.3073                 4.7531

                     13                     14                     15
                      A                      A                      A
 Frequencies --    533.6675               551.6237               602.8938
 Red. masses --      7.6877                12.1680                 6.3260
 Frc consts  --      1.2900                 2.1815                 1.3548
 IR Inten    --      2.8588                10.6038                 1.2374

                     16                     17                     18
                      A                      A                      A
 Frequencies --    625.4314               652.7087               677.8384
 Red. masses --      5.3909                10.3908                 7.4025
 Frc consts  --      1.2424                 2.6082                 2.0039
 IR Inten    --      0.6662                 2.3048                 4.7775

                     19                     20                     21
                      A                      A                      A
 Frequencies --    703.5197               737.9436               769.1597
 Red. masses --      5.0729                 2.7219                 1.8552
 Frc consts  --      1.4793                 0.8733                 0.6467
 IR Inten    --      7.6260                 5.9485                52.7237

                     22                     23                     24
                      A                      A                      A
 Frequencies --    813.2454               835.9958               843.2381
 Red. masses --      4.8553                 6.8316                 6.3559
 Frc consts  --      1.8920                 2.8131                 2.6627
 IR Inten    --      6.9506                16.2665                30.6156

                     25                     26                     27
                      A                      A                      A
 Frequencies --    901.9941               919.8690               948.7541
 Red. masses --      1.3045                 2.3334                 6.1589
 Frc consts  --      0.6253                 1.1633                 3.2664
 IR Inten    --      0.4046                 8.6560                11.5039

                     28                     29                     30
                      A                      A                      A
 Frequencies --    999.3769              1036.2146              1109.0179
 Red. masses --      2.2128                 2.8341                 1.1629
 Frc consts  --      1.3021                 1.7929                 0.8427
 IR Inten    --      3.4918                 0.2557                 9.3647

                     31                     32                     33
                      A                      A                      A
 Frequencies --   1141.5825              1176.6544              1211.6279
 Red. masses --      3.0515                 1.1290                 1.6497
 Frc consts  --      2.3430                 0.9209                 1.4269
 IR Inten    --     12.4079                 5.4483                 7.1570

                     34                     35                     36
                      A                      A                      A
 Frequencies --   1261.8891              1299.5528              1330.5247
 Red. masses --      1.7885                 1.6438                 1.4494
 Frc consts  --      1.6780                 1.6356                 1.5117
 IR Inten    --      9.8335                 4.6804                12.9667

                     37                     38                     39
                      A                      A                      A
 Frequencies --   1359.1746              1405.0718              1441.9516
 Red. masses --      6.9927                 4.2698                 5.3739
 Frc consts  --      7.6111                 4.9665                 6.5832
 IR Inten    --    340.2416                13.6162                30.2845

                     40                     41                     42
                      A                      A                      A
 Frequencies --   1498.2554              1570.4899              1650.3870
 Red. masses --      1.1007                 6.1979                11.1889
 Frc consts  --      1.4557                 9.0066                17.9560
 IR Inten    --     12.4669                24.7988                43.2662

                     43                     44                     45
                      A                      A                      A
 Frequencies --   2289.7834              3066.7656              3102.4448
 Red. masses --     13.9928                 1.0836                 1.0639
 Frc consts  --     43.2258                 6.0046                 6.0335
 IR Inten    --    670.3978                 3.6612                22.5311

                     46                     47                     48
                      A                      A                      A
 Frequencies --   3181.0531              3252.5645              3271.1079
 Red. masses --      1.1037                 1.0888                 1.1012
 Frc consts  --      6.5805                 6.7865                 6.9425
 IR Inten    --      0.7017                 0.0439                 0.0896

 - Thermochemistry -
 -------------------
 Temperature   298.150 Kelvin.  Pressure   1.00000 Atm.
 Atom     1 has atomic number  6 and mass  12.00000

 Molecular mass:   210.99864 amu.
 Principal axes and moments of inertia in atomic units:
                           1         2         3
     Eigenvalues --  1964.675703810.843945232.72422
           X            0.99980  -0.02005   0.00188
           Y            0.02007   0.99970  -0.01377
           Z           -0.00160   0.01380   0.99990
 This molecule is an asymmetric top.
 Rotational symmetry number  1.
 Warning -- assumption of classical behavior for rotation
           may cause significant error
 Rotational temperatures (Kelvin)      0.04409     0.02273     0.01655
 Rotational constants (GHZ):           0.91859     0.47358     0.34490
 Zero-point vibrational energy     308724.2 (Joules/Mol)
                                   73.78686 (Kcal/Mol)
 Warning -- explicit consideration of  15 degrees of freedom as
           vibrations may cause significant error
 Vibrational temperatures:     33.89    79.32    88.82   175.31   206.68
          (Kelvin)            320.63   363.44   387.03   462.67   597.62
                              683.61   688.95   767.83   793.66   867.43
                              899.86   939.10   975.26  1012.21  1061.74
                             1106.65  1170.08  1202.81  1213.23  1297.77
                             1323.49  1365.05  1437.88  1490.88  1595.63
                             1642.48  1692.94  1743.26  1815.58  1869.77
                             1914.33  1955.55  2021.58  2074.65  2155.66
                             2259.58  2374.54  3294.49  4412.39  4463.73
                             4576.83  4679.71  4706.39

 Zero-point correction=                           0.117587 (Hartree/Particle)
 Thermal correction to Energy=                    0.128756
 Thermal correction to Enthalpy=                  0.129700
 Thermal correction to Gibbs Free Energy=         0.077919
 Sum of electronic and zero-point Energies=          -1301.605810
 Sum of electronic and thermal Energies=             -1301.594641
 Sum of electronic and thermal Enthalpies=           -1301.593697
 Sum of electronic and thermal Free Energies=        -1301.645479

                     E (Thermal)             CV                S
                      KCal/Mol        Cal/Mol-Kelvin    Cal/Mol-Kelvin
 Total                   80.796             40.910            108.984
 Electronic               0.000              0.000              0.000
 Translational            0.889              2.981             41.944
 Rotational               0.889              2.981             32.038
 Vibrational             79.018             34.949             35.002
 Vibration     1          0.593              1.985              6.309
 Vibration     2          0.596              1.976              4.624
 Vibration     3          0.597              1.973              4.401
 Vibration     4          0.609              1.931              3.071
 Vibration     5          0.616              1.910              2.755
 Vibration     6          0.649              1.806              1.936
 Vibration     7          0.664              1.758              1.712
 Vibration     8          0.673              1.730              1.603
 Vibration     9          0.707              1.632              1.302
 Vibration    10          0.779              1.437              0.908
 Vibration    11          0.832              1.305              0.723
 Vibration    12          0.835              1.297              0.713
 Vibration    13          0.889              1.176              0.579
 Vibration    14          0.907              1.136              0.541
 Vibration    15          0.961              1.026              0.445

 Optimization completed.
    -- Stationary point found.
 Normal termination of Gaussian 16 at Sun Dec 13 12:29:48 2020.

 ----------------------------------------------------------------------
 # B3LYP/6-311++G(d,p) empiricaldispersion=gd3bj scf=xqc pop=npa geom=c
 heck
 ----------------------------------------------------------------------

 ---------------------------------------
 CID_149605804_JID_3624_Energie_neutraal
 ---------------------------------------
 Structure from the checkpoint file:  "JID_3624.chk"
 Charge =  0 Multiplicity = 1

 SCF Done:  E(RB3LYP) =  -1301.90952518     A.U. after   16 cycles
 Normal termination of Gaussian 16 at Sun Dec 13 12:31:11 2020.

 ----------------------------------------------------------------------
 # B3LYP/6-311++G(d,p) empiricaldispersion=gd3bj scf=xqc pop=npa geom=c
 heck
 ----------------------------------------------------------------------

 -------------------------------------
 CID_149605804_JID_3624_Energie_kation
 -------------------------------------
 Structure from the checkpoint file:  "JID_3624.chk"
 Charge =  1 Multiplicity = 2

 SCF Done:  E(UB3LYP) =  -1301.61550464     A.U. after   25 cycles
 Normal termination of Gaussian 16 at Sun Dec 13 12:34:02 2020.
 Gaussian 16:  ES64L-G16RevA.03 25-Dec-2016

 ----------------------------------------------------------------------
 # B3LYP/6-311++G(d,p) empiricaldispersion=gd3bj scf=xqc pop=npa geom=c
 heck
 ----------------------------------------------------------------------

 ------------------------------------
 CID_149605804_JID_3624_Energie_anion
 ------------------------------------
 Structure from the checkpoint file:  "JID_3624.chk"
 Charge = -1 Multiplicity = 2

                         Standard orientation:
 ---------------------------------------------------------------------
 Center     Atomic      Atomic             Coordinates (Angstroms)
 Number     Number       Type             X           Y           Z
 ---------------------------------------------------------------------
      1          6           0        0.295998   -2.032782    0.909103
      2          6           0        0.182077   -0.508223    1.064991
      3          6           0        1.383929    0.046220    0.303680
      4          7           0        1.994214   -0.682754   -0.552494
      5         16           0        1.339707   -2.273093   -0.605743
      6          7           0        1.720827    1.387108    0.565949
      7          7           0        2.656133    1.862627   -0.108002
      8          7           0        3.490936    2.412028   -0.645474
      9          6           0       -1.104863    0.071575    0.493896
     10          7           0       -2.012376   -0.736595   -0.016826
     11         16           0       -3.317791    0.164919   -0.567835
     12          6           0       -2.638008    1.679987   -0.102135
     13          6           0       -1.414426    1.470420    0.471134
     14          1           0       -0.678525   -2.497920    0.764448
     15          1           0        0.808402   -2.478951    1.764592
     16          1           0        0.253200   -0.217425    2.119595
     17          1           0       -3.149822    2.619540   -0.265756
     18          1           0       -0.760298    2.245461    0.848282
 ---------------------------------------------------------------------

 SCF Done:  E(UB3LYP) =  -1301.91776979     A.U. after   33 cycles
 SCF Done:  E(UB3LYP) =  -1301.91776979     a.u. after    1 cycles

 The electronic state is 2-A.
 Alpha  occ. eigenvalues --  -88.75574 -88.72828 -14.32843 -14.24045 -14.22947
 Alpha  occ. eigenvalues --  -14.18108 -14.16892 -10.10308 -10.07926 -10.07501
 Alpha  occ. eigenvalues --  -10.07392 -10.06847 -10.04813  -7.84066  -7.81250
 Alpha  occ. eigenvalues --   -5.80454  -5.79977  -5.79624  -5.77753  -5.77277
 Alpha  occ. eigenvalues --   -5.76550  -1.00305  -0.85844  -0.82654  -0.79263
 Alpha  occ. eigenvalues --   -0.67466  -0.64822  -0.62650  -0.59497  -0.50922
 Alpha  occ. eigenvalues --   -0.49318  -0.45404  -0.41610  -0.38577  -0.38253
 Alpha  occ. eigenvalues --   -0.36865  -0.36716  -0.32824  -0.31999  -0.30706
 Alpha  occ. eigenvalues --   -0.29548  -0.27180  -0.25842  -0.25376  -0.23914
 Alpha  occ. eigenvalues --   -0.21888  -0.20631  -0.17945  -0.16295  -0.15570
 Alpha  occ. eigenvalues --   -0.15373  -0.14091  -0.12447  -0.07479   0.04867
 Alpha virt. eigenvalues --    0.08592   0.08738   0.08973   0.09918   0.10644
 Alpha virt. eigenvalues --    0.11715   0.12225   0.12714   0.13522   0.13822
 Alpha virt. eigenvalues --    0.14600   0.14918   0.15158   0.15657   0.16119

  Beta  occ. eigenvalues --  -88.75528 -88.72821 -14.32484 -14.23641 -14.23097
  Beta  occ. eigenvalues --  -14.17772 -14.16541 -10.10112 -10.07853 -10.07529
  Beta  occ. eigenvalues --  -10.07385 -10.06608 -10.04846  -7.84025  -7.81243
  Beta  occ. eigenvalues --   -5.80434  -5.79959  -5.79469  -5.77752  -5.77274
  Beta  occ. eigenvalues --   -5.76525  -0.99703  -0.85576  -0.82259  -0.78850
  Beta  occ. eigenvalues --   -0.67222  -0.64413  -0.62423  -0.59215  -0.50628
  Beta  occ. eigenvalues --   -0.49174  -0.45073  -0.41325  -0.38329  -0.37429
  Beta  occ. eigenvalues --   -0.36476  -0.35847  -0.32561  -0.31258  -0.30459
  Beta  occ. eigenvalues --   -0.29208  -0.26597  -0.25512  -0.25149  -0.23016
  Beta  occ. eigenvalues --   -0.21509  -0.20296  -0.17885  -0.15862  -0.14992
  Beta  occ. eigenvalues --   -0.14620  -0.12857  -0.11803  -0.06719
  Beta virt. eigenvalues --    0.08528   0.08981   0.10001   0.10248   0.10792
  Beta virt. eigenvalues --    0.11500   0.11769   0.12256   0.12797   0.13649
  Beta virt. eigenvalues --    0.13833   0.14647   0.14919   0.15326   0.15795

 Mulliken charges and spin densities:
               1          2
     1  C   -0.865134   0.030751
     2  C    0.830662  -0.028931
     3  C   -0.909383   0.103149
     4  N   -0.142804   0.165735
     5  S    0.052285   0.020791
     6  N   -0.117562  -0.044041
     7  N    0.250528   0.077171
     8  N   -0.128012   0.242274
     9  C   -0.847016  -0.092827
    10  N    0.023203   0.158160
    11  S    0.153728   0.117319
    12  C   -0.497417   0.081476
    13  C    0.352788   0.027699
    14  H    0.214529  -0.001610
    15  H    0.157277   0.018777
    16  H    0.131286   0.075927
    17  H    0.186488   0.004171
    18  H    0.154554   0.044009
 Sum of Mulliken charges =  -1.00000   1.00000

 Dipole moment (field-independent basis, Debye):
    X=             -3.1182    Y=             -0.0785    Z=              2.8329  Tot=              4.2136
 Quadrupole moment (field-independent basis, Debye-Ang):
   XX=           -132.6527   YY=           -107.2396   ZZ=            -98.5696
   XY=             -8.1132   XZ=              6.1199   YZ=             -1.5723

 Summary of Natural Population Analysis:

                                       Natural Population
                Natural  -----------------------------------------------
    Atom  No    Charge         Core      Valence    Rydberg      Total
 -----------------------------------------------------------------------
      C    1   -0.24837      0.99960     2.24070    0.00806     3.24837
      C    2   -0.15024      0.99951     2.13667    0.01406     3.15024
      C    3    0.22168      0.99951     1.75950    0.01930     2.77832
      N    4   -0.27128      0.99960     2.75745    0.01424     3.77128
      S    5    0.16617      4.99963     2.80891    0.02529     7.83383
      N    6   -0.22904      0.99964     2.71475    0.01465     3.72904
      N    7    0.16215      0.99971     2.32143    0.01672     3.33785
      N    8    0.01595      0.99981     2.47142    0.01281     3.48405
      C    9    0.10855      0.99955     1.87609    0.01580     2.89145
      N   10   -0.28067      0.99968     2.76775    0.01324     3.78067
      S   11    0.28015      4.99946     2.69062    0.02977     7.71985
      C   12   -0.15755      0.99956     2.14643    0.01156     3.15755
      C   13   -0.15859      0.99948     2.14961    0.00949     3.15859
      H   14    0.11758      0.00000     0.37994    0.00248     0.38242
      H   15    0.09497      0.00000     0.40365    0.00138     0.40503
      H   16    0.11369      0.00000     0.38452    0.00179     0.38631
      H   17    0.10072      0.00000     0.39813    0.00116     0.39928
      H   18    0.11415      0.00000     0.38459    0.00126     0.38585
 =======================================================================
   * Total *   -0.00000     20.99476    32.79218    0.21306    54.00000

 Normal termination of Gaussian 16 at Sun Dec 13 12:37:53 2020.
