 Gaussian 16, Revision A.03,

 -----------------------------------------------------------
 # opt freq B3LYP/6-31G(d) empiricaldispersion=gd3bj scf=xqc
 -----------------------------------------------------------

 ------------------------------
 CID_80545775_JID_7552_neutraal
 ------------------------------
 Symbolic Z-matrix:
 Charge =  0 Multiplicity = 1

 SCF Done:  E(RB3LYP) =  -770.050157555     A.U. after   15 cycles
 SCF Done:  E(RB3LYP) =  -770.052812773     A.U. after   13 cycles
 SCF Done:  E(RB3LYP) =  -770.053090081     A.U. after   13 cycles
 SCF Done:  E(RB3LYP) =  -770.053237765     A.U. after   11 cycles
 SCF Done:  E(RB3LYP) =  -770.053392358     A.U. after   12 cycles
 SCF Done:  E(RB3LYP) =  -770.053470849     A.U. after   11 cycles
 SCF Done:  E(RB3LYP) =  -770.053505769     A.U. after   11 cycles
 SCF Done:  E(RB3LYP) =  -770.053511354     A.U. after   10 cycles
 SCF Done:  E(RB3LYP) =  -770.053514398     A.U. after    9 cycles
 SCF Done:  E(RB3LYP) =  -770.053515349     A.U. after    8 cycles
 SCF Done:  E(RB3LYP) =  -770.053516640     A.U. after    7 cycles
 SCF Done:  E(RB3LYP) =  -770.053516663     A.U. after    6 cycles
 SCF Done:  E(RB3LYP) =  -770.053516670     A.U. after    6 cycles
 SCF Done:  E(RB3LYP) =  -770.053516673     A.U. after    6 cycles
 SCF Done:  E(RB3LYP) =  -770.053516674     A.U. after    6 cycles
 Optimization completed.
    -- Stationary point found.
 Normal termination of Gaussian 16 at Fri Dec 11 12:28:18 2020.

 --------------------------------------------------------------------
 #N Geom=AllCheck Guess=TCheck SCRF=Check GenChk RB3LYP/6-31G(d) Freq
 --------------------------------------------------------------------

 Structure from the checkpoint file:  "JID_7552.chk"
 ------------------------------
 CID_80545775_JID_7552_neutraal
 ------------------------------
 Charge =  0 Multiplicity = 1

 SCF Done:  E(RB3LYP) =  -770.053516674     A.U. after    1 cycles

  Exact polarizability: 201.373 -11.043 134.090  20.782   9.887 133.581
 Approx polarizability: 253.038 -21.564 197.027  49.507  29.236 230.663

                      1                      2                      3
                      A                      A                      A
 Frequencies --     15.6163                24.1757                28.8097
 Red. masses --      4.4388                 3.9419                 2.9072
 Frc consts  --      0.0006                 0.0014                 0.0014
 IR Inten    --      0.0122                 1.2692                 0.1738

                      4                      5                      6
                      A                      A                      A
 Frequencies --     38.3678                60.1715                98.3324
 Red. masses --      3.5723                 4.3834                 5.3461
 Frc consts  --      0.0031                 0.0094                 0.0305
 IR Inten    --      0.0106                 1.5506                 0.5323

                      7                      8                      9
                      A                      A                      A
 Frequencies --    105.6498               137.4598               152.6978
 Red. masses --      3.1448                 3.3925                 2.4589
 Frc consts  --      0.0207                 0.0378                 0.0338
 IR Inten    --      1.8158                 0.1488                 0.4924

                     10                     11                     12
                      A                      A                      A
 Frequencies --    173.5164               198.0644               221.6592
 Red. masses --      3.6200                 1.9828                 1.6983
 Frc consts  --      0.0642                 0.0458                 0.0492
 IR Inten    --      2.0245                 1.6232                 2.0560

                     13                     14                     15
                      A                      A                      A
 Frequencies --    237.7358               246.1157               302.4031
 Red. masses --      2.1179                 1.5829                 3.0211
 Frc consts  --      0.0705                 0.0565                 0.1628
 IR Inten    --      1.8435                 1.1846                 4.7417

                     16                     17                     18
                      A                      A                      A
 Frequencies --    314.5133               335.7891               349.2597
 Red. masses --      2.9945                 2.7707                 2.9299
 Frc consts  --      0.1745                 0.1841                 0.2106
 IR Inten    --      4.2087                 4.0602                 1.6500

                     19                     20                     21
                      A                      A                      A
 Frequencies --    388.6296               439.7175               468.5305
 Red. masses --      3.0926                 3.1236                 3.2061
 Frc consts  --      0.2752                 0.3558                 0.4147
 IR Inten    --      0.5382                 2.6592                 1.6067

                     22                     23                     24
                      A                      A                      A
 Frequencies --    485.7879               524.2731               550.4529
 Red. masses --      5.5241                 4.4907                 4.1243
 Frc consts  --      0.7681                 0.7273                 0.7363
 IR Inten    --      6.2324                 2.3848                 7.9304

                     25                     26                     27
                      A                      A                      A
 Frequencies --    598.1750               634.1616               698.2272
 Red. masses --      4.1348                 4.0997                 2.9699
 Frc consts  --      0.8717                 0.9714                 0.8531
 IR Inten    --      4.6649                 0.6415                 7.4518

                     28                     29                     30
                      A                      A                      A
 Frequencies --    706.4834               712.7769               736.6819
 Red. masses --      3.7609                 2.3395                 4.8041
 Frc consts  --      1.1060                 0.7003                 1.5361
 IR Inten    --     10.5824                11.1940                 2.7045

                     31                     32                     33
                      A                      A                      A
 Frequencies --    787.4500               800.7534               802.3163
 Red. masses --      1.5012                 1.3144                 1.1887
 Frc consts  --      0.5485                 0.4965                 0.4508
 IR Inten    --     35.4584                 4.8417                 3.5510

                     34                     35                     36
                      A                      A                      A
 Frequencies --    855.9570               873.7055               876.5907
 Red. masses --      2.3277                 2.5843                 1.4348
 Frc consts  --      1.0048                 1.1623                 0.6496
 IR Inten    --      9.8270                 4.0919                 0.3237

                     37                     38                     39
                      A                      A                      A
 Frequencies --    891.0851               904.2859               949.2204
 Red. masses --      1.4784                 2.9831                 2.4900
 Frc consts  --      0.6917                 1.4373                 1.3219
 IR Inten    --     14.9875                11.4732                 9.6616

                     40                     41                     42
                      A                      A                      A
 Frequencies --    961.9088               994.3714              1005.8638
 Red. masses --      1.2617                 2.3998                 1.4163
 Frc consts  --      0.6878                 1.3981                 0.8443
 IR Inten    --      0.5068                 3.5228                 6.0245

                     43                     44                     45
                      A                      A                      A
 Frequencies --   1018.6646              1044.1437              1064.6060
 Red. masses --      5.7455                 1.4685                 3.3130
 Frc consts  --      3.5127                 0.9433                 2.2124
 IR Inten    --      0.6287                41.4025                65.7264

                     46                     47                     48
                      A                      A                      A
 Frequencies --   1080.9721              1092.5875              1103.1619
 Red. masses --      2.6810                 2.1190                 1.8864
 Frc consts  --      1.8458                 1.4904                 1.3526
 IR Inten    --     46.2946                39.4332                21.4043

                     49                     50                     51
                      A                      A                      A
 Frequencies --   1115.7838              1134.0724              1141.7034
 Red. masses --      2.7675                 2.0315                 1.5347
 Frc consts  --      2.0300                 1.5394                 1.1786
 IR Inten    --     32.6935                57.1359                 5.5773

                     52                     53                     54
                      A                      A                      A
 Frequencies --   1191.8619              1209.9246              1211.7909
 Red. masses --      1.7554                 1.7126                 1.2059
 Frc consts  --      1.4692                 1.4771                 1.0433
 IR Inten    --    114.0485                 9.3930                 4.9519

                     55                     56                     57
                      A                      A                      A
 Frequencies --   1259.8885              1280.1636              1288.9136
 Red. masses --      1.3146                 1.8553                 1.5218
 Frc consts  --      1.2294                 1.7914                 1.4895
 IR Inten    --     33.7694                70.8904               104.9552

                     58                     59                     60
                      A                      A                      A
 Frequencies --   1307.8384              1327.3083              1330.6085
 Red. masses --      2.9737                 1.4725                 1.4596
 Frc consts  --      2.9968                 1.5284                 1.5226
 IR Inten    --    346.3318                54.1679                23.9530

                     61                     62                     63
                      A                      A                      A
 Frequencies --   1344.8997              1348.7015              1371.0850
 Red. masses --      1.1591                 1.2948                 1.7495
 Frc consts  --      1.2352                 1.3876                 1.9378
 IR Inten    --     27.3076                30.6450                 0.6124

                     64                     65                     66
                      A                      A                      A
 Frequencies --   1376.1119              1416.2258              1420.9622
 Red. masses --      3.0466                 1.3695                 1.2993
 Frc consts  --      3.3992                 1.6184                 1.5457
 IR Inten    --     53.9437                18.8413                18.7266

                     67                     68                     69
                      A                      A                      A
 Frequencies --   1435.3481              1444.7123              1502.7479
 Red. masses --      1.2216                 1.3364                 3.0026
 Frc consts  --      1.4828                 1.6435                 3.9950
 IR Inten    --      1.7437                10.4702                33.9065

                     70                     71                     72
                      A                      A                      A
 Frequencies --   1515.3760              1515.7832              1518.4929
 Red. masses --      1.0960                 1.0519                 1.0745
 Frc consts  --      1.4829                 1.4240                 1.4598
 IR Inten    --      5.5401                11.4818                 1.9801

                     73                     74                     75
                      A                      A                      A
 Frequencies --   1519.2189              1525.7184              1538.1374
 Red. masses --      1.0811                 1.0408                 1.2324
 Frc consts  --      1.4701                 1.4275                 1.7179
 IR Inten    --      6.2159                 7.4090                18.1940

                     76                     77                     78
                      A                      A                      A
 Frequencies --   1538.2596              1542.6590              1644.3671
 Red. masses --      1.0593                 1.8859                 5.6638
 Frc consts  --      1.4768                 2.6444                 9.0231
 IR Inten    --      6.8021                43.5371                62.2827

                     79                     80                     81
                      A                      A                      A
 Frequencies --   1672.7658              1723.8611              1803.1204
 Red. masses --      6.1927                 6.7680                10.0323
 Frc consts  --     10.2094                11.8499                19.2176
 IR Inten    --     82.7219                13.9897               264.9663

                     82                     83                     84
                      A                      A                      A
 Frequencies --   3038.0019              3046.9507              3049.0379
 Red. masses --      1.0614                 1.0596                 1.0348
 Frc consts  --      5.7716                 5.7961                 5.6681
 IR Inten    --     37.4411                29.5836                36.9390

                     85                     86                     87
                      A                      A                      A
 Frequencies --   3061.9634              3082.0378              3086.4420
 Red. masses --      1.0362                 1.1038                 1.1024
 Frc consts  --      5.7241                 6.1776                 6.1874
 IR Inten    --     15.7298                 9.5677                16.3047

                     88                     89                     90
                      A                      A                      A
 Frequencies --   3094.3314              3119.1591              3124.1557
 Red. masses --      1.0588                 1.1028                 1.1035
 Frc consts  --      5.9733                 6.3213                 6.3461
 IR Inten    --     29.0171                49.4366                34.3415

                     91                     92                     93
                      A                      A                      A
 Frequencies --   3128.3352              3140.0562              3159.7340
 Red. masses --      1.1018                 1.1044                 1.1073
 Frc consts  --      6.3531                 6.4160                 6.5136
 IR Inten    --     27.3326                 7.9601                25.1891

                     94                     95                     96
                      A                      A                      A
 Frequencies --   3181.0344              3195.7186              3197.3547
 Red. masses --      1.0867                 1.0930                 1.0911
 Frc consts  --      6.4788                 6.5769                 6.5718
 IR Inten    --      6.8820                 4.4687                22.2661

                     97                     98                     99
                      A                      A                      A
 Frequencies --   3199.8201              3206.6312              3247.6817
 Red. masses --      1.0934                 1.0877                 1.0910
 Frc consts  --      6.5958                 6.5898                 6.7801
 IR Inten    --      8.8380                 1.8037                 9.1487

 - Thermochemistry -
 -------------------
 Temperature   298.150 Kelvin.  Pressure   1.00000 Atm.
 Atom     1 has atomic number  6 and mass  12.00000

 Molecular mass:   234.12559 amu.
 Principal axes and moments of inertia in atomic units:
                           1         2         3
     Eigenvalues --  1962.58823********************
           X            0.99998   0.00530  -0.00208
           Y           -0.00533   0.99983  -0.01744
           Z            0.00199   0.01745   0.99985
 This molecule is an asymmetric top.
 Rotational symmetry number  1.
 Warning -- assumption of classical behavior for rotation
           may cause significant error
 Rotational temperatures (Kelvin)      0.04413     0.00827     0.00773
 Rotational constants (GHZ):           0.91957     0.17225     0.16114
 Zero-point vibrational energy     777385.7 (Joules/Mol)
                                  185.79964 (Kcal/Mol)
 Warning -- explicit consideration of  25 degrees of freedom as
           vibrations may cause significant error
 Vibrational temperatures:     22.47    34.78    41.45    55.20    86.57
          (Kelvin)            141.48   152.01   197.77   219.70   249.65
                              284.97   318.92   342.05   354.11   435.09
                              452.51   483.13   502.51   559.15   632.66
                              674.11   698.94   754.31   791.98   860.64
                              912.42  1004.59  1016.47  1025.53  1059.92
                             1132.96  1152.11  1154.35  1231.53  1257.07
                             1261.22  1282.07  1301.07  1365.72  1383.97
                             1430.68  1447.21  1465.63  1502.29  1531.73
                             1555.28  1571.99  1587.20  1605.36  1631.68
                             1642.66  1714.82  1740.81  1743.50  1812.70
                             1841.87  1854.46  1881.69  1909.70  1914.45
                             1935.01  1940.48  1972.69  1979.92  2037.63
                             2044.45  2065.15  2078.62  2162.12  2180.29
                             2180.87  2184.77  2185.82  2195.17  2213.04
                             2213.21  2219.54  2365.88  2406.74  2480.25
                             2594.29  4371.01  4383.88  4386.89  4405.48
                             4434.36  4440.70  4452.05  4487.77  4494.96
                             4500.98  4517.84  4546.15  4576.80  4597.93
                             4600.28  4603.83  4613.63  4672.69

 Zero-point correction=                           0.296091 (Hartree/Particle)
 Thermal correction to Energy=                    0.313651
 Thermal correction to Enthalpy=                  0.314596
 Thermal correction to Gibbs Free Energy=         0.247111
 Sum of electronic and zero-point Energies=           -769.757426
 Sum of electronic and thermal Energies=              -769.739865
 Sum of electronic and thermal Enthalpies=            -769.738921
 Sum of electronic and thermal Free Energies=         -769.806405

                     E (Thermal)             CV                S
                      KCal/Mol        Cal/Mol-Kelvin    Cal/Mol-Kelvin
 Total                  196.819             64.160            142.032
 Electronic               0.000              0.000              0.000
 Translational            0.889              2.981             42.254
 Rotational               0.889              2.981             33.798
 Vibrational            195.042             58.198             65.981
 Vibration     1          0.593              1.986              7.126
 Vibration     2          0.593              1.985              6.258
 Vibration     3          0.593              1.984              5.910
 Vibration     4          0.594              1.982              5.342
 Vibration     5          0.597              1.973              4.452
 Vibration     6          0.604              1.950              3.487
 Vibration     7          0.605              1.945              3.347
 Vibration     8          0.614              1.916              2.839
 Vibration     9          0.619              1.900              2.638
 Vibration    10          0.627              1.875              2.397
 Vibration    11          0.637              1.843              2.151
 Vibration    12          0.648              1.808              1.945
 Vibration    13          0.656              1.783              1.820
 Vibration    14          0.661              1.769              1.758
 Vibration    15          0.694              1.669              1.404
 Vibration    16          0.702              1.646              1.338
 Vibration    17          0.717              1.604              1.232
 Vibration    18          0.727              1.577              1.170
 Vibration    19          0.757              1.494              1.005
 Vibration    20          0.800              1.384              0.827
 Vibration    21          0.826              1.320              0.742
 Vibration    22          0.842              1.282              0.695
 Vibration    23          0.879              1.196              0.600
 Vibration    24          0.906              1.139              0.543
 Vibration    25          0.956              1.036              0.453

                           ! Non-Optimized Parameters !
 Normal termination of Gaussian 16 at Fri Dec 11 12:38:43 2020.

 ----------------------------------------------------------------------
 # B3LYP/6-311++G(d,p) empiricaldispersion=gd3bj scf=xqc pop=npa geom=c
 heck
 ----------------------------------------------------------------------

 --------------------------------------
 CID_80545775_JID_7552_Energie_neutraal
 --------------------------------------
 Structure from the checkpoint file:  "JID_7552.chk"
 Charge =  0 Multiplicity = 1

 SCF Done:  E(RB3LYP) =  -770.269298161     A.U. after   15 cycles
 Normal termination of Gaussian 16 at Fri Dec 11 12:46:13 2020.

 ----------------------------------------------------------------------
 # B3LYP/6-311++G(d,p) empiricaldispersion=gd3bj scf=xqc pop=npa geom=c
 heck
 ----------------------------------------------------------------------

 ------------------------------------
 CID_80545775_JID_7552_Energie_kation
 ------------------------------------
 Structure from the checkpoint file:  "JID_7552.chk"
 Charge =  1 Multiplicity = 2

 SCF Done:  E(UB3LYP) =  -769.972741243     A.U. after   24 cycles
 Normal termination of Gaussian 16 at Fri Dec 11 13:00:33 2020.
 Gaussian 16:  ES64L-G16RevA.03 25-Dec-2016

 ----------------------------------------------------------------------
 # B3LYP/6-311++G(d,p) empiricaldispersion=gd3bj scf=xqc pop=npa geom=c
 heck
 ----------------------------------------------------------------------

 -----------------------------------
 CID_80545775_JID_7552_Energie_anion
 -----------------------------------
 Structure from the checkpoint file:  "JID_7552.chk"
 Charge = -1 Multiplicity = 2

                         Standard orientation:
 ---------------------------------------------------------------------
 Center     Atomic      Atomic             Coordinates (Angstroms)
 Number     Number       Type             X           Y           Z
 ---------------------------------------------------------------------
      1          6           0       -6.014955    0.371346   -0.261962
      2          6           0       -4.800742    1.128913   -0.823878
      3          6           0       -3.507848    0.694613   -0.171818
      4          6           0       -2.751571   -0.338553   -0.722227
      5          6           0       -1.580277   -0.784580   -0.098920
      6          6           0       -1.150342   -0.192591    1.092134
      7          6           0       -1.911127    0.842926    1.642486
      8          6           0       -3.075663    1.286019    1.024796
      9          8           0       -0.937035   -1.813320   -0.740705
     10          6           0        0.256079   -2.335238   -0.169129
     11          6           0        1.431025   -1.413787   -0.333944
     12          6           0        2.397511   -1.263929    0.577282
     13          6           0        3.583344   -0.395402    0.408842
     14          8           0        4.429242   -0.249212    1.270627
     15          8           0        3.619513    0.212524   -0.799034
     16          6           0        4.725280    1.115706   -1.025018
     17          6           0        4.447126    2.485839   -0.427942
     18          1           0       -5.908165   -0.706741   -0.424604
     19          1           0       -6.942904    0.701085   -0.742742
     20          1           0       -6.110632    0.536103    0.816910
     21          1           0       -4.740743    0.967181   -1.906898
     22          1           0       -4.944085    2.206090   -0.673314
     23          1           0       -3.056594   -0.819979   -1.647033
     24          1           0       -0.236295   -0.504394    1.579900
     25          1           0       -1.575418    1.309484    2.564619
     26          1           0       -3.653101    2.095579    1.463566
     27          1           0        0.103995   -2.608137    0.883950
     28          1           0        0.437336   -3.259689   -0.729805
     29          1           0        1.483945   -0.875296   -1.276834
     30          1           0        2.364806   -1.776953    1.535196
     31          1           0        5.630877    0.675230   -0.601137
     32          1           0        4.816929    1.161286   -2.112647
     33          1           0        4.374281    2.419648    0.660752
     34          1           0        5.262160    3.174228   -0.678462
     35          1           0        3.512796    2.897643   -0.822734
 ---------------------------------------------------------------------

 SCF Done:  E(UB3LYP) =  -770.273033189     A.U. after   33 cycles
 SCF Done:  E(UB3LYP) =  -770.273033188     a.u. after    1 cycles

 The electronic state is 2-A.
 Alpha  occ. eigenvalues --  -19.03730 -19.02682 -18.95101 -10.13740 -10.12528
 Alpha  occ. eigenvalues --  -10.11763 -10.10878 -10.07813 -10.07611 -10.06985
 Alpha  occ. eigenvalues --  -10.06915 -10.06540 -10.06233 -10.06003 -10.05923
 Alpha  occ. eigenvalues --  -10.02369 -10.02279  -0.96367  -0.95272  -0.87126
 Alpha  occ. eigenvalues --   -0.75281  -0.68879  -0.67602  -0.65958  -0.63472
 Alpha  occ. eigenvalues --   -0.62302  -0.58090  -0.54114  -0.53494  -0.50006
 Alpha  occ. eigenvalues --   -0.48190  -0.45146  -0.42974  -0.41787  -0.38685
 Alpha  occ. eigenvalues --   -0.38510  -0.37343  -0.35344  -0.34700  -0.34395
 Alpha  occ. eigenvalues --   -0.34263  -0.32428  -0.32040  -0.31711  -0.30897
 Alpha  occ. eigenvalues --   -0.29821  -0.29442  -0.28115  -0.27271  -0.26702
 Alpha  occ. eigenvalues --   -0.26657  -0.26038  -0.24669  -0.24243  -0.23492
 Alpha  occ. eigenvalues --   -0.22365  -0.21500  -0.20834  -0.17516  -0.14739
 Alpha  occ. eigenvalues --   -0.13677  -0.13440  -0.11629   0.04345
 Alpha virt. eigenvalues --    0.05685   0.07313   0.08073   0.08454   0.08841
 Alpha virt. eigenvalues --    0.09210   0.09554   0.09888   0.10233   0.10469
 Alpha virt. eigenvalues --    0.10640   0.11268   0.11930   0.12338   0.12741

  Beta  occ. eigenvalues --  -19.03692 -19.02642 -18.94796 -10.13531 -10.12534
  Beta  occ. eigenvalues --  -10.11766 -10.10910 -10.07809 -10.07576 -10.06957
  Beta  occ. eigenvalues --  -10.06870 -10.06531 -10.06245 -10.05994 -10.05883
  Beta  occ. eigenvalues --  -10.02211 -10.01881  -0.96143  -0.95191  -0.86680
  Beta  occ. eigenvalues --   -0.75217  -0.68812  -0.67243  -0.65823  -0.63200
  Beta  occ. eigenvalues --   -0.62242  -0.57859  -0.54013  -0.53419  -0.49921
  Beta  occ. eigenvalues --   -0.47806  -0.44793  -0.42755  -0.41721  -0.38602
  Beta  occ. eigenvalues --   -0.38439  -0.37283  -0.35094  -0.34569  -0.34308
  Beta  occ. eigenvalues --   -0.34009  -0.32330  -0.31919  -0.31467  -0.30716
  Beta  occ. eigenvalues --   -0.29750  -0.29290  -0.28019  -0.26958  -0.26598
  Beta  occ. eigenvalues --   -0.26396  -0.25637  -0.24638  -0.24140  -0.23298
  Beta  occ. eigenvalues --   -0.22269  -0.21401  -0.20647  -0.16648  -0.14323
  Beta  occ. eigenvalues --   -0.13230  -0.11805  -0.11462
  Beta virt. eigenvalues --    0.06287   0.07219   0.08103   0.08517   0.08816
  Beta virt. eigenvalues --    0.09046   0.09486   0.09903   0.10062   0.10553
  Beta virt. eigenvalues --    0.10630   0.10998   0.11399   0.11863   0.12282

 Mulliken charges and spin densities:
               1          2
     1  C    0.361865  -0.988720
     2  C   -0.786151   0.457092
     3  C    0.983674   0.089244
     4  C   -0.154562  -0.185800
     5  C   -0.590524   0.097924
     6  C    0.281757  -0.169488
     7  C   -0.318498  -0.020764
     8  C   -0.353524  -0.031355
     9  O   -0.057512  -0.018392
    10  C   -0.481251  -0.040896
    11  C    0.006954   0.342810
    12  C   -0.044650   0.069797
    13  C   -0.354907   0.161446
    14  O   -0.356506   0.093833
    15  O   -0.045196   0.004693
    16  C   -0.209120   0.022027
    17  C   -0.275698  -0.064930
    18  H    0.072540   0.062637
    19  H   -0.386112   0.510051
    20  H    0.023622   0.111164
    21  H   -0.019834   0.164975
    22  H   -0.007154   0.145238
    23  H    0.155978  -0.005052
    24  H    0.126981  -0.024832
    25  H    0.123490   0.041745
    26  H    0.069724   0.057160
    27  H    0.132481   0.010541
    28  H    0.108910   0.072205
    29  H    0.215822  -0.026104
    30  H    0.145970  -0.005094
    31  H    0.156623  -0.000913
    32  H    0.126758   0.006057
    33  H    0.155568   0.015848
    34  H    0.071050   0.033696
    35  H    0.121432   0.012159
 Sum of Mulliken charges =  -1.00000   1.00000

 Dipole moment (field-independent basis, Debye):
    X=              0.4656    Y=              0.9745    Z=             -0.9717  Tot=              1.4528
 Quadrupole moment (field-independent basis, Debye-Ang):
   XX=           -208.9444   YY=           -118.8676   ZZ=           -118.4610
   XY=             10.8550   XZ=            -17.0221   YZ=              0.3275

 Summary of Natural Population Analysis:

                                       Natural Population
                Natural  -----------------------------------------------
    Atom  No    Charge         Core      Valence    Rydberg      Total
 -----------------------------------------------------------------------
      C    1   -0.28051      0.99966     2.27591    0.00494     3.28051
      C    2   -0.19818      0.99961     2.18839    0.01017     3.19818
      C    3   -0.00579      0.99951     1.99630    0.00997     3.00579
      C    4   -0.11810      0.99947     2.11053    0.00810     3.11810
      C    5    0.16898      0.99938     1.81982    0.01182     2.83102
      C    6   -0.14407      0.99952     2.13657    0.00799     3.14407
      C    7   -0.08452      0.99958     2.07545    0.00949     3.08452
      C    8   -0.12780      0.99951     2.11927    0.00902     3.12780
      O    9   -0.27448      0.99986     3.26498    0.00964     4.27448
      C   10   -0.02726      0.99955     2.01698    0.01074     3.02726
      C   11    0.00346      0.99953     1.98865    0.00836     2.99654
      C   12   -0.14678      0.99947     2.13757    0.00974     3.14678
      C   13    0.41195      0.99966     1.56421    0.02418     2.58805
      O   14   -0.30229      0.99987     3.29654    0.00587     4.30229
      O   15   -0.28926      0.99986     3.28006    0.00934     4.28926
      C   16   -0.01522      0.99960     2.00539    0.01023     3.01522
      C   17   -0.29993      0.99967     2.29519    0.00507     3.29993
      H   18    0.09691      0.00000     0.40214    0.00094     0.40309
      H   19    0.09692      0.00000     0.40140    0.00169     0.40308
      H   20    0.09669      0.00000     0.40240    0.00091     0.40331
      H   21    0.09835      0.00000     0.40057    0.00108     0.40165
      H   22    0.09762      0.00000     0.40132    0.00106     0.40238
      H   23    0.10096      0.00000     0.39738    0.00166     0.39904
      H   24    0.11354      0.00000     0.38503    0.00144     0.38646
      H   25    0.09580      0.00000     0.40304    0.00116     0.40420
      H   26    0.09615      0.00000     0.40295    0.00090     0.40385
      H   27    0.08174      0.00000     0.41654    0.00172     0.41826
      H   28    0.09654      0.00000     0.40233    0.00113     0.40346
      H   29    0.09471      0.00000     0.40419    0.00110     0.40529
      H   30    0.09161      0.00000     0.40730    0.00109     0.40839
      H   31    0.09196      0.00000     0.40654    0.00150     0.40804
      H   32    0.08158      0.00000     0.41733    0.00109     0.41842
      H   33    0.10891      0.00000     0.39003    0.00106     0.39109
      H   34    0.09185      0.00000     0.40663    0.00152     0.40815
      H   35    0.09796      0.00000     0.40069    0.00136     0.40204
 =======================================================================
   * Total *    0.00000     16.99332    45.81962    0.18707    63.00000

 Normal termination of Gaussian 16 at Fri Dec 11 13:18:49 2020.
