 Gaussian 16, Revision A.03,

 -----------------------------------------------------------
 # opt freq B3LYP/6-31G(d) empiricaldispersion=gd3bj scf=xqc
 -----------------------------------------------------------

 -------------------------------
 CID_150734477_JID_5661_neutraal
 -------------------------------
 Symbolic Z-matrix:
 Charge =  0 Multiplicity = 1

 SCF Done:  E(RB3LYP) =  -645.356354842     A.U. after   17 cycles
 SCF Done:  E(RB3LYP) =  -645.365076221     A.U. after   16 cycles
 SCF Done:  E(RB3LYP) =  -645.365563745     A.U. after   16 cycles
 SCF Done:  E(RB3LYP) =  -645.366992443     A.U. after   13 cycles
 SCF Done:  E(RB3LYP) =  -645.367609434     A.U. after   13 cycles
 SCF Done:  E(RB3LYP) =  -645.368368617     A.U. after   14 cycles
 SCF Done:  E(RB3LYP) =  -645.368750104     A.U. after   13 cycles
 SCF Done:  E(RB3LYP) =  -645.369041572     A.U. after   13 cycles
 SCF Done:  E(RB3LYP) =  -645.369159108     A.U. after   12 cycles
 SCF Done:  E(RB3LYP) =  -645.369286254     A.U. after   13 cycles
 SCF Done:  E(RB3LYP) =  -645.370045236     A.U. after    9 cycles
 SCF Done:  E(RB3LYP) =  -645.370045515     A.U. after    8 cycles
 SCF Done:  E(RB3LYP) =  -645.370045778     A.U. after    8 cycles
 SCF Done:  E(RB3LYP) =  -645.370045906     A.U. after    8 cycles
 SCF Done:  E(RB3LYP) =  -645.370045934     A.U. after    7 cycles
 Optimization completed.
    -- Stationary point found.
 Normal termination of Gaussian 16 at Thu Dec 10 16:48:58 2020.

 --------------------------------------------------------------------
 #N Geom=AllCheck Guess=TCheck SCRF=Check GenChk RB3LYP/6-31G(d) Freq
 --------------------------------------------------------------------

 Structure from the checkpoint file:  "JID_5661.chk"
 -------------------------------
 CID_150734477_JID_5661_neutraal
 -------------------------------
 Charge =  0 Multiplicity = 1

 SCF Done:  E(RB3LYP) =  -645.370045934     A.U. after    1 cycles

  Exact polarizability: 191.781   0.535 165.884  -4.439   2.169  71.424
 Approx polarizability: 318.363  -6.109 251.021 -20.727  12.130 128.784

                      1                      2                      3
                      A                      A                      A
 Frequencies --     42.4032                48.1335               107.1023
 Red. masses --      5.9265                 7.7868                 1.0308
 Frc consts  --      0.0063                 0.0106                 0.0070
 IR Inten    --      0.8095                 0.5146                 0.1298

                      4                      5                      6
                      A                      A                      A
 Frequencies --    113.9359               125.5686               148.4111
 Red. masses --      2.8856                 3.2667                 1.0824
 Frc consts  --      0.0221                 0.0303                 0.0140
 IR Inten    --      0.7479                 2.3744                 0.0451

                      7                      8                      9
                      A                      A                      A
 Frequencies --    192.5699               194.8268               217.4770
 Red. masses --      4.8627                 1.1149                 3.2283
 Frc consts  --      0.1062                 0.0249                 0.0900
 IR Inten    --      1.9666                 0.8184                 0.0994

                     10                     11                     12
                      A                      A                      A
 Frequencies --    241.5145               273.7839               285.7542
 Red. masses --      3.2513                 2.7873                 4.8120
 Frc consts  --      0.1117                 0.1231                 0.2315
 IR Inten    --      1.5896                 0.0888                 1.6943

                     13                     14                     15
                      A                      A                      A
 Frequencies --    312.8066               327.5364               344.0089
 Red. masses --      5.1035                 3.5108                 4.0735
 Frc consts  --      0.2942                 0.2219                 0.2840
 IR Inten    --      3.7278                 1.7365                 1.0008

                     16                     17                     18
                      A                      A                      A
 Frequencies --    458.1697               498.2631               514.3768
 Red. masses --      5.7854                 5.6846                 3.8514
 Frc consts  --      0.7155                 0.8315                 0.6004
 IR Inten    --      0.2984                 0.2091                 0.2962

                     19                     20                     21
                      A                      A                      A
 Frequencies --    552.8053               561.3183               575.4614
 Red. masses --      4.2932                11.7455                 4.4371
 Frc consts  --      0.7730                 2.1804                 0.8657
 IR Inten    --      4.4091                 7.2413                 6.4233

                     22                     23                     24
                      A                      A                      A
 Frequencies --    602.0547               626.7141               638.5849
 Red. masses --      5.1310                 3.9157                 4.3150
 Frc consts  --      1.0958                 0.9062                 1.0367
 IR Inten    --      1.8729                 4.4738                 6.6810

                     25                     26                     27
                      A                      A                      A
 Frequencies --    741.7659               756.2541               794.7405
 Red. masses --      5.8583                 2.1091                 2.0475
 Frc consts  --      1.8991                 0.7107                 0.7619
 IR Inten    --      3.3329                19.4474                18.4127

                     28                     29                     30
                      A                      A                      A
 Frequencies --    814.3038               837.1312               889.8844
 Red. masses --      5.8458                 3.8399                 1.3479
 Frc consts  --      2.2838                 1.5855                 0.6289
 IR Inten    --      2.3048                 0.7463                 0.0765

                     31                     32                     33
                      A                      A                      A
 Frequencies --    952.1733               956.9188               994.2604
 Red. masses --      1.2576                 2.6828                 2.3500
 Frc consts  --      0.6718                 1.4474                 1.3687
 IR Inten    --      0.3391                 1.2236                 1.4420

                     34                     35                     36
                      A                      A                      A
 Frequencies --   1029.7282              1068.8589              1076.1074
 Red. masses --      1.7215                 1.4149                 1.4801
 Frc consts  --      1.0755                 0.9524                 1.0099
 IR Inten    --      7.1227                 4.2810                 2.0244

                     37                     38                     39
                      A                      A                      A
 Frequencies --   1081.1444              1084.4611              1108.5009
 Red. masses --      1.8373                 1.8755                 1.8225
 Frc consts  --      1.2653                 1.2995                 1.3195
 IR Inten    --      2.0492                 2.6434                10.0540

                     40                     41                     42
                      A                      A                      A
 Frequencies --   1144.4586              1182.2492              1200.9777
 Red. masses --      1.9880                 4.1719                 1.4547
 Frc consts  --      1.5342                 3.4356                 1.2362
 IR Inten    --      1.5292                47.8857                 4.8397

                     43                     44                     45
                      A                      A                      A
 Frequencies --   1215.5831              1280.5187              1328.5454
 Red. masses --      6.3310                 2.9019                 2.4406
 Frc consts  --      5.5118                 2.8035                 2.5380
 IR Inten    --     32.3729                23.7430                12.8990

                     46                     47                     48
                      A                      A                      A
 Frequencies --   1335.2854              1397.0073              1412.2337
 Red. masses --      5.6675                 4.6366                 2.6890
 Frc consts  --      5.9537                 5.3314                 3.1597
 IR Inten    --     25.2489                 5.1583                 0.4139

                     49                     50                     51
                      A                      A                      A
 Frequencies --   1443.0149              1447.2773              1453.3373
 Red. masses --      1.5548                 1.3876                 1.2521
 Frc consts  --      1.9075                 1.7124                 1.5582
 IR Inten    --      6.4647                 1.7356                 0.6461

                     52                     53                     54
                      A                      A                      A
 Frequencies --   1463.2325              1506.4371              1511.6177
 Red. masses --      3.0933                 1.0435                 1.0431
 Frc consts  --      3.9020                 1.3952                 1.4043
 IR Inten    --     16.0304                 4.7418                 9.3804

                     55                     56                     57
                      A                      A                      A
 Frequencies --   1517.3687              1519.6997              1525.9949
 Red. masses --      1.0474                 1.0874                 1.1004
 Frc consts  --      1.4209                 1.4796                 1.5098
 IR Inten    --     10.6222                 3.4182                 6.3787

                     58                     59                     60
                      A                      A                      A
 Frequencies --   1533.8535              1541.8068              1646.0104
 Red. masses --      1.1861                 2.4366                 7.1560
 Frc consts  --      1.6441                 3.4127                11.4232
 IR Inten    --     15.0424                 8.6222                 3.3419

                     61                     62                     63
                      A                      A                      A
 Frequencies --   1650.6570              1676.9181              2230.4821
 Red. masses --      6.1888                 6.7475                13.9810
 Frc consts  --      9.9351                11.1794                40.9813
 IR Inten    --      1.2539                 7.3348               424.4243

                     64                     65                     66
                      A                      A                      A
 Frequencies --   3036.6577              3042.9198              3045.3735
 Red. masses --      1.0388                 1.0416                 1.0403
 Frc consts  --      5.6440                 5.6824                 5.6842
 IR Inten    --     45.9996                32.5839                28.4422

                     67                     68                     69
                      A                      A                      A
 Frequencies --   3082.1470              3092.2128              3102.1224
 Red. masses --      1.1008                 1.0990                 1.0966
 Frc consts  --      6.1614                 6.1912                 6.2178
 IR Inten    --     21.8203                13.7474                17.0129

                     70                     71                     72
                      A                      A                      A
 Frequencies --   3126.1574              3130.8489              3150.9859
 Red. masses --      1.0984                 1.1017                 1.0970
 Frc consts  --      6.3246                 6.3624                 6.4173
 IR Inten    --     20.7065                17.8011                15.8114

                     73                     74                     75
                      A                      A                      A
 Frequencies --   3179.5819              3191.5704              3207.1045
 Red. masses --      1.0863                 1.0895                 1.0962
 Frc consts  --      6.4707                 6.5385                 6.6427
 IR Inten    --      5.2024                19.5844                32.7735

 - Thermochemistry -
 -------------------
 Temperature   298.150 Kelvin.  Pressure   1.00000 Atm.
 Atom     1 has atomic number  6 and mass  12.00000

 Molecular mass:   200.10620 amu.
 Principal axes and moments of inertia in atomic units:
                           1         2         3
     Eigenvalues --  2311.208432860.851335010.15295
           X            0.99996   0.00628   0.00566
           Y           -0.00627   0.99998  -0.00323
           Z           -0.00568   0.00320   0.99998
 This molecule is an asymmetric top.
 Rotational symmetry number  1.
 Warning -- assumption of classical behavior for rotation
           may cause significant error
 Rotational temperatures (Kelvin)      0.03748     0.03028     0.01729
 Rotational constants (GHZ):           0.78086     0.63084     0.36022
 Zero-point vibrational energy     566683.4 (Joules/Mol)
                                  135.44058 (Kcal/Mol)
 Warning -- explicit consideration of  22 degrees of freedom as
           vibrations may cause significant error
 Vibrational temperatures:     61.01    69.25   154.10   163.93   180.67
          (Kelvin)            213.53   277.07   280.31   312.90   347.49
                              393.91   411.14   450.06   471.25   494.95
                              659.20   716.89   740.07   795.36   807.61
                              827.96   866.22   901.70   918.78  1067.24
                             1088.08  1143.45  1171.60  1204.45  1280.35
                             1369.97  1376.79  1430.52  1481.55  1537.85
                             1548.28  1555.53  1560.30  1594.89  1646.62
                             1700.99  1727.94  1748.95  1842.38  1911.48
                             1921.18  2009.98  2031.89  2076.18  2082.31
                             2091.03  2105.27  2167.43  2174.88  2183.16
                             2186.51  2195.57  2206.87  2218.32  2368.24
                             2374.93  2412.71  3209.17  4369.07  4378.08
                             4381.61  4434.52  4449.00  4463.26  4497.84
                             4504.59  4533.57  4574.71  4591.96  4614.31

 Zero-point correction=                           0.215838 (Hartree/Particle)
 Thermal correction to Energy=                    0.229973
 Thermal correction to Enthalpy=                  0.230917
 Thermal correction to Gibbs Free Energy=         0.174744
 Sum of electronic and zero-point Energies=           -645.154208
 Sum of electronic and thermal Energies=              -645.140073
 Sum of electronic and thermal Enthalpies=            -645.139129
 Sum of electronic and thermal Free Energies=         -645.195302

                     E (Thermal)             CV                S
                      KCal/Mol        Cal/Mol-Kelvin    Cal/Mol-Kelvin
 Total                  144.310             52.699            118.227
 Electronic               0.000              0.000              0.000
 Translational            0.889              2.981             41.786
 Rotational               0.889              2.981             31.872
 Vibrational            142.533             46.738             44.569
 Vibration     1          0.595              1.980              5.144
 Vibration     2          0.595              1.978              4.893
 Vibration     3          0.606              1.944              3.321
 Vibration     4          0.607              1.938              3.201
 Vibration     5          0.611              1.927              3.013
 Vibration     6          0.618              1.904              2.692
 Vibration     7          0.635              1.850              2.203
 Vibration     8          0.635              1.847              2.181
 Vibration     9          0.646              1.814              1.980
 Vibration    10          0.658              1.777              1.792
 Vibration    11          0.676              1.722              1.572
 Vibration    12          0.684              1.700              1.499
 Vibration    13          0.701              1.649              1.347
 Vibration    14          0.711              1.620              1.272
 Vibration    15          0.723              1.587              1.193
 Vibration    16          0.816              1.343              0.771
 Vibration    17          0.854              1.254              0.662
 Vibration    18          0.869              1.218              0.623
 Vibration    19          0.908              1.134              0.538
 Vibration    20          0.917              1.115              0.521
 Vibration    21          0.932              1.084              0.494
 Vibration    22          0.960              1.027              0.446

 Optimization completed.
    -- Stationary point found.
 Normal termination of Gaussian 16 at Thu Dec 10 16:58:30 2020.

 ----------------------------------------------------------------------
 # B3LYP/6-311++G(d,p) empiricaldispersion=gd3bj scf=xqc pop=npa geom=c
 heck
 ----------------------------------------------------------------------

 ---------------------------------------
 CID_150734477_JID_5661_Energie_neutraal
 ---------------------------------------
 Structure from the checkpoint file:  "JID_5661.chk"
 Charge =  0 Multiplicity = 1

 SCF Done:  E(RB3LYP) =  -645.534172530     A.U. after   17 cycles
 Normal termination of Gaussian 16 at Thu Dec 10 17:04:14 2020.

 ----------------------------------------------------------------------
 # B3LYP/6-311++G(d,p) empiricaldispersion=gd3bj scf=xqc pop=npa geom=c
 heck
 ----------------------------------------------------------------------

 -------------------------------------
 CID_150734477_JID_5661_Energie_kation
 -------------------------------------
 Structure from the checkpoint file:  "JID_5661.chk"
 Charge =  1 Multiplicity = 2

 SCF Done:  E(UB3LYP) =  -645.265043683     A.U. after   27 cycles
 Normal termination of Gaussian 16 at Thu Dec 10 17:15:16 2020.
 Gaussian 16:  ES64L-G16RevA.03 25-Dec-2016

 ----------------------------------------------------------------------
 # B3LYP/6-311++G(d,p) empiricaldispersion=gd3bj scf=xqc pop=npa geom=c
 heck
 ----------------------------------------------------------------------

 ------------------------------------
 CID_150734477_JID_5661_Energie_anion
 ------------------------------------
 Structure from the checkpoint file:  "JID_5661.chk"
 Charge = -1 Multiplicity = 2

                         Standard orientation:
 ---------------------------------------------------------------------
 Center     Atomic      Atomic             Coordinates (Angstroms)
 Number     Number       Type             X           Y           Z
 ---------------------------------------------------------------------
      1          6           0       -0.603937    2.844798   -0.208114
      2          6           0        0.537044    1.863829   -0.097138
      3          6           0        0.357218    0.473815   -0.067319
      4          6           0        1.430377   -0.444257    0.045998
      5          6           0        2.740883    0.041228    0.157641
      6          6           0        2.943524    1.414594    0.123057
      7          6           0        1.860168    2.301456   -0.005544
      8          6           0        0.881164   -1.781765    0.027932
      9          6           0       -0.478370   -1.662543   -0.090739
     10          7           0       -0.810600   -0.295143   -0.076896
     11          7           0       -2.011959    0.146447   -0.687589
     12          7           0       -2.855129    0.526282    0.165531
     13          7           0       -3.726928    0.927312    0.775107
     14          6           0       -1.559130   -2.683814   -0.186218
     15          6           0        1.686262   -3.037611    0.152558
     16          1           0       -1.165676    2.716088   -1.139442
     17          1           0       -0.224898    3.870544   -0.182147
     18          1           0       -1.316953    2.737975    0.619437
     19          1           0        3.576402   -0.644844    0.263626
     20          1           0        3.950046    1.815686    0.200061
     21          1           0        2.051270    3.371295   -0.027992
     22          1           0       -1.130378   -3.688267   -0.195302
     23          1           0       -2.253984   -2.622453    0.661448
     24          1           0       -2.149461   -2.555631   -1.101345
     25          1           0        2.449685   -3.096742   -0.633608
     26          1           0        2.213044   -3.083789    1.114635
     27          1           0        1.062003   -3.932536    0.074875
 ---------------------------------------------------------------------

 SCF Done:  E(UB3LYP) =  -645.539296263     A.U. after   33 cycles
 SCF Done:  E(UB3LYP) =  -645.539296263     a.u. after    1 cycles

 The electronic state is 2-A.
 Alpha  occ. eigenvalues --  -14.27170 -14.24521 -14.21931 -14.19346 -10.08787
 Alpha  occ. eigenvalues --  -10.08258 -10.07102 -10.06188 -10.05972 -10.05882
 Alpha  occ. eigenvalues --  -10.05836 -10.05688 -10.05440 -10.05415 -10.04917
 Alpha  occ. eigenvalues --   -0.96917  -0.88017  -0.78758  -0.72999  -0.68415
 Alpha  occ. eigenvalues --   -0.64963  -0.64175  -0.59855  -0.57420  -0.56234
 Alpha  occ. eigenvalues --   -0.49860  -0.46922  -0.44999  -0.42225  -0.37863
 Alpha  occ. eigenvalues --   -0.36537  -0.35394  -0.34355  -0.32805  -0.32138
 Alpha  occ. eigenvalues --   -0.30938  -0.30701  -0.30536  -0.30072  -0.28934
 Alpha  occ. eigenvalues --   -0.28745  -0.28407  -0.26887  -0.26283  -0.26039
 Alpha  occ. eigenvalues --   -0.23847  -0.23042  -0.21771  -0.18425  -0.14970
 Alpha  occ. eigenvalues --   -0.10936  -0.10295  -0.08245   0.05108
 Alpha virt. eigenvalues --    0.06841   0.07692   0.08746   0.09233   0.09481
 Alpha virt. eigenvalues --    0.10406   0.10972   0.11677   0.11864   0.12496
 Alpha virt. eigenvalues --    0.12917   0.13536   0.13744   0.14491   0.15079

  Beta  occ. eigenvalues --  -14.26571 -14.24331 -14.21984 -14.18532 -10.08785
  Beta  occ. eigenvalues --  -10.08256 -10.07103 -10.06169 -10.05970 -10.05854
  Beta  occ. eigenvalues --  -10.05836 -10.05686 -10.05436 -10.05407 -10.04914
  Beta  occ. eigenvalues --   -0.95858  -0.87584  -0.78377  -0.72935  -0.68287
  Beta  occ. eigenvalues --   -0.64932  -0.64116  -0.59719  -0.57337  -0.56159
  Beta  occ. eigenvalues --   -0.49667  -0.46875  -0.44781  -0.42146  -0.37817
  Beta  occ. eigenvalues --   -0.35870  -0.35031  -0.33763  -0.32282  -0.31446
  Beta  occ. eigenvalues --   -0.30868  -0.30565  -0.30477  -0.29830  -0.28814
  Beta  occ. eigenvalues --   -0.28480  -0.27187  -0.26812  -0.26109  -0.25706
  Beta  occ. eigenvalues --   -0.23816  -0.22773  -0.21223  -0.17393  -0.14821
  Beta  occ. eigenvalues --   -0.10787  -0.10176  -0.08123
  Beta virt. eigenvalues --    0.07057   0.07790   0.08714   0.09212   0.09549
  Beta virt. eigenvalues --    0.10474   0.10906   0.11696   0.11981   0.12325
  Beta virt. eigenvalues --    0.12731   0.13445   0.13827   0.14260   0.14516

 Mulliken charges and spin densities:
               1          2
     1  C   -0.045968  -0.605302
     2  C    0.104570   0.112081
     3  C   -0.942974   0.578435
     4  C    0.722603   0.089988
     5  C   -0.200955  -0.184625
     6  C   -0.623102  -0.045531
     7  C   -0.077817  -0.135003
     8  C   -0.407271   0.680158
     9  C   -1.305653   1.349940
    10  N    0.452754  -0.083380
    11  N   -0.720308   0.069128
    12  N    0.354336   0.213006
    13  N   -0.280559   0.516959
    14  C    1.062038  -1.632855
    15  C    0.745074  -1.466628
    16  H    0.066688   0.119094
    17  H    0.079518   0.042306
    18  H    0.178397   0.003737
    19  H    0.092827   0.045203
    20  H    0.092772   0.031394
    21  H    0.059265   0.034170
    22  H   -0.182825   0.313813
    23  H    0.054582   0.112753
    24  H   -0.118733   0.295375
    25  H    0.018291   0.112278
    26  H    0.005483   0.127426
    27  H   -0.183034   0.306078
 Sum of Mulliken charges =  -1.00000   1.00000

 Dipole moment (field-independent basis, Debye):
    X=              5.6966    Y=              1.3457    Z=              0.2287  Tot=              5.8578
 Quadrupole moment (field-independent basis, Debye-Ang):
   XX=           -137.0782   YY=           -121.3416   ZZ=           -106.3434
   XY=              6.2646   XZ=              2.1632   YZ=             -1.9428

 Summary of Natural Population Analysis:

                                       Natural Population
                Natural  -----------------------------------------------
    Atom  No    Charge         Core      Valence    Rydberg      Total
 -----------------------------------------------------------------------
      C    1   -0.29409      0.99964     2.28929    0.00516     3.29409
      C    2   -0.02469      0.99948     2.01753    0.00768     3.02469
      C    3    0.08833      0.99940     1.90084    0.01142     2.91167
      C    4   -0.03819      0.99947     2.02892    0.00980     3.03819
      C    5   -0.10545      0.99953     2.09805    0.00786     3.10545
      C    6   -0.12072      0.99958     2.11029    0.01084     3.12072
      C    7   -0.11580      0.99954     2.10644    0.00982     3.11580
      C    8   -0.06346      0.99942     2.05403    0.01001     3.06346
      C    9    0.10388      0.99944     1.88434    0.01234     2.89612
      N   10   -0.11508      0.99954     2.60420    0.01134     3.61508
      N   11   -0.16376      0.99972     2.64804    0.01599     3.66376
      N   12    0.15694      0.99970     2.32848    0.01488     3.34306
      N   13    0.06357      0.99981     2.42296    0.01366     3.43643
      C   14   -0.30217      0.99963     2.29776    0.00479     3.30217
      C   15   -0.29004      0.99964     2.28521    0.00519     3.29004
      H   16    0.11173      0.00000     0.38686    0.00142     0.38827
      H   17    0.09355      0.00000     0.40551    0.00095     0.40645
      H   18    0.10900      0.00000     0.38974    0.00126     0.39100
      H   19    0.09639      0.00000     0.40232    0.00129     0.40361
      H   20    0.09386      0.00000     0.40531    0.00082     0.40614
      H   21    0.09330      0.00000     0.40570    0.00100     0.40670
      H   22    0.10332      0.00000     0.39557    0.00111     0.39668
      H   23    0.10699      0.00000     0.39162    0.00139     0.39301
      H   24    0.11322      0.00000     0.38506    0.00172     0.38678
      H   25    0.09839      0.00000     0.40050    0.00111     0.40161
      H   26    0.09795      0.00000     0.40095    0.00110     0.40205
      H   27    0.10301      0.00000     0.39610    0.00089     0.39699
 =======================================================================
   * Total *   -0.00000     14.99355    37.84162    0.16484    53.00000

 Normal termination of Gaussian 16 at Thu Dec 10 17:28:29 2020.
