 Gaussian 16, Revision A.03,

 -----------------------------------------------------------
 # opt freq B3LYP/6-31G(d) empiricaldispersion=gd3bj scf=xqc
 -----------------------------------------------------------

 ------------------------------
 CID_61336566_JID_6487_neutraal
 ------------------------------
 Symbolic Z-matrix:
 Charge =  0 Multiplicity = 1

 SCF Done:  E(RB3LYP) =  -673.580125735     A.U. after   14 cycles
 SCF Done:  E(RB3LYP) =  -673.582573006     A.U. after   11 cycles
 SCF Done:  E(RB3LYP) =  -673.582960003     A.U. after   11 cycles
 SCF Done:  E(RB3LYP) =  -673.583054781     A.U. after   10 cycles
 SCF Done:  E(RB3LYP) =  -673.583099174     A.U. after   10 cycles
 SCF Done:  E(RB3LYP) =  -673.583130956     A.U. after   10 cycles
 SCF Done:  E(RB3LYP) =  -673.583161681     A.U. after   10 cycles
 SCF Done:  E(RB3LYP) =  -673.583175137     A.U. after   10 cycles
 SCF Done:  E(RB3LYP) =  -673.583198235     A.U. after   10 cycles
 SCF Done:  E(RB3LYP) =  -673.583215977     A.U. after   11 cycles
 SCF Done:  E(RB3LYP) =  -673.583226570     A.U. after    9 cycles
 SCF Done:  E(RB3LYP) =  -673.583226866     A.U. after    9 cycles
 SCF Done:  E(RB3LYP) =  -673.583226919     A.U. after    9 cycles
 SCF Done:  E(RB3LYP) =  -673.583226960     A.U. after    7 cycles
 SCF Done:  E(RB3LYP) =  -673.583226962     A.U. after    8 cycles
 SCF Done:  E(RB3LYP) =  -673.583226990     A.U. after    7 cycles
 Optimization completed.
    -- Stationary point found.
 Normal termination of Gaussian 16 at Thu Dec 10 23:23:05 2020.

 --------------------------------------------------------------------
 #N Geom=AllCheck Guess=TCheck SCRF=Check GenChk RB3LYP/6-31G(d) Freq
 --------------------------------------------------------------------

 Structure from the checkpoint file:  "JID_6487.chk"
 ------------------------------
 CID_61336566_JID_6487_neutraal
 ------------------------------
 Charge =  0 Multiplicity = 1

 SCF Done:  E(RB3LYP) =  -673.583226990     A.U. after    1 cycles

  Exact polarizability: 181.084  -0.226 140.840   3.199   5.268 126.034
 Approx polarizability: 229.688  -0.703 214.235   3.591  20.190 188.640

                      1                      2                      3
                      A                      A                      A
 Frequencies --      6.9270                31.4345                62.2112
 Red. masses --      3.2031                 4.5150                 3.7378
 Frc consts  --      0.0001                 0.0026                 0.0085
 IR Inten    --      0.0105                 0.2410                 1.1425

                      4                      5                      6
                      A                      A                      A
 Frequencies --     72.5863                85.8891               107.9845
 Red. masses --      3.2482                 2.5407                 2.5158
 Frc consts  --      0.0101                 0.0110                 0.0173
 IR Inten    --      0.3446                 0.0473                 0.0293

                      7                      8                      9
                      A                      A                      A
 Frequencies --    134.1021               164.1116               209.1351
 Red. masses --      2.9142                 1.6850                 2.6999
 Frc consts  --      0.0309                 0.0267                 0.0696
 IR Inten    --      1.2437                 1.0044                 0.1146

                     10                     11                     12
                      A                      A                      A
 Frequencies --    230.4653               236.8944               271.6736
 Red. masses --      1.2314                 1.8428                 2.1128
 Frc consts  --      0.0385                 0.0609                 0.0919
 IR Inten    --      1.1172                 1.3402                 0.3727

                     13                     14                     15
                      A                      A                      A
 Frequencies --    281.4796               300.5224               329.2904
 Red. masses --      2.3431                 2.8352                 2.3801
 Frc consts  --      0.1094                 0.1509                 0.1521
 IR Inten    --      2.2623                 0.3502                 2.4280

                     16                     17                     18
                      A                      A                      A
 Frequencies --    340.1774               379.0795               398.1899
 Red. masses --      2.4988                 2.0108                 3.4806
 Frc consts  --      0.1704                 0.1703                 0.3251
 IR Inten    --      2.8505                 0.5075                 0.6464

                     19                     20                     21
                      A                      A                      A
 Frequencies --    456.2294               464.2999               490.3044
 Red. masses --      3.6187                 3.6241                 2.1052
 Frc consts  --      0.4438                 0.4603                 0.2982
 IR Inten    --      6.5070                 7.0194                 0.7464

                     22                     23                     24
                      A                      A                      A
 Frequencies --    528.1224               553.5550               582.7420
 Red. masses --      1.6797                 1.7780                 2.4521
 Frc consts  --      0.2760                 0.3210                 0.4906
 IR Inten    --     35.5805                26.1717                 2.8928

                     25                     26                     27
                      A                      A                      A
 Frequencies --    694.3828               742.1514               755.1895
 Red. masses --      2.8292                 2.8651                 2.5642
 Frc consts  --      0.8037                 0.9298                 0.8616
 IR Inten    --      2.5580                12.5804                 6.6994

                     28                     29                     30
                      A                      A                      A
 Frequencies --    775.5720               794.2599               801.9882
 Red. masses --      2.9784                 1.4306                 1.4945
 Frc consts  --      1.0555                 0.5317                 0.5663
 IR Inten    --      2.0965                 1.4867                 0.3393

                     31                     32                     33
                      A                      A                      A
 Frequencies --    821.6530               839.8942               871.1442
 Red. masses --      3.1434                 1.9902                 2.0073
 Frc consts  --      1.2504                 0.8272                 0.8975
 IR Inten    --      0.7379                 2.6002                 5.1407

                     34                     35                     36
                      A                      A                      A
 Frequencies --    876.9324               886.3089               898.0295
 Red. masses --      2.4998                 1.7003                 2.1421
 Frc consts  --      1.1326                 0.7869                 1.0178
 IR Inten    --      0.5224                 4.9568                 5.2711

                     37                     38                     39
                      A                      A                      A
 Frequencies --    933.2084               961.3864              1019.2982
 Red. masses --      1.8263                 1.3788                 2.9811
 Frc consts  --      0.9371                 0.7508                 1.8249
 IR Inten    --     10.3683                 2.9541                 1.1671

                     40                     41                     42
                      A                      A                      A
 Frequencies --   1031.9184              1039.5210              1044.1619
 Red. masses --      1.8571                 1.9163                 2.4789
 Frc consts  --      1.1651                 1.2200                 1.5923
 IR Inten    --      2.0264                 2.6067                10.5070

                     43                     44                     45
                      A                      A                      A
 Frequencies --   1047.8987              1053.3849              1066.5143
 Red. masses --      1.9465                 1.6413                 2.3114
 Frc consts  --      1.2594                 1.0730                 1.5490
 IR Inten    --      2.2917                 0.0408                 0.6538

                     46                     47                     48
                      A                      A                      A
 Frequencies --   1071.2470              1104.2211              1120.4677
 Red. masses --      3.2270                 2.0850                 1.7799
 Frc consts  --      2.1818                 1.4979                 1.3166
 IR Inten    --     11.4022                 0.0211                 0.7872

                     49                     50                     51
                      A                      A                      A
 Frequencies --   1142.7859              1143.0643              1154.6379
 Red. masses --      2.2154                 1.0619                 1.8960
 Frc consts  --      1.7047                 0.8175                 1.4893
 IR Inten    --      6.2404                 0.1044                 4.4952

                     52                     53                     54
                      A                      A                      A
 Frequencies --   1174.0933              1176.7874              1187.9298
 Red. masses --      2.9934                 1.4972                 2.0912
 Frc consts  --      2.4312                 1.2216                 1.7387
 IR Inten    --      9.5521                 1.1146                16.5902

                     55                     56                     57
                      A                      A                      A
 Frequencies --   1232.1943              1273.5447              1288.1133
 Red. masses --      2.1676                 1.4369                 1.3272
 Frc consts  --      1.9391                 1.3732                 1.2974
 IR Inten    --     15.9609                 7.0209                 6.9835

                     58                     59                     60
                      A                      A                      A
 Frequencies --   1299.6934              1301.7597              1315.2446
 Red. masses --      1.3818                 1.2996                 1.3043
 Frc consts  --      1.3753                 1.2975                 1.3293
 IR Inten    --     16.4035                 0.4125                24.5413

                     61                     62                     63
                      A                      A                      A
 Frequencies --   1319.1335              1336.9989              1356.0645
 Red. masses --      1.3055                 1.3895                 1.3479
 Frc consts  --      1.3384                 1.4634                 1.4604
 IR Inten    --     12.0663                 1.9779                 3.7617

                     64                     65                     66
                      A                      A                      A
 Frequencies --   1369.4676              1370.6157              1392.0633
 Red. masses --      1.3104                 1.6457                 1.5611
 Frc consts  --      1.4479                 1.8215                 1.7824
 IR Inten    --      0.2373                17.0841                 3.8484

                     67                     68                     69
                      A                      A                      A
 Frequencies --   1402.9783              1405.2032              1407.3643
 Red. masses --      1.4543                 1.4594                 1.4616
 Frc consts  --      1.6866                 1.6978                 1.7057
 IR Inten    --     12.6455                 0.8224                 1.6834

                     70                     71                     72
                      A                      A                      A
 Frequencies --   1409.5039              1424.8133              1429.1790
 Red. masses --      1.3598                 1.8065                 1.7097
 Frc consts  --      1.5917                 2.1608                 2.0575
 IR Inten    --      0.4097                 2.5949                15.7377

                     73                     74                     75
                      A                      A                      A
 Frequencies --   1441.4753              1443.7989              1479.3990
 Red. masses --      1.2536                 1.2736                 3.0909
 Frc consts  --      1.5347                 1.5642                 3.9857
 IR Inten    --      0.6399                 7.0430                13.9070

                     76                     77                     78
                      A                      A                      A
 Frequencies --   1508.6587              1513.7964              1514.9197
 Red. masses --      1.0830                 1.1191                 1.0638
 Frc consts  --      1.4523                 1.5110                 1.4385
 IR Inten    --      0.1019                 3.0031                 0.4670

                     79                     80                     81
                      A                      A                      A
 Frequencies --   1517.4708              1520.0416              1522.8840
 Red. masses --      1.0947                 1.1572                 1.0831
 Frc consts  --      1.4852                 1.5753                 1.4799
 IR Inten    --      6.4863                 0.6591                12.3438

                     82                     83                     84
                      A                      A                      A
 Frequencies --   1529.8204              1532.2988              1534.4553
 Red. masses --      1.2770                 1.0977                 1.5237
 Frc consts  --      1.7609                 1.5185                 2.1137
 IR Inten    --      2.6850                 6.9908                 9.9178

                     85                     86                     87
                      A                      A                      A
 Frequencies --   1535.5863              1537.4352              1546.2262
 Red. masses --      1.1230                 1.3376                 1.0908
 Frc consts  --      1.5602                 1.8628                 1.5366
 IR Inten    --      2.9431                15.1309                 5.0753

                     88                     89                     90
                      A                      A                      A
 Frequencies --   1589.6047              3013.1582              3013.9366
 Red. masses --      4.3143                 1.0819                 1.0684
 Frc consts  --      6.4229                 5.7876                 5.7179
 IR Inten    --     51.4860                15.7099                29.9931

                     91                     92                     93
                      A                      A                      A
 Frequencies --   3018.0089              3028.0585              3038.2791
 Red. masses --      1.0773                 1.0642                 1.0705
 Frc consts  --      5.7813                 5.7492                 5.8224
 IR Inten    --     19.2477                12.3654                91.4300

                     94                     95                     96
                      A                      A                      A
 Frequencies --   3043.9458              3050.5102              3051.1992
 Red. masses --      1.0376                 1.0371                 1.0655
 Frc consts  --      5.6646                 5.6858                 5.8443
 IR Inten    --     22.1418                14.9945                33.6195

                     97                     98                     99
                      A                      A                      A
 Frequencies --   3051.8101              3060.5928              3063.0220
 Red. masses --      1.0661                 1.0624                 1.0616
 Frc consts  --      5.8502                 5.8636                 5.8682
 IR Inten    --     50.1891                48.0419                 6.0859

                    100                    101                    102
                      A                      A                      A
 Frequencies --   3073.9193              3076.4401              3079.0827
 Red. masses --      1.0938                 1.0986                 1.0987
 Frc consts  --      6.0892                 6.1263                 6.1373
 IR Inten    --     60.9716                49.4882                21.7514

                    103                    104                    105
                      A                      A                      A
 Frequencies --   3088.9799              3094.4366              3103.0112
 Red. masses --      1.1007                 1.1013                 1.1008
 Frc consts  --      6.1879                 6.2131                 6.2448
 IR Inten    --      3.2511                12.2381                16.3800

                    106                    107                    108
                      A                      A                      A
 Frequencies --   3110.6275              3110.9628              3116.5457
 Red. masses --      1.0992                 1.1012                 1.1013
 Frc consts  --      6.2663                 6.2793                 6.3022
 IR Inten    --     48.4031                36.8872                59.6026

                    109                    110                    111
                      A                      A                      A
 Frequencies --   3117.3321              3122.4931              3652.8381
 Red. masses --      1.1023                 1.1027                 1.0815
 Frc consts  --      6.3113                 6.3344                 8.5022
 IR Inten    --     47.5347                49.6353                54.9221

 - Thermochemistry -
 -------------------
 Temperature   298.150 Kelvin.  Pressure   1.00000 Atm.
 Atom     1 has atomic number  6 and mass  12.00000

 Molecular mass:   221.18920 amu.
 Principal axes and moments of inertia in atomic units:
                           1         2         3
     Eigenvalues --  1789.302996414.421986897.39833
           X            0.99999   0.00509   0.00053
           Y           -0.00507   0.99957  -0.02900
           Z           -0.00067   0.02899   0.99958
 This molecule is an asymmetric top.
 Rotational symmetry number  1.
 Warning -- assumption of classical behavior for rotation
           may cause significant error
 Rotational temperatures (Kelvin)      0.04841     0.01350     0.01256
 Rotational constants (GHZ):           1.00863     0.28136     0.26166
 Zero-point vibrational energy     931462.9 (Joules/Mol)
                                  222.62498 (Kcal/Mol)
 Warning -- explicit consideration of  24 degrees of freedom as
           vibrations may cause significant error
 Vibrational temperatures:      9.97    45.23    89.51   104.44   123.58
          (Kelvin)            155.37   192.94   236.12   300.90   331.59
                              340.84   390.88   404.99   432.38   473.78
                              489.44   545.41   572.91   656.41   668.02
                              705.44   759.85   796.44   838.44   999.06
                             1067.79  1086.55  1115.88  1142.76  1153.88
                             1182.18  1208.42  1253.38  1261.71  1275.20
                             1292.06  1342.68  1383.22  1466.54  1484.70
                             1495.64  1502.32  1507.69  1515.59  1534.48
                             1541.29  1588.73  1612.10  1644.21  1644.61
                             1661.27  1689.26  1693.13  1709.17  1772.85
                             1832.35  1853.31  1869.97  1872.94  1892.34
                             1897.94  1923.64  1951.07  1970.36  1972.01
                             2002.87  2018.57  2021.77  2024.88  2027.96
                             2049.99  2056.27  2073.96  2077.30  2128.53
                             2170.62  2178.02  2179.63  2183.30  2187.00
                             2191.09  2201.07  2204.64  2207.74  2209.37
                             2212.03  2224.67  2287.09  4335.26  4336.38
                             4342.24  4356.70  4371.41  4379.56  4389.00
                             4390.00  4390.87  4403.51  4407.01  4422.68
                             4426.31  4430.11  4444.35  4452.20  4464.54
                             4475.50  4475.98  4484.01  4485.15  4492.57
                             5255.62

 Zero-point correction=                           0.354775 (Hartree/Particle)
 Thermal correction to Energy=                    0.371029
 Thermal correction to Enthalpy=                  0.371974
 Thermal correction to Gibbs Free Energy=         0.308746
 Sum of electronic and zero-point Energies=           -673.228452
 Sum of electronic and thermal Energies=              -673.212198
 Sum of electronic and thermal Enthalpies=            -673.211253
 Sum of electronic and thermal Free Energies=         -673.274481

                     E (Thermal)             CV                S
                      KCal/Mol        Cal/Mol-Kelvin    Cal/Mol-Kelvin
 Total                  232.824             62.097            133.073
 Electronic               0.000              0.000              0.000
 Translational            0.889              2.981             42.084
 Rotational               0.889              2.981             32.737
 Vibrational            231.047             56.135             58.252
 Vibration     1          0.593              1.987              8.741
 Vibration     2          0.594              1.983              5.737
 Vibration     3          0.597              1.972              4.386
 Vibration     4          0.599              1.967              4.082
 Vibration     5          0.601              1.959              3.752
 Vibration     6          0.606              1.943              3.305
 Vibration     7          0.613              1.919              2.886
 Vibration     8          0.623              1.887              2.502
 Vibration     9          0.642              1.827              2.051
 Vibration    10          0.652              1.794              1.875
 Vibration    11          0.656              1.784              1.826
 Vibration    12          0.675              1.725              1.586
 Vibration    13          0.681              1.708              1.525
 Vibration    14          0.693              1.673              1.414
 Vibration    15          0.712              1.617              1.264
 Vibration    16          0.720              1.595              1.211
 Vibration    17          0.749              1.515              1.043
 Vibration    18          0.764              1.474              0.969
 Vibration    19          0.814              1.347              0.777
 Vibration    20          0.822              1.329              0.754
 Vibration    21          0.846              1.272              0.683
 Vibration    22          0.883              1.188              0.591
 Vibration    23          0.909              1.132              0.537
 Vibration    24          0.940              1.069              0.480

 Optimization completed.
    -- Stationary point found.
 Normal termination of Gaussian 16 at Thu Dec 10 23:37:04 2020.

 ----------------------------------------------------------------------
 # B3LYP/6-311++G(d,p) empiricaldispersion=gd3bj scf=xqc pop=npa geom=c
 heck
 ----------------------------------------------------------------------

 --------------------------------------
 CID_61336566_JID_6487_Energie_neutraal
 --------------------------------------
 Structure from the checkpoint file:  "JID_6487.chk"
 Charge =  0 Multiplicity = 1

 SCF Done:  E(RB3LYP) =  -673.763373677     A.U. after   14 cycles
 Normal termination of Gaussian 16 at Thu Dec 10 23:44:15 2020.

 ----------------------------------------------------------------------
 # B3LYP/6-311++G(d,p) empiricaldispersion=gd3bj scf=xqc pop=npa geom=c
 heck
 ----------------------------------------------------------------------

 ------------------------------------
 CID_61336566_JID_6487_Energie_kation
 ------------------------------------
 Structure from the checkpoint file:  "JID_6487.chk"
 Charge =  1 Multiplicity = 2

 SCF Done:  E(UB3LYP) =  -673.440050322     A.U. after   26 cycles
 Normal termination of Gaussian 16 at Fri Dec 11 00:03:16 2020.
 Gaussian 16:  ES64L-G16RevA.03 25-Dec-2016

 ----------------------------------------------------------------------
 # B3LYP/6-311++G(d,p) empiricaldispersion=gd3bj scf=xqc pop=npa geom=c
 heck
 ----------------------------------------------------------------------

 -----------------------------------
 CID_61336566_JID_6487_Energie_anion
 -----------------------------------
 Structure from the checkpoint file:  "JID_6487.chk"
 Charge = -1 Multiplicity = 2

                         Standard orientation:
 ---------------------------------------------------------------------
 Center     Atomic      Atomic             Coordinates (Angstroms)
 Number     Number       Type             X           Y           Z
 ---------------------------------------------------------------------
      1          6           0        4.898837    0.079914    0.939341
      2          6           0        3.652643   -0.612476    0.383452
      3          6           0        2.354867    0.179485    0.616196
      4          6           0        2.364553    1.606358    0.015679
      5          6           0        2.580840    1.646308   -1.498721
      6          6           0        1.150317   -0.569729    0.118529
      7          7           0        1.214458   -1.715874   -0.548441
      8          7           0       -0.099527   -1.977210   -0.794148
      9          6           0       -0.896542   -1.005888   -0.285753
     10          7           0       -0.126305   -0.097427    0.299970
     11          6           0       -2.389985   -1.017759   -0.422823
     12          6           0       -3.107986   -0.964254    0.946816
     13          6           0       -3.020695    0.416896    1.609408
     14          6           0       -3.541228    1.516570    0.673974
     15          6           0       -2.796142    1.501988   -0.667602
     16          6           0       -2.892725    0.126150   -1.338240
     17          1           0        5.115082    1.016879    0.414458
     18          1           0        5.779063   -0.564317    0.837486
     19          1           0        4.780929    0.316747    2.004245
     20          1           0        3.776811   -0.806319   -0.687791
     21          1           0        3.541021   -1.598757    0.848311
     22          1           0        2.222744    0.300191    1.701936
     23          1           0        1.404602    2.074196    0.259670
     24          1           0        3.138965    2.197621    0.518424
     25          1           0        1.829888    1.041492   -2.019469
     26          1           0        2.505089    2.672455   -1.874889
     27          1           0        3.567859    1.262676   -1.779685
     28          1           0       -0.358482   -2.813749   -1.296683
     29          1           0       -2.650323   -1.971412   -0.903227
     30          1           0       -4.163487   -1.217988    0.774426
     31          1           0       -2.698511   -1.736174    1.609277
     32          1           0       -1.976760    0.624792    1.866566
     33          1           0       -3.595041    0.408167    2.544192
     34          1           0       -3.438081    2.498202    1.152180
     35          1           0       -4.616644    1.364913    0.494298
     36          1           0       -1.741600    1.746657   -0.498815
     37          1           0       -3.205760    2.265162   -1.340951
     38          1           0       -2.335355    0.115832   -2.282765
     39          1           0       -3.942917   -0.085074   -1.584398
 ---------------------------------------------------------------------

 SCF Done:  E(UB3LYP) =  -673.752813287     A.U. after   30 cycles

 The electronic state is 2-A.
 Alpha  occ. eigenvalues --  -14.28434 -14.23220 -14.19651 -10.13967 -10.11919
 Alpha  occ. eigenvalues --  -10.08733 -10.08635 -10.07552 -10.07468 -10.07376
 Alpha  occ. eigenvalues --  -10.06733 -10.06697 -10.06683 -10.06380 -10.05976
 Alpha  occ. eigenvalues --  -10.05943  -0.96955  -0.79173  -0.75829  -0.72769
 Alpha  occ. eigenvalues --   -0.70485  -0.65949  -0.64828  -0.64175  -0.60592
 Alpha  occ. eigenvalues --   -0.54825  -0.52944  -0.51452  -0.50924  -0.49692
 Alpha  occ. eigenvalues --   -0.46933  -0.44611  -0.41389  -0.38722  -0.38186
 Alpha  occ. eigenvalues --   -0.37803  -0.36142  -0.34466  -0.34398  -0.33455
 Alpha  occ. eigenvalues --   -0.32603  -0.32131  -0.31605  -0.28657  -0.28281
 Alpha  occ. eigenvalues --   -0.28128  -0.28014  -0.27604  -0.26944  -0.25916
 Alpha  occ. eigenvalues --   -0.24403  -0.24239  -0.23706  -0.23344  -0.23059
 Alpha  occ. eigenvalues --   -0.21423  -0.20740  -0.20231  -0.18807  -0.17327
 Alpha  occ. eigenvalues --   -0.15460   0.04203
 Alpha virt. eigenvalues --    0.05747   0.06887   0.07297   0.07898   0.08382
 Alpha virt. eigenvalues --    0.08415   0.09168   0.10015   0.10135   0.10520
 Alpha virt. eigenvalues --    0.10659   0.10861   0.11013   0.11701   0.12228

  Beta  occ. eigenvalues --  -14.28383 -14.23217 -14.19644 -10.13970 -10.11919
  Beta  occ. eigenvalues --  -10.08731 -10.08609 -10.07539 -10.07463 -10.07372
  Beta  occ. eigenvalues --  -10.06714 -10.06685 -10.06661 -10.06369 -10.05970
  Beta  occ. eigenvalues --  -10.05938  -0.96925  -0.79134  -0.75799  -0.72744
  Beta  occ. eigenvalues --   -0.70457  -0.65933  -0.64788  -0.64142  -0.60566
  Beta  occ. eigenvalues --   -0.54775  -0.52906  -0.51412  -0.50883  -0.49640
  Beta  occ. eigenvalues --   -0.46892  -0.44580  -0.41335  -0.38701  -0.38130
  Beta  occ. eigenvalues --   -0.37782  -0.36117  -0.34446  -0.34362  -0.33433
  Beta  occ. eigenvalues --   -0.32581  -0.32118  -0.31585  -0.28623  -0.28249
  Beta  occ. eigenvalues --   -0.28102  -0.27984  -0.27582  -0.26925  -0.25894
  Beta  occ. eigenvalues --   -0.24377  -0.24221  -0.23690  -0.23329  -0.23047
  Beta  occ. eigenvalues --   -0.21395  -0.20712  -0.20192  -0.18786  -0.17318
  Beta  occ. eigenvalues --   -0.15444
  Beta virt. eigenvalues --    0.05816   0.06706   0.07456   0.07778   0.08270
  Beta virt. eigenvalues --    0.08615   0.08717   0.09683   0.10182   0.10245
  Beta virt. eigenvalues --    0.10776   0.10853   0.10933   0.11311   0.11822

 Mulliken charges and spin densities:
               1          2
     1  C   -0.035853  -0.607495
     2  C   -0.585363   0.017761
     3  C    0.232262   0.556804
     4  C   -0.551658   0.171252
     5  C   -0.272387  -0.353746
     6  C   -0.649376  -0.226320
     7  N    0.076819  -0.132588
     8  N   -0.247839   0.208604
     9  C    2.556977  -2.363032
    10  N    0.050598  -0.023482
    11  C   -0.821397   1.132295
    12  C    0.513592  -1.026999
    13  C   -0.355057   0.105848
    14  C    0.170840  -0.747237
    15  C   -0.344195   0.194018
    16  C    0.402518  -0.929298
    17  H    0.039000   0.097727
    18  H    0.014299   0.113847
    19  H    0.020053   0.115055
    20  H    0.129209   0.054322
    21  H    0.095283   0.078463
    22  H    0.141780   0.058361
    23  H    0.168919  -0.002767
    24  H    0.007026   0.144731
    25  H    0.087051   0.098711
    26  H   -0.035370   0.169036
    27  H    0.077524   0.056148
    28  H   -0.295002   0.644659
    29  H   -1.036064   1.297410
    30  H   -0.257815   0.428250
    31  H   -0.099650   0.257785
    32  H    0.076531   0.086601
    33  H    0.029612   0.125723
    34  H    0.027866   0.122914
    35  H   -0.061272   0.178663
    36  H    0.169336  -0.034120
    37  H   -0.034517   0.196416
    38  H   -0.149613   0.306538
    39  H   -0.254670   0.429140
 Sum of Mulliken charges =  -1.00000   1.00000

 Dipole moment (field-independent basis, Debye):
    X=              4.8769    Y=              4.8429    Z=              3.0635  Tot=              7.5249
 Quadrupole moment (field-independent basis, Debye-Ang):
   XX=           -178.5401   YY=           -150.9928   ZZ=           -136.3549
   XY=            -10.3112   XZ=             -5.8434   YZ=             -7.5435

 Summary of Natural Population Analysis:

                                       Natural Population
                Natural  -----------------------------------------------
    Atom  No    Charge         Core      Valence    Rydberg      Total
 -----------------------------------------------------------------------
      C    1   -0.28542      0.99967     2.28164    0.00412     3.28542
      C    2   -0.19105      0.99963     2.18363    0.00780     3.19105
      C    3   -0.12521      0.99955     2.11560    0.01006     3.12521
      C    4   -0.18684      0.99963     2.18002    0.00720     3.18684
      C    5   -0.28950      0.99966     2.28531    0.00453     3.28950
      C    6    0.17817      0.99962     1.80074    0.02147     2.82183
      N    7   -0.17006      0.99969     2.65901    0.01136     3.67006
      N    8   -0.17467      0.99964     2.66237    0.01266     3.67467
      C    9    0.20693      0.99959     1.77523    0.01825     2.79307
      N   10   -0.28123      0.99967     2.77363    0.00793     3.78123
      C   11   -0.13392      0.99955     2.11956    0.01480     3.13392
      C   12   -0.18096      0.99962     2.17190    0.00945     3.18096
      C   13   -0.19619      0.99962     2.18833    0.00824     3.19619
      C   14   -0.18787      0.99963     2.18086    0.00738     3.18787
      C   15   -0.19575      0.99962     2.18777    0.00836     3.19575
      C   16   -0.18074      0.99961     2.17160    0.00952     3.18074
      H   17    0.09525      0.00000     0.40358    0.00117     0.40475
      H   18    0.09738      0.00000     0.40169    0.00094     0.40262
      H   19    0.09398      0.00000     0.40489    0.00113     0.40602
      H   20    0.10133      0.00000     0.39727    0.00140     0.39867
      H   21    0.10267      0.00000     0.39607    0.00126     0.39733
      H   22    0.10337      0.00000     0.39501    0.00161     0.39663
      H   23    0.10562      0.00000     0.39300    0.00138     0.39438
      H   24    0.09300      0.00000     0.40593    0.00106     0.40700
      H   25    0.10272      0.00000     0.39622    0.00106     0.39728
      H   26    0.09726      0.00000     0.40181    0.00093     0.40274
      H   27    0.09410      0.00000     0.40481    0.00109     0.40590
      H   28    0.20961      0.00000     0.28195    0.00844     0.29039
      H   29    0.11353      0.00000     0.37862    0.00785     0.38647
      H   30    0.09765      0.00000     0.40090    0.00145     0.40235
      H   31    0.10087      0.00000     0.39804    0.00110     0.39913
      H   32    0.10641      0.00000     0.39188    0.00170     0.39359
      H   33    0.09451      0.00000     0.40467    0.00081     0.40549
      H   34    0.09537      0.00000     0.40379    0.00084     0.40463
      H   35    0.09046      0.00000     0.40832    0.00122     0.40954
      H   36    0.10436      0.00000     0.39389    0.00176     0.39564
      H   37    0.09547      0.00000     0.40368    0.00085     0.40453
      H   38    0.10154      0.00000     0.39716    0.00130     0.39846
      H   39    0.09785      0.00000     0.40054    0.00161     0.40215
 =======================================================================
   * Total *   -0.00000     15.99398    44.80091    0.20511    61.00000

 Normal termination of Gaussian 16 at Fri Dec 11 00:24:48 2020.
