 Gaussian 16, Revision A.03,

 -----------------------------------------------------------
 # opt freq B3LYP/6-31G(d) empiricaldispersion=gd3bj scf=xqc
 -----------------------------------------------------------

 -------------------------------
 CID_139516152_JID_1870_neutraal
 -------------------------------
 Symbolic Z-matrix:
 Charge =  0 Multiplicity = 1

 SCF Done:  E(RB3LYP) =  -465.879670887     A.U. after   13 cycles
 SCF Done:  E(RB3LYP) =  -465.888048478     A.U. after   12 cycles
 SCF Done:  E(RB3LYP) =  -465.888432587     A.U. after   12 cycles
 SCF Done:  E(RB3LYP) =  -465.888959278     A.U. after   11 cycles
 SCF Done:  E(RB3LYP) =  -465.889096232     A.U. after   11 cycles
 SCF Done:  E(RB3LYP) =  -465.889140089     A.U. after   10 cycles
 SCF Done:  E(RB3LYP) =  -465.889153691     A.U. after   10 cycles
 SCF Done:  E(RB3LYP) =  -465.889161596     A.U. after    9 cycles
 SCF Done:  E(RB3LYP) =  -465.889163218     A.U. after    8 cycles
 SCF Done:  E(RB3LYP) =  -465.889163679     A.U. after    7 cycles
 SCF Done:  E(RB3LYP) =  -465.889163830     A.U. after    7 cycles
 Optimization completed.
    -- Stationary point found.
 Normal termination of Gaussian 16 at Tue Dec  8 21:54:16 2020.

 --------------------------------------------------------------------
 #N Geom=AllCheck Guess=TCheck SCRF=Check GenChk RB3LYP/6-31G(d) Freq
 --------------------------------------------------------------------

 Structure from the checkpoint file:  "JID_1870.chk"
 -------------------------------
 CID_139516152_JID_1870_neutraal
 -------------------------------
 Charge =  0 Multiplicity = 1

 SCF Done:  E(RB3LYP) =  -465.889163830     A.U. after    1 cycles

  Exact polarizability: 137.077  -7.059 121.276  -1.527  -1.543  76.881
 Approx polarizability: 177.821 -18.991 185.175   0.036  -3.763 113.364

                      1                      2                      3
                      A                      A                      A
 Frequencies --     45.4060                90.6117               105.8613
 Red. masses --      3.3123                 3.0606                 2.0170
 Frc consts  --      0.0040                 0.0148                 0.0133
 IR Inten    --      0.3306                 0.0129                 1.6303

                      4                      5                      6
                      A                      A                      A
 Frequencies --    123.2361               133.7245               163.4361
 Red. masses --      1.7542                 2.1344                 1.5213
 Frc consts  --      0.0157                 0.0225                 0.0239
 IR Inten    --      0.4227                 0.4414                 0.1267

                      7                      8                      9
                      A                      A                      A
 Frequencies --    175.4785               217.8107               223.0964
 Red. masses --      2.3706                 1.4406                 1.6076
 Frc consts  --      0.0430                 0.0403                 0.0471
 IR Inten    --      1.0759                 1.2468                 2.3158

                     10                     11                     12
                      A                      A                      A
 Frequencies --    246.5112               263.8624               298.4744
 Red. masses --      2.7287                 1.7457                 2.5553
 Frc consts  --      0.0977                 0.0716                 0.1341
 IR Inten    --      3.9554                 1.9298                 1.1854

                     13                     14                     15
                      A                      A                      A
 Frequencies --    343.5752               400.6399               463.4079
 Red. masses --      3.1438                 2.7224                 2.7274
 Frc consts  --      0.2187                 0.2575                 0.3451
 IR Inten    --      3.4293                 1.3014                 2.2145

                     16                     17                     18
                      A                      A                      A
 Frequencies --    525.9823               577.4148               617.6706
 Red. masses --      2.8752                 3.4519                 3.8573
 Frc consts  --      0.4687                 0.6781                 0.8670
 IR Inten    --      2.6584                 5.4084                 0.7802

                     19                     20                     21
                      A                      A                      A
 Frequencies --    695.4941               729.7726               796.7060
 Red. masses --      2.4267                 2.7466                 1.3447
 Frc consts  --      0.6916                 0.8618                 0.5029
 IR Inten    --      4.1823                 2.5635                13.7221

                     22                     23                     24
                      A                      A                      A
 Frequencies --    849.8790               865.9917               874.9603
 Red. masses --      1.2436                 1.7724                 1.4068
 Frc consts  --      0.5292                 0.7831                 0.6346
 IR Inten    --     13.4293                 4.3700                13.2493

                     25                     26                     27
                      A                      A                      A
 Frequencies --    919.5007               971.9832               992.2957
 Red. masses --      2.2229                 2.4439                 2.6957
 Frc consts  --      1.1073                 1.3604                 1.5639
 IR Inten    --      5.7380                17.5067                15.3666

                     28                     29                     30
                      A                      A                      A
 Frequencies --   1019.1884              1035.1505              1064.8919
 Red. masses --      2.4233                 1.9374                 2.5386
 Frc consts  --      1.4831                 1.2231                 1.6961
 IR Inten    --      3.8132                 3.0342                 2.1459

                     31                     32                     33
                      A                      A                      A
 Frequencies --   1071.6765              1075.7681              1109.6174
 Red. masses --      1.7618                 2.6689                 1.9444
 Frc consts  --      1.1922                 1.8198                 1.4105
 IR Inten    --      3.9188                11.0539                 1.3937

                     34                     35                     36
                      A                      A                      A
 Frequencies --   1128.0865              1157.7111              1177.7303
 Red. masses --      1.5177                 2.1418                 2.0320
 Frc consts  --      1.1380                 1.6914                 1.6606
 IR Inten    --     19.7549                19.4424                46.6012

                     37                     38                     39
                      A                      A                      A
 Frequencies --   1188.6495              1193.3102              1231.7344
 Red. masses --      1.5500                 1.7616                 1.4379
 Frc consts  --      1.2903                 1.4779                 1.2853
 IR Inten    --      8.1427                25.6608                 3.2050

                     40                     41                     42
                      A                      A                      A
 Frequencies --   1254.1751              1266.7280              1301.3534
 Red. masses --      1.6009                 1.7271                 1.2180
 Frc consts  --      1.4837                 1.6328                 1.2153
 IR Inten    --     48.6743                36.0799                 0.6300

                     43                     44                     45
                      A                      A                      A
 Frequencies --   1337.5868              1365.3821              1408.0061
 Red. masses --      1.2449                 1.4050                 1.2594
 Frc consts  --      1.3123                 1.5433                 1.4710
 IR Inten    --      6.5793                 2.4403                18.5072

                     46                     47                     48
                      A                      A                      A
 Frequencies --   1414.7252              1435.0918              1439.9441
 Red. masses --      1.4908                 1.2266                 1.3000
 Frc consts  --      1.7580                 1.4884                 1.5881
 IR Inten    --      0.6620                 1.5170                 4.4306

                     49                     50                     51
                      A                      A                      A
 Frequencies --   1498.3812              1500.9965              1507.8747
 Red. masses --      1.1604                 1.1033                 1.0594
 Frc consts  --      1.5349                 1.4646                 1.4192
 IR Inten    --      2.5981                 5.9363                 3.4167

                     52                     53                     54
                      A                      A                      A
 Frequencies --   1517.9867              1523.5925              1526.1652
 Red. masses --      1.0560                 1.0580                 1.0419
 Frc consts  --      1.4337                 1.4470                 1.4299
 IR Inten    --     11.8093                 2.1578                 1.9884

                     55                     56                     57
                      A                      A                      A
 Frequencies --   1528.4445              1538.2534              1543.2854
 Red. masses --      1.0482                 1.0803                 1.0486
 Frc consts  --      1.4427                 1.5061                 1.4715
 IR Inten    --      2.8060                 3.4571                 7.5633

                     58                     59                     60
                      A                      A                      A
 Frequencies --   1749.0615              1761.5230              3019.3977
 Red. masses --      7.8617                 8.7827                 1.0379
 Frc consts  --     14.1703                16.0566                 5.5748
 IR Inten    --      3.5951                 6.1012                49.3900

                     61                     62                     63
                      A                      A                      A
 Frequencies --   3025.3846              3031.6729              3045.9510
 Red. masses --      1.0712                 1.0449                 1.0346
 Frc consts  --      5.7768                 5.6583                 5.6557
 IR Inten    --     33.9080                30.6640                35.6732

                     64                     65                     66
                      A                      A                      A
 Frequencies --   3070.5325              3078.8646              3079.8030
 Red. masses --      1.0617                 1.0957                 1.0952
 Frc consts  --      5.8977                 6.1195                 6.1203
 IR Inten    --     13.7280                54.4906                35.4057

                     67                     68                     69
                      A                      A                      A
 Frequencies --   3080.7470              3101.1064              3117.6545
 Red. masses --      1.0867                 1.0934                 1.1014
 Frc consts  --      6.0768                 6.1955                 6.3077
 IR Inten    --     14.6130                 2.8650                40.4137

                     70                     71                     72
                      A                      A                      A
 Frequencies --   3119.1299              3120.5928              3136.4457
 Red. masses --      1.0992                 1.1067                 1.0892
 Frc consts  --      6.3006                 6.3500                 6.3129
 IR Inten    --     31.3955                31.8493                41.7826

                     73                     74                     75
                      A                      A                      A
 Frequencies --   3137.7098              3139.7755              3154.5577
 Red. masses --      1.1001                 1.0903                 1.0931
 Frc consts  --      6.3813                 6.3330                 6.4091
 IR Inten    --     39.2128                 2.2843                19.4182

 - Thermochemistry -
 -------------------
 Temperature   298.150 Kelvin.  Pressure   1.00000 Atm.
 Atom     1 has atomic number  6 and mass  12.00000

 Molecular mass:   152.12012 amu.
 Principal axes and moments of inertia in atomic units:
                           1         2         3
     Eigenvalues --   990.461932766.454843378.14348
           X            0.99997   0.00438  -0.00654
           Y           -0.00436   0.99999   0.00267
           Z            0.00655  -0.00264   0.99998
 This molecule is an asymmetric top.
 Rotational symmetry number  1.
 Warning -- assumption of classical behavior for rotation
           may cause significant error
 Rotational temperatures (Kelvin)      0.08745     0.03131     0.02564
 Rotational constants (GHZ):           1.82212     0.65237     0.53424
 Zero-point vibrational energy     628303.7 (Joules/Mol)
                                  150.16820 (Kcal/Mol)
 Warning -- explicit consideration of  18 degrees of freedom as
           vibrations may cause significant error
 Vibrational temperatures:     65.33   130.37   152.31   177.31   192.40
          (Kelvin)            235.15   252.47   313.38   320.99   354.67
                              379.64   429.44   494.33   576.43   666.74
                              756.77   830.77   888.69  1000.66  1049.98
                             1146.28  1222.79  1245.97  1258.87  1322.96
                             1398.47  1427.69  1466.38  1489.35  1532.14
                             1541.90  1547.79  1596.49  1623.06  1665.69
                             1694.49  1710.20  1716.91  1772.19  1804.48
                             1822.54  1872.36  1924.49  1964.48  2025.81
                             2035.47  2064.78  2071.76  2155.84  2159.60
                             2169.50  2184.04  2192.11  2195.81  2199.09
                             2213.20  2220.44  2516.51  2534.44  4344.24
                             4352.85  4361.90  4382.44  4417.81  4429.80
                             4431.15  4432.51  4461.80  4485.61  4487.73
                             4489.84  4512.65  4514.46  4517.44  4538.70

 Zero-point correction=                           0.239308 (Hartree/Particle)
 Thermal correction to Energy=                    0.251964
 Thermal correction to Enthalpy=                  0.252909
 Thermal correction to Gibbs Free Energy=         0.200563
 Sum of electronic and zero-point Energies=           -465.649856
 Sum of electronic and thermal Energies=              -465.637199
 Sum of electronic and thermal Enthalpies=            -465.636255
 Sum of electronic and thermal Free Energies=         -465.688601

                     E (Thermal)             CV                S
                      KCal/Mol        Cal/Mol-Kelvin    Cal/Mol-Kelvin
 Total                  158.110             46.120            110.170
 Electronic               0.000              0.000              0.000
 Translational            0.889              2.981             40.968
 Rotational               0.889              2.981             30.605
 Vibrational            156.333             40.158             38.597
 Vibration     1          0.595              1.979              5.008
 Vibration     2          0.602              1.956              3.647
 Vibration     3          0.605              1.945              3.343
 Vibration     4          0.610              1.930              3.049
 Vibration     5          0.613              1.920              2.892
 Vibration     6          0.623              1.887              2.510
 Vibration     7          0.627              1.873              2.376
 Vibration     8          0.646              1.814              1.977
 Vibration     9          0.649              1.806              1.934
 Vibration    10          0.661              1.769              1.755
 Vibration    11          0.670              1.739              1.636
 Vibration    12          0.692              1.677              1.425
 Vibration    13          0.722              1.588              1.195
 Vibration    14          0.766              1.469              0.960
 Vibration    15          0.821              1.331              0.756
 Vibration    16          0.881              1.192              0.596
 Vibration    17          0.934              1.080              0.490
 Vibration    18          0.977              0.995              0.420

                           ! Non-Optimized Parameters !
 Normal termination of Gaussian 16 at Tue Dec  8 22:01:01 2020.

 ----------------------------------------------------------------------
 # B3LYP/6-311++G(d,p) empiricaldispersion=gd3bj scf=xqc pop=npa geom=c
 heck
 ----------------------------------------------------------------------

 ---------------------------------------
 CID_139516152_JID_1870_Energie_neutraal
 ---------------------------------------
 Structure from the checkpoint file:  "JID_1870.chk"
 Charge =  0 Multiplicity = 1

 SCF Done:  E(RB3LYP) =  -466.018394771     A.U. after   15 cycles
 Normal termination of Gaussian 16 at Tue Dec  8 22:03:26 2020.

 ----------------------------------------------------------------------
 # B3LYP/6-311++G(d,p) empiricaldispersion=gd3bj scf=xqc pop=npa geom=c
 heck
 ----------------------------------------------------------------------

 -------------------------------------
 CID_139516152_JID_1870_Energie_kation
 -------------------------------------
 Structure from the checkpoint file:  "JID_1870.chk"
 Charge =  1 Multiplicity = 2

 SCF Done:  E(UB3LYP) =  -465.727719098     A.U. after   22 cycles
 Normal termination of Gaussian 16 at Tue Dec  8 22:07:58 2020.
 Gaussian 16:  ES64L-G16RevA.03 25-Dec-2016

 ----------------------------------------------------------------------
 # B3LYP/6-311++G(d,p) empiricaldispersion=gd3bj scf=xqc pop=npa geom=c
 heck
 ----------------------------------------------------------------------

 ------------------------------------
 CID_139516152_JID_1870_Energie_anion
 ------------------------------------
 Structure from the checkpoint file:  "JID_1870.chk"
 Charge = -1 Multiplicity = 2

                         Standard orientation:
 ---------------------------------------------------------------------
 Center     Atomic      Atomic             Coordinates (Angstroms)
 Number     Number       Type             X           Y           Z
 ---------------------------------------------------------------------
      1          6           0        3.715141   -0.109683    0.728221
      2          6           0        2.788807   -0.430490   -0.456433
      3          6           0        1.603967   -1.265150   -0.062192
      4          6           0        0.318743   -0.890331   -0.056287
      5          6           0       -0.961452   -1.707341    0.120281
      6          6           0       -1.698065   -0.580432   -0.687729
      7          6           0       -0.463136    0.299608   -0.464904
      8          6           0       -0.354193    1.633325   -0.440415
      9          6           0        0.823200    2.442251    0.017891
     10          8           0       -2.974248   -0.114314   -0.321111
     11          6           0       -3.136158    0.251777    1.037677
     12          1           0        3.189360    0.478684    1.488466
     13          1           0        4.592991    0.458578    0.400510
     14          1           0        4.068714   -1.028517    1.210515
     15          1           0        2.453835    0.494965   -0.934111
     16          1           0        3.368228   -0.979216   -1.213223
     17          1           0        1.826151   -2.293275    0.229244
     18          1           0       -0.983823   -2.717267   -0.300799
     19          1           0       -1.292755   -1.748868    1.163319
     20          1           0       -1.801183   -0.873956   -1.737636
     21          1           0       -1.236640    2.194086   -0.750887
     22          1           0        1.369365    2.881453   -0.828947
     23          1           0        0.493906    3.280131    0.644869
     24          1           0        1.527480    1.840621    0.597306
     25          1           0       -3.136167   -0.624207    1.701876
     26          1           0       -2.356413    0.947779    1.372236
     27          1           0       -4.110187    0.742313    1.109489
 ---------------------------------------------------------------------

 SCF Done:  E(UB3LYP) =  -466.006866570     A.U. after   33 cycles
 SCF Done:  E(UB3LYP) =  -466.006866570     a.u. after    1 cycles

 The electronic state is 2-A.
 Alpha  occ. eigenvalues --  -19.00965 -10.09850 -10.09712 -10.04577 -10.04235
 Alpha  occ. eigenvalues --  -10.04201 -10.03536 -10.03433 -10.03153 -10.02797
 Alpha  occ. eigenvalues --  -10.02352  -0.92090  -0.72394  -0.65708  -0.63947
 Alpha  occ. eigenvalues --   -0.59763  -0.56678  -0.54755  -0.49034  -0.46819
 Alpha  occ. eigenvalues --   -0.44764  -0.37755  -0.37329  -0.35270  -0.34091
 Alpha  occ. eigenvalues --   -0.32564  -0.31236  -0.30067  -0.29031  -0.28797
 Alpha  occ. eigenvalues --   -0.27365  -0.25956  -0.25345  -0.25023  -0.23172
 Alpha  occ. eigenvalues --   -0.22962  -0.21553  -0.18787  -0.17993  -0.15752
 Alpha  occ. eigenvalues --   -0.13674  -0.09036   0.05252
 Alpha virt. eigenvalues --    0.07568   0.08049   0.08994   0.09930   0.10075
 Alpha virt. eigenvalues --    0.10501   0.11025   0.11765   0.12012   0.12584
 Alpha virt. eigenvalues --    0.13371   0.13709   0.14173   0.15130   0.15782

  Beta  occ. eigenvalues --  -19.00932 -10.09850 -10.09692 -10.04587 -10.04247
  Beta  occ. eigenvalues --  -10.04210 -10.03468 -10.03339 -10.03115 -10.02542
  Beta  occ. eigenvalues --  -10.02166  -0.92012  -0.72093  -0.65522  -0.63629
  Beta  occ. eigenvalues --   -0.59679  -0.56492  -0.54663  -0.48942  -0.46598
  Beta  occ. eigenvalues --   -0.44563  -0.37615  -0.37188  -0.35087  -0.34027
  Beta  occ. eigenvalues --   -0.32471  -0.31089  -0.29949  -0.28836  -0.28615
  Beta  occ. eigenvalues --   -0.27262  -0.25814  -0.25239  -0.24922  -0.23085
  Beta  occ. eigenvalues --   -0.22861  -0.21498  -0.18628  -0.17868  -0.14946
  Beta  occ. eigenvalues --   -0.13586  -0.07889
  Beta virt. eigenvalues --    0.07646   0.08404   0.08890   0.09105   0.10149
  Beta virt. eigenvalues --    0.10556   0.10935   0.11530   0.11939   0.12123
  Beta virt. eigenvalues --    0.12701   0.13429   0.13875   0.14335   0.15182

 Mulliken charges and spin densities:
               1          2
     1  C    1.118444  -1.725887
     2  C   -1.001697   0.821912
     3  C   -0.874518   0.915561
     4  C    0.752497  -0.921687
     5  C    0.013127  -0.260154
     6  C   -0.872027  -0.039297
     7  C    0.740187   0.152950
     8  C    0.046585   0.200708
     9  C   -0.478058  -0.304581
    10  O   -0.097056   0.000130
    11  C   -0.067304  -0.275868
    12  H   -0.201941   0.328749
    13  H   -0.579058   0.705563
    14  H   -0.264768   0.389441
    15  H    0.081497   0.061257
    16  H   -0.039257   0.175639
    17  H    0.049982   0.094702
    18  H    0.085652   0.037870
    19  H    0.017557   0.100299
    20  H    0.136809   0.049066
    21  H    0.179884  -0.036917
    22  H   -0.054576   0.210798
    23  H    0.037286   0.079394
    24  H    0.266201  -0.154882
    25  H   -0.043593   0.168452
    26  H    0.037072   0.122397
    27  H    0.011072   0.104384
 Sum of Mulliken charges =  -1.00000   1.00000

 Dipole moment (field-independent basis, Debye):
    X=             -5.2573    Y=             -0.7001    Z=             -1.0353  Tot=              5.4038
 Quadrupole moment (field-independent basis, Debye-Ang):
   XX=           -140.0320   YY=            -91.8849   ZZ=            -90.8048
   XY=             -3.1872   XZ=             -3.7108   YZ=              1.6444

 Summary of Natural Population Analysis:

                                       Natural Population
                Natural  -----------------------------------------------
    Atom  No    Charge         Core      Valence    Rydberg      Total
 -----------------------------------------------------------------------
      C    1   -0.27798      0.99966     2.27343    0.00489     3.27798
      C    2   -0.20801      0.99963     2.19915    0.00923     3.20801
      C    3   -0.05806      0.99945     2.04872    0.00988     3.05806
      C    4   -0.01547      0.99948     2.00513    0.01086     3.01547
      C    5   -0.20263      0.99961     2.19625    0.00677     3.20263
      C    6    0.06909      0.99950     1.91626    0.01515     2.93091
      C    7   -0.04070      0.99946     2.02992    0.01131     3.04070
      C    8   -0.04425      0.99947     2.03623    0.00855     3.04425
      C    9   -0.30444      0.99965     2.29854    0.00625     3.30444
      O   10   -0.29688      0.99988     3.28786    0.00914     4.29688
      C   11   -0.10497      0.99961     2.09522    0.01014     3.10497
      H   12    0.09453      0.00000     0.40408    0.00139     0.40547
      H   13    0.09742      0.00000     0.39940    0.00319     0.40258
      H   14    0.09349      0.00000     0.40520    0.00131     0.40651
      H   15    0.09905      0.00000     0.39895    0.00200     0.40095
      H   16    0.09479      0.00000     0.40412    0.00109     0.40521
      H   17    0.08550      0.00000     0.41357    0.00093     0.41450
      H   18    0.09416      0.00000     0.40482    0.00102     0.40584
      H   19    0.09921      0.00000     0.39960    0.00119     0.40079
      H   20    0.08814      0.00000     0.41057    0.00129     0.41186
      H   21    0.08638      0.00000     0.41204    0.00157     0.41362
      H   22    0.10231      0.00000     0.39645    0.00124     0.39769
      H   23    0.09595      0.00000     0.40325    0.00079     0.40405
      H   24    0.10402      0.00000     0.39479    0.00119     0.39598
      H   25    0.07616      0.00000     0.42246    0.00137     0.42384
      H   26    0.08933      0.00000     0.40941    0.00126     0.41067
      H   27    0.08385      0.00000     0.41528    0.00088     0.41615
 =======================================================================
   * Total *    0.00000     10.99540    30.88072    0.12388    42.00000

 Normal termination of Gaussian 16 at Tue Dec  8 22:16:24 2020.
