 Gaussian 16, Revision A.03,

 -----------------------------------------------------------
 # opt freq B3LYP/6-31G(d) empiricaldispersion=gd3bj scf=xqc
 -----------------------------------------------------------

 -------------------------------
 CID_113448792_JID_8097_neutraal
 -------------------------------
 Symbolic Z-matrix:
 Charge =  0 Multiplicity = 1

 SCF Done:  E(RB3LYP) =  -845.058664169     A.U. after   14 cycles
 SCF Done:  E(RB3LYP) =  -845.064811934     A.U. after   13 cycles
 SCF Done:  E(RB3LYP) =  -845.064719397     A.U. after   13 cycles
 SCF Done:  E(RB3LYP) =  -845.065455359     A.U. after   13 cycles
 SCF Done:  E(RB3LYP) =  -845.066368801     A.U. after   12 cycles
 SCF Done:  E(RB3LYP) =  -845.066324536     A.U. after   13 cycles
 SCF Done:  E(RB3LYP) =  -845.066795482     A.U. after   12 cycles
 SCF Done:  E(RB3LYP) =  -845.066948939     A.U. after   13 cycles
 SCF Done:  E(RB3LYP) =  -845.067137508     A.U. after   12 cycles
 SCF Done:  E(RB3LYP) =  -845.067355654     A.U. after   13 cycles
 SCF Done:  E(RB3LYP) =  -845.070395550     A.U. after   10 cycles
 SCF Done:  E(RB3LYP) =  -845.070396233     A.U. after    8 cycles
 SCF Done:  E(RB3LYP) =  -845.070396430     A.U. after    8 cycles
 SCF Done:  E(RB3LYP) =  -845.070396505     A.U. after    7 cycles
 SCF Done:  E(RB3LYP) =  -845.070396536     A.U. after    7 cycles
 Optimization completed.
    -- Stationary point found.
 Normal termination of Gaussian 16 at Fri Dec 11 19:30:09 2020.

 --------------------------------------------------------------------
 #N Geom=AllCheck Guess=TCheck SCRF=Check GenChk RB3LYP/6-31G(d) Freq
 --------------------------------------------------------------------

 Structure from the checkpoint file:  "JID_8097.chk"
 -------------------------------
 CID_113448792_JID_8097_neutraal
 -------------------------------
 Charge =  0 Multiplicity = 1

 SCF Done:  E(RB3LYP) =  -845.070396536     A.U. after    1 cycles

  Exact polarizability: 178.216   2.835 156.418  11.235  -1.108 128.538
 Approx polarizability: 222.490   0.464 221.004  22.282  -2.774 205.699

                      1                      2                      3
                      A                      A                      A
 Frequencies --     22.3748                31.1099                37.1737
 Red. masses --      4.2006                 4.0640                 4.2382
 Frc consts  --      0.0012                 0.0023                 0.0035
 IR Inten    --      0.2176                 1.0910                 2.3484

                      4                      5                      6
                      A                      A                      A
 Frequencies --     50.3831                54.9001                77.4766
 Red. masses --      2.3525                 3.8198                 3.3804
 Frc consts  --      0.0035                 0.0068                 0.0120
 IR Inten    --      1.6359                 0.6194                 2.5954

                      7                      8                      9
                      A                      A                      A
 Frequencies --     83.2956                88.8517               118.3658
 Red. masses --      3.2374                 3.2851                 5.0089
 Frc consts  --      0.0132                 0.0153                 0.0413
 IR Inten    --      2.6079                 1.0348                 2.5256

                     10                     11                     12
                      A                      A                      A
 Frequencies --    123.9310               137.6947               160.4164
 Red. masses --      5.6530                 2.5681                 3.5314
 Frc consts  --      0.0512                 0.0287                 0.0535
 IR Inten    --      1.2780                 4.1925                 1.7361

                     13                     14                     15
                      A                      A                      A
 Frequencies --    206.8573               224.1340               229.0825
 Red. masses --      4.0913                 1.1093                 1.5261
 Frc consts  --      0.1031                 0.0328                 0.0472
 IR Inten    --      8.7912                 0.2439                 0.6730

                     16                     17                     18
                      A                      A                      A
 Frequencies --    229.6954               243.5476               317.7777
 Red. masses --      1.2997                 1.3876                 2.7261
 Frc consts  --      0.0404                 0.0485                 0.1622
 IR Inten    --      0.7837                 1.1885                 2.3340

                     19                     20                     21
                      A                      A                      A
 Frequencies --    329.6351               335.5085               342.4525
 Red. masses --      2.7792                 2.6889                 2.3633
 Frc consts  --      0.1779                 0.1783                 0.1633
 IR Inten    --      7.8905                 4.8442                 3.6584

                     22                     23                     24
                      A                      A                      A
 Frequencies --    367.7534               409.7106               428.2676
 Red. masses --      3.3667                 4.4194                 2.2059
 Frc consts  --      0.2683                 0.4371                 0.2384
 IR Inten    --      0.9267                 7.7326                 0.2035

                     25                     26                     27
                      A                      A                      A
 Frequencies --    457.9721               461.3256               508.0329
 Red. masses --      2.7901                 2.0605                 2.9126
 Frc consts  --      0.3448                 0.2584                 0.4429
 IR Inten    --     11.0041                 3.4567                 5.1614

                     28                     29                     30
                      A                      A                      A
 Frequencies --    526.8899               614.4229               628.4179
 Red. masses --      3.5198                 3.6803                 3.2679
 Frc consts  --      0.5757                 0.8186                 0.7604
 IR Inten    --      7.5622                17.6296                 3.5906

                     31                     32                     33
                      A                      A                      A
 Frequencies --    697.3694               711.5034               765.4972
 Red. masses --      4.1949                 5.1917                 2.8081
 Frc consts  --      1.2020                 1.5485                 0.9695
 IR Inten    --      7.6774                 3.7482                 8.1158

                     34                     35                     36
                      A                      A                      A
 Frequencies --    777.5378               800.1460               811.6714
 Red. masses --      3.4087                 1.3092                 1.1342
 Frc consts  --      1.2142                 0.4939                 0.4402
 IR Inten    --     18.1375                 7.1284                 6.4967

                     37                     38                     39
                      A                      A                      A
 Frequencies --    823.6156               838.3157               879.1668
 Red. masses --      2.6561                 1.7628                 4.4007
 Frc consts  --      1.0615                 0.7299                 2.0041
 IR Inten    --      8.3892                 1.9494                16.2957

                     40                     41                     42
                      A                      A                      A
 Frequencies --    930.5249               931.3850               938.8318
 Red. masses --      2.8829                 3.5190                 2.3047
 Frc consts  --      1.4708                 1.7986                 1.1969
 IR Inten    --     19.7673                 5.0638                 1.5008

                     43                     44                     45
                      A                      A                      A
 Frequencies --    940.3414               962.6495               970.8638
 Red. masses --      2.1824                 2.2060                 2.1232
 Frc consts  --      1.1370                 1.2045                 1.1791
 IR Inten    --     11.4537                 3.2842                15.9230

                     46                     47                     48
                      A                      A                      A
 Frequencies --   1009.7856              1019.7204              1046.4979
 Red. masses --      1.8452                 2.1782                 2.4492
 Frc consts  --      1.1085                 1.3345                 1.5803
 IR Inten    --      0.7121                 6.2760                58.5526

                     49                     50                     51
                      A                      A                      A
 Frequencies --   1057.7411              1085.5919              1099.4979
 Red. masses --      2.2276                 2.3606                 2.5157
 Frc consts  --      1.4684                 1.6391                 1.7918
 IR Inten    --     42.5329                32.1590                58.0191

                     52                     53                     54
                      A                      A                      A
 Frequencies --   1104.2874              1115.5599              1122.2747
 Red. masses --      1.9810                 1.7676                 1.7896
 Frc consts  --      1.4233                 1.2960                 1.3280
 IR Inten    --     11.3828                 5.4684                50.1151

                     55                     56                     57
                      A                      A                      A
 Frequencies --   1131.4311              1134.8857              1154.0415
 Red. masses --      1.7394                 2.6358                 1.3708
 Frc consts  --      1.3119                 2.0002                 1.0756
 IR Inten    --     16.4681                38.3405                 4.2904

                     58                     59                     60
                      A                      A                      A
 Frequencies --   1184.2944              1200.4767              1228.1687
 Red. masses --      1.8517                 1.7994                 1.5525
 Frc consts  --      1.5301                 1.5278                 1.3798
 IR Inten    --     19.3750                12.3706                 8.3745

                     61                     62                     63
                      A                      A                      A
 Frequencies --   1228.7412              1241.0769              1251.8172
 Red. masses --      1.2803                 1.3885                 1.2671
 Frc consts  --      1.1389                 1.2601                 1.1699
 IR Inten    --      5.3565                 1.1224                 4.3832

                     64                     65                     66
                      A                      A                      A
 Frequencies --   1262.5786              1283.9426              1292.2139
 Red. masses --      2.5601                 1.3088                 1.8005
 Frc consts  --      2.4045                 1.2712                 1.7714
 IR Inten    --     22.0306                 2.8568                19.8040

                     67                     68                     69
                      A                      A                      A
 Frequencies --   1330.1321              1332.7322              1345.0067
 Red. masses --      1.3073                 1.4427                 1.4713
 Frc consts  --      1.3627                 1.5098                 1.5682
 IR Inten    --     71.7665                 6.6259                 2.1832

                     70                     71                     72
                      A                      A                      A
 Frequencies --   1355.8373              1357.3158              1380.5800
 Red. masses --      1.3702                 1.3686                 1.3050
 Frc consts  --      1.4840                 1.4855                 1.4655
 IR Inten    --     13.3577                 8.6271                 4.2916

                     73                     74                     75
                      A                      A                      A
 Frequencies --   1399.6228              1404.0252              1407.3072
 Red. masses --      1.2884                 1.5144                 1.5697
 Frc consts  --      1.4870                 1.7589                 1.8316
 IR Inten    --     13.6347                 7.3954                 3.3776

                     76                     77                     78
                      A                      A                      A
 Frequencies --   1418.7700              1419.9645              1434.3179
 Red. masses --      1.3660                 1.2817                 1.2932
 Frc consts  --      1.6200                 1.5226                 1.5674
 IR Inten    --      5.8273                11.2600                 8.4856

                     79                     80                     81
                      A                      A                      A
 Frequencies --   1441.4202              1475.2875              1491.9985
 Red. masses --      1.2589                 1.1511                 1.8187
 Frc consts  --      1.5410                 1.4761                 2.3853
 IR Inten    --     15.6071                 1.9732                87.6287

                     82                     83                     84
                      A                      A                      A
 Frequencies --   1498.2069              1508.9031              1512.7013
 Red. masses --      1.1015                 1.0644                 1.2456
 Frc consts  --      1.4567                 1.4279                 1.6793
 IR Inten    --      7.0356                 6.5325                26.2617

                     85                     86                     87
                      A                      A                      A
 Frequencies --   1513.6211              1520.2114              1522.5129
 Red. masses --      1.0922                 1.0477                 1.0540
 Frc consts  --      1.4742                 1.4265                 1.4395
 IR Inten    --      8.6881                 2.8587                 0.9369

                     88                     89                     90
                      A                      A                      A
 Frequencies --   1527.7478              1534.4246              1540.2757
 Red. masses --      1.1052                 1.0632                 1.0872
 Frc consts  --      1.5198                 1.4749                 1.5198
 IR Inten    --     14.2910                 7.5264                15.9091

                     91                     92                     93
                      A                      A                      A
 Frequencies --   1545.4633              1550.1227              1559.8470
 Red. masses --      1.0855                 1.0603                 1.0990
 Frc consts  --      1.5276                 1.5011                 1.5754
 IR Inten    --      0.9386                11.2809                 0.7170

                     94                     95                     96
                      A                      A                      A
 Frequencies --   1560.2145              1735.6166              1804.6030
 Red. masses --      1.1026                 8.9588                11.0226
 Frc consts  --      1.5814                15.9003                21.1494
 IR Inten    --      4.7684               328.3895                87.9229

                     97                     98                     99
                      A                      A                      A
 Frequencies --   2987.7887              3030.8251              3033.4923
 Red. masses --      1.0729                 1.0360                 1.0687
 Frc consts  --      5.6433                 5.6072                 5.7943
 IR Inten    --     77.0119                48.8457                90.2426

                    100                    101                    102
                      A                      A                      A
 Frequencies --   3038.0632              3050.8666              3051.8775
 Red. masses --      1.0566                 1.0581                 1.0384
 Frc consts  --      5.7459                 5.8026                 5.6985
 IR Inten    --     41.6923                14.2011                11.7092

                    103                    104                    105
                      A                      A                      A
 Frequencies --   3052.8149              3058.8331              3075.4063
 Red. masses --      1.0370                 1.0682                 1.0667
 Frc consts  --      5.6941                 5.8886                 5.9442
 IR Inten    --     10.6574                29.5523                32.0437

                    106                    107                    108
                      A                      A                      A
 Frequencies --   3083.3607              3083.6138              3091.8928
 Red. masses --      1.0757                 1.1023                 1.0897
 Frc consts  --      6.0253                 6.1757                 6.1378
 IR Inten    --     21.9960                36.2109                 4.4387

                    109                    110                    111
                      A                      A                      A
 Frequencies --   3093.1785              3095.5921              3102.7739
 Red. masses --      1.1005                 1.0943                 1.0946
 Frc consts  --      6.2038                 6.1784                 6.2087
 IR Inten    --     33.2360                12.3392                36.5792

                    112                    113                    114
                      A                      A                      A
 Frequencies --   3109.3894              3114.6816              3115.7364
 Red. masses --      1.0912                 1.1017                 1.1012
 Frc consts  --      6.2159                 6.2972                 6.2986
 IR Inten    --     32.4356                11.6385                38.4106

                    115                    116                    117
                      A                      A                      A
 Frequencies --   3116.1552              3124.6862              3135.1168
 Red. masses --      1.1023                 1.1016                 1.0985
 Frc consts  --      6.3063                 6.3369                 6.3613
 IR Inten    --     23.5485                37.0010                26.6127

                    118                    119                    120
                      A                      A                      A
 Frequencies --   3142.1426              3148.2028              3153.3304
 Red. masses --      1.0982                 1.1033                 1.1008
 Frc consts  --      6.3880                 6.4428                 6.4493
 IR Inten    --     12.8670                21.6789                 7.9546

 - Thermochemistry -
 -------------------
 Temperature   298.150 Kelvin.  Pressure   1.00000 Atm.
 Atom     1 has atomic number  6 and mass  12.00000

 Molecular mass:   256.17869 amu.
 Principal axes and moments of inertia in atomic units:
                           1         2         3
     Eigenvalues --  2577.556837400.176648674.51717
           X            0.99995   0.00508   0.00870
           Y           -0.00503   0.99997  -0.00520
           Z           -0.00872   0.00515   0.99995
 This molecule is an asymmetric top.
 Rotational symmetry number  1.
 Warning -- assumption of classical behavior for rotation
           may cause significant error
 Rotational temperatures (Kelvin)      0.03360     0.01170     0.00998
 Rotational constants (GHZ):           0.70018     0.24388     0.20805
 Zero-point vibrational energy     977349.7 (Joules/Mol)
                                  233.59219 (Kcal/Mol)
 Warning -- explicit consideration of  29 degrees of freedom as
           vibrations may cause significant error
 Vibrational temperatures:     32.19    44.76    53.48    72.49    78.99
          (Kelvin)            111.47   119.84   127.84   170.30   178.31
                              198.11   230.80   297.62   322.48   329.60
                              330.48   350.41   457.21   474.27   482.72
                              492.71   529.12   589.48   616.18   658.92
                              663.74   730.95   758.08   884.02   904.15
                             1003.36  1023.69  1101.38  1118.70  1151.23
                             1167.81  1185.00  1206.15  1264.93  1338.82
                             1340.06  1350.77  1352.94  1385.04  1396.86
                             1452.86  1467.15  1505.68  1521.85  1561.92
                             1581.93  1588.82  1605.04  1614.70  1627.88
                             1632.85  1660.41  1703.94  1727.22  1767.06
                             1767.88  1785.63  1801.09  1816.57  1847.31
                             1859.21  1913.76  1917.50  1935.16  1950.75
                             1952.87  1986.35  2013.74  2020.08  2024.80
                             2041.29  2043.01  2063.66  2073.88  2122.61
                             2146.65  2155.59  2170.98  2176.44  2177.76
                             2187.25  2190.56  2198.09  2207.69  2216.11
                             2223.58  2230.28  2244.27  2244.80  2497.17
                             2596.42  4298.76  4360.68  4364.52  4371.10
                             4389.52  4390.97  4392.32  4400.98  4424.82
                             4436.27  4436.63  4448.54  4450.39  4453.87
                             4464.20  4473.72  4481.33  4482.85  4483.45
                             4495.73  4510.73  4520.84  4529.56  4536.94

 Zero-point correction=                           0.372253 (Hartree/Particle)
 Thermal correction to Energy=                    0.392285
 Thermal correction to Enthalpy=                  0.393229
 Thermal correction to Gibbs Free Energy=         0.321367
 Sum of electronic and zero-point Energies=           -844.698144
 Sum of electronic and thermal Energies=              -844.678112
 Sum of electronic and thermal Enthalpies=            -844.677168
 Sum of electronic and thermal Free Energies=         -844.749030

                     E (Thermal)             CV                S
                      KCal/Mol        Cal/Mol-Kelvin    Cal/Mol-Kelvin
 Total                  246.162             72.696            151.246
 Electronic               0.000              0.000              0.000
 Translational            0.889              2.981             42.522
 Rotational               0.889              2.981             33.470
 Vibrational            244.385             66.735             75.255
 Vibration     1          0.593              1.985              6.411
 Vibration     2          0.594              1.983              5.757
 Vibration     3          0.594              1.982              5.404
 Vibration     4          0.595              1.977              4.802
 Vibration     5          0.596              1.976              4.633
 Vibration     6          0.599              1.964              3.954
 Vibration     7          0.600              1.961              3.812
 Vibration     8          0.602              1.957              3.685
 Vibration     9          0.609              1.934              3.127
 Vibration    10          0.610              1.929              3.038
 Vibration    11          0.614              1.916              2.836
 Vibration    12          0.622              1.891              2.545
 Vibration    13          0.641              1.830              2.071
 Vibration    14          0.649              1.804              1.925
 Vibration    15          0.652              1.797              1.886
 Vibration    16          0.652              1.796              1.881
 Vibration    17          0.659              1.773              1.777
 Vibration    18          0.704              1.640              1.322
 Vibration    19          0.712              1.616              1.262
 Vibration    20          0.717              1.605              1.233
 Vibration    21          0.722              1.591              1.201
 Vibration    22          0.740              1.539              1.089
 Vibration    23          0.774              1.449              0.928
 Vibration    24          0.790              1.409              0.864
 Vibration    25          0.816              1.343              0.772
 Vibration    26          0.819              1.336              0.762
 Vibration    27          0.863              1.232              0.638
 Vibration    28          0.882              1.190              0.594
 Vibration    29          0.974              1.001              0.426

 Optimization completed.
    -- Stationary point found.
 Normal termination of Gaussian 16 at Fri Dec 11 19:53:34 2020.

 ----------------------------------------------------------------------
 # B3LYP/6-311++G(d,p) empiricaldispersion=gd3bj scf=xqc pop=npa geom=c
 heck
 ----------------------------------------------------------------------

 ---------------------------------------
 CID_113448792_JID_8097_Energie_neutraal
 ---------------------------------------
 Structure from the checkpoint file:  "JID_8097.chk"
 Charge =  0 Multiplicity = 1

 SCF Done:  E(RB3LYP) =  -845.311976471     A.U. after   15 cycles
 Normal termination of Gaussian 16 at Fri Dec 11 20:04:59 2020.

 ----------------------------------------------------------------------
 # B3LYP/6-311++G(d,p) empiricaldispersion=gd3bj scf=xqc pop=npa geom=c
 heck
 ----------------------------------------------------------------------

 -------------------------------------
 CID_113448792_JID_8097_Energie_kation
 -------------------------------------
 Structure from the checkpoint file:  "JID_8097.chk"
 Charge =  1 Multiplicity = 2

 SCF Done:  E(UB3LYP) =  -845.026160297     A.U. after   31 cycles
 Normal termination of Gaussian 16 at Fri Dec 11 20:38:57 2020.
 Gaussian 16:  ES64L-G16RevA.03 25-Dec-2016

 ----------------------------------------------------------------------
 # B3LYP/6-311++G(d,p) empiricaldispersion=gd3bj scf=xqc pop=npa geom=c
 heck
 ----------------------------------------------------------------------

 ------------------------------------
 CID_113448792_JID_8097_Energie_anion
 ------------------------------------
 Structure from the checkpoint file:  "JID_8097.chk"
 Charge = -1 Multiplicity = 2

                         Standard orientation:
 ---------------------------------------------------------------------
 Center     Atomic      Atomic             Coordinates (Angstroms)
 Number     Number       Type             X           Y           Z
 ---------------------------------------------------------------------
      1          6           0        2.103671   -2.847328    0.795563
      2          6           0        2.908395   -2.055835   -0.236321
      3          7           0        2.623684   -0.620445   -0.176948
      4          6           0        3.462729    0.208143    0.691347
      5          6           0        4.735723    0.697587   -0.001587
      6          6           0        1.548833   -0.154730   -0.871843
      7          8           0        0.822479   -0.903395   -1.531393
      8          6           0        1.226870    1.338967   -0.783312
      9          7           0        0.642161    1.673948    0.518221
     10          6           0        0.342440    3.101169    0.621589
     11          6           0       -0.458107    0.791877    0.894431
     12          6           0       -1.600879    0.670973   -0.127255
     13          8           0       -1.943857    1.630875   -0.792822
     14          6           0       -2.243028   -0.703537   -0.273783
     15          6           0       -3.486995   -0.670595   -1.170760
     16          6           0       -4.630851   -0.366045   -0.175049
     17          8           0       -4.084084   -0.484261    1.148970
     18          6           0       -2.852624   -1.182131    1.054750
     19          1           0        2.302179   -2.490926    1.812886
     20          1           0        2.359226   -3.911962    0.751921
     21          1           0        1.034418   -2.741509    0.590563
     22          1           0        3.983533   -2.188248   -0.075692
     23          1           0        2.669762   -2.403237   -1.243339
     24          1           0        2.859300    1.039131    1.061136
     25          1           0        3.722932   -0.398460    1.567009
     26          1           0        4.493581    1.332567   -0.860468
     27          1           0        5.350457    1.280473    0.693513
     28          1           0        5.338249   -0.142117   -0.365263
     29          1           0        2.128929    1.948108   -0.911689
     30          1           0        0.550340    1.553117   -1.621909
     31          1           0       -0.374485    3.452277   -0.131914
     32          1           0       -0.067426    3.308194    1.615787
     33          1           0        1.276662    3.665602    0.516199
     34          1           0       -0.056465   -0.204575    1.109838
     35          1           0       -0.888482    1.163994    1.833020
     36          1           0       -1.459455   -1.375930   -0.641639
     37          1           0       -3.630141   -1.642493   -1.652128
     38          1           0       -3.395018    0.094049   -1.943820
     39          1           0       -5.012572    0.654248   -0.276566
     40          1           0       -5.469233   -1.065687   -0.294350
     41          1           0       -3.004890   -2.274087    1.026564
     42          1           0       -2.265687   -0.943895    1.946766
 ---------------------------------------------------------------------

 SCF Done:  E(UB3LYP) =  -845.302646187     A.U. after   33 cycles
 SCF Done:  E(UB3LYP) =  -845.302646188     a.u. after    1 cycles

 The electronic state is 2-A.
 Alpha  occ. eigenvalues --  -19.03323 -19.00860 -18.99086 -14.24674 -14.22445
 Alpha  occ. eigenvalues --  -10.17394 -10.14923 -10.12709 -10.12627 -10.10942
 Alpha  occ. eigenvalues --  -10.10862 -10.10734 -10.10609 -10.09778 -10.08356
 Alpha  occ. eigenvalues --  -10.07755 -10.06986 -10.06482  -0.95241  -0.94396
 Alpha  occ. eigenvalues --   -0.94101  -0.84390  -0.83492  -0.70469  -0.67956
 Alpha  occ. eigenvalues --   -0.66160  -0.65650  -0.63521  -0.62633  -0.55410
 Alpha  occ. eigenvalues --   -0.54860  -0.54135  -0.51387  -0.50123  -0.44607
 Alpha  occ. eigenvalues --   -0.43663  -0.41570  -0.41396  -0.40882  -0.40194
 Alpha  occ. eigenvalues --   -0.39136  -0.37573  -0.36245  -0.35681  -0.35104
 Alpha  occ. eigenvalues --   -0.33866  -0.33675  -0.33029  -0.32406  -0.31844
 Alpha  occ. eigenvalues --   -0.31396  -0.30605  -0.29938  -0.29299  -0.28878
 Alpha  occ. eigenvalues --   -0.28375  -0.27517  -0.27163  -0.26628  -0.26083
 Alpha  occ. eigenvalues --   -0.25769  -0.25668  -0.25216  -0.25006  -0.23194
 Alpha  occ. eigenvalues --   -0.17694  -0.16635  -0.16187  -0.14992  -0.11990
 Alpha  occ. eigenvalues --    0.04038
 Alpha virt. eigenvalues --    0.05502   0.06576   0.06728   0.07442   0.08148
 Alpha virt. eigenvalues --    0.08639   0.09028   0.09397   0.09593   0.10040
 Alpha virt. eigenvalues --    0.10313   0.10468   0.11129   0.11486   0.11707

  Beta  occ. eigenvalues --  -19.03319 -19.00744 -18.99082 -14.24675 -14.22434
  Beta  occ. eigenvalues --  -10.17393 -10.14779 -10.12671 -10.12624 -10.10923
  Beta  occ. eigenvalues --  -10.10865 -10.10725 -10.10591 -10.09771 -10.08368
  Beta  occ. eigenvalues --  -10.07748 -10.06943 -10.06447  -0.95194  -0.94341
  Beta  occ. eigenvalues --   -0.93955  -0.84376  -0.83466  -0.70398  -0.67919
  Beta  occ. eigenvalues --   -0.66115  -0.65613  -0.63473  -0.62605  -0.55327
  Beta  occ. eigenvalues --   -0.54778  -0.54031  -0.51337  -0.50093  -0.44524
  Beta  occ. eigenvalues --   -0.43598  -0.41515  -0.41316  -0.40797  -0.40155
  Beta  occ. eigenvalues --   -0.39111  -0.37528  -0.36189  -0.35617  -0.35053
  Beta  occ. eigenvalues --   -0.33831  -0.33625  -0.32988  -0.32324  -0.31772
  Beta  occ. eigenvalues --   -0.31300  -0.30543  -0.29900  -0.29261  -0.28831
  Beta  occ. eigenvalues --   -0.28321  -0.27387  -0.27105  -0.26559  -0.26048
  Beta  occ. eigenvalues --   -0.25720  -0.25617  -0.25057  -0.24872  -0.23100
  Beta  occ. eigenvalues --   -0.17641  -0.16594  -0.16174  -0.14981  -0.11934
  Beta virt. eigenvalues --    0.06214   0.06463   0.07086   0.07494   0.07782
  Beta virt. eigenvalues --    0.08616   0.09129   0.09239   0.09523   0.09667
  Beta virt. eigenvalues --    0.10272   0.10589   0.10748   0.11316   0.11663

 Mulliken charges and spin densities:
               1          2
     1  C    0.721033  -1.188363
     2  C   -0.346178   0.278481
     3  N    0.245693   0.027078
     4  C   -0.883273   0.626000
     5  C    1.485310  -1.951698
     6  C   -0.950339   0.320467
     7  O   -0.203502   0.000858
     8  C    0.564855  -0.816371
     9  N    0.292132   0.057373
    10  C   -0.021510  -0.243508
    11  C   -0.688423  -0.214798
    12  C   -0.325418   0.097457
    13  O   -0.232168   0.038548
    14  C    0.391198   0.168802
    15  C   -0.402432  -0.005618
    16  C   -0.137867  -0.149531
    17  O   -0.115129   0.012792
    18  C   -0.146353  -0.465209
    19  H   -0.051487   0.179251
    20  H   -0.357806   0.505830
    21  H   -0.003515   0.181061
    22  H   -0.311731   0.474566
    23  H    0.108405   0.058985
    24  H    0.238605  -0.035506
    25  H   -0.444003   0.613027
    26  H   -0.266988   0.400224
    27  H   -0.444955   0.593197
    28  H   -0.119361   0.266965
    29  H    0.180699  -0.044397
    30  H    0.203355   0.017063
    31  H    0.159165   0.005330
    32  H    0.079114   0.039694
    33  H   -0.050029   0.195155
    34  H    0.229279   0.044648
    35  H    0.230400  -0.008641
    36  H    0.202506   0.108561
    37  H    0.029382   0.139471
    38  H    0.142428   0.038195
    39  H    0.158971   0.002250
    40  H    0.068457   0.069478
    41  H   -0.261141   0.427746
    42  H    0.032621   0.135088
 Sum of Mulliken charges =  -1.00000   1.00000

 Dipole moment (field-independent basis, Debye):
    X=             -5.6120    Y=              2.8992    Z=             -1.1415  Tot=              6.4190
 Quadrupole moment (field-independent basis, Debye-Ang):
   XX=           -206.5558   YY=           -161.4153   ZZ=           -143.7191
   XY=              0.7326   XZ=             -5.2483   YZ=              4.7324

 Summary of Natural Population Analysis:

                                       Natural Population
                Natural  -----------------------------------------------
    Atom  No    Charge         Core      Valence    Rydberg      Total
 -----------------------------------------------------------------------
      C    1   -0.28999      0.99966     2.28548    0.00485     3.28999
      C    2   -0.08596      0.99961     2.07526    0.01109     3.08596
      N    3   -0.25202      0.99963     2.73974    0.01266     3.75202
      C    4   -0.09106      0.99960     2.08034    0.01112     3.09106
      C    5   -0.28884      0.99966     2.28433    0.00485     3.28884
      C    6    0.34172      0.99963     1.63629    0.02236     2.65828
      O    7   -0.33339      0.99988     3.32795    0.00556     4.33339
      C    8   -0.12783      0.99958     2.11819    0.01006     3.12783
      N    9   -0.27641      0.99973     2.76548    0.01119     3.77641
      C   10   -0.17730      0.99964     2.16941    0.00825     3.17730
      C   11   -0.13385      0.99956     2.12339    0.01090     3.13385
      C   12    0.31625      0.99965     1.66022    0.02388     2.68375
      O   13   -0.28731      0.99987     3.28129    0.00615     4.28731
      C   14   -0.17656      0.99954     2.16664    0.01038     3.17656
      C   15   -0.20837      0.99963     2.19950    0.00923     3.20837
      C   16   -0.01275      0.99961     2.00118    0.01196     3.01275
      O   17   -0.30283      0.99990     3.29490    0.00804     4.30283
      C   18   -0.00661      0.99958     1.99303    0.01400     3.00661
      H   19    0.09713      0.00000     0.40154    0.00132     0.40287
      H   20    0.10045      0.00000     0.39840    0.00115     0.39955
      H   21    0.10320      0.00000     0.39524    0.00156     0.39680
      H   22    0.09565      0.00000     0.40300    0.00135     0.40435
      H   23    0.10649      0.00000     0.39236    0.00115     0.39351
      H   24    0.11014      0.00000     0.38767    0.00220     0.38986
      H   25    0.09768      0.00000     0.40063    0.00169     0.40232
      H   26    0.09620      0.00000     0.40268    0.00112     0.40380
      H   27    0.10289      0.00000     0.39544    0.00167     0.39711
      H   28    0.09940      0.00000     0.39919    0.00141     0.40060
      H   29    0.10164      0.00000     0.39697    0.00140     0.39836
      H   30    0.10269      0.00000     0.39555    0.00176     0.39731
      H   31    0.09600      0.00000     0.40292    0.00108     0.40400
      H   32    0.09258      0.00000     0.40669    0.00072     0.40742
      H   33    0.09166      0.00000     0.40747    0.00087     0.40834
      H   34    0.10373      0.00000     0.39466    0.00161     0.39627
      H   35    0.10853      0.00000     0.39045    0.00102     0.39147
      H   36    0.13241      0.00000     0.36599    0.00160     0.36759
      H   37    0.09986      0.00000     0.39918    0.00096     0.40014
      H   38    0.11521      0.00000     0.38377    0.00102     0.38479
      H   39    0.08752      0.00000     0.41146    0.00102     0.41248
      H   40    0.07878      0.00000     0.42008    0.00114     0.42122
      H   41    0.08163      0.00000     0.41674    0.00163     0.41837
      H   42    0.09164      0.00000     0.40703    0.00133     0.40836
 =======================================================================
   * Total *   -0.00000     17.99396    51.77771    0.22832    70.00000

 Normal termination of Gaussian 16 at Fri Dec 11 21:15:25 2020.
