 Gaussian 16, Revision A.03,

 -----------------------------------------------------------
 # opt freq B3LYP/6-31G(d) empiricaldispersion=gd3bj scf=xqc
 -----------------------------------------------------------

 ------------------------------
 CID_57207295_JID_1279_neutraal
 ------------------------------
 Symbolic Z-matrix:
 Charge =  0 Multiplicity = 1

 SCF Done:  E(RB3LYP) =  -464.725823749     A.U. after   14 cycles
 SCF Done:  E(RB3LYP) =  -464.728382727     A.U. after   11 cycles
 SCF Done:  E(RB3LYP) =  -464.728850085     A.U. after   11 cycles
 SCF Done:  E(RB3LYP) =  -464.729086265     A.U. after   11 cycles
 SCF Done:  E(RB3LYP) =  -464.729258300     A.U. after   10 cycles
 SCF Done:  E(RB3LYP) =  -464.729463382     A.U. after   10 cycles
 SCF Done:  E(RB3LYP) =  -464.729513835     A.U. after   10 cycles
 SCF Done:  E(RB3LYP) =  -464.729590973     A.U. after   11 cycles
 SCF Done:  E(RB3LYP) =  -464.729595411     A.U. after   10 cycles
 SCF Done:  E(RB3LYP) =  -464.729607436     A.U. after   10 cycles
 SCF Done:  E(RB3LYP) =  -464.729607604     A.U. after    7 cycles
 SCF Done:  E(RB3LYP) =  -464.729607606     A.U. after    7 cycles
 SCF Done:  E(RB3LYP) =  -464.729607635     A.U. after    6 cycles
 Optimization completed.
    -- Stationary point found.
 Normal termination of Gaussian 16 at Tue Dec  8 19:36:55 2020.

 --------------------------------------------------------------------
 #N Geom=AllCheck Guess=TCheck SCRF=Check GenChk RB3LYP/6-31G(d) Freq
 --------------------------------------------------------------------

 Structure from the checkpoint file:  "JID_1279.chk"
 ------------------------------
 CID_57207295_JID_1279_neutraal
 ------------------------------
 Charge =  0 Multiplicity = 1

 SCF Done:  E(RB3LYP) =  -464.729607635     A.U. after    1 cycles

  Exact polarizability: 136.665   0.814 104.418  -6.045   3.107  72.022
 Approx polarizability: 216.638   5.963 143.361 -20.412   4.013 113.667

                      1                      2                      3
                      A                      A                      A
 Frequencies --     85.7756               113.9695               150.8528
 Red. masses --      2.0820                 2.5178                 3.4462
 Frc consts  --      0.0090                 0.0193                 0.0462
 IR Inten    --      0.1086                 0.2408                 1.1767

                      4                      5                      6
                      A                      A                      A
 Frequencies --    212.3556               236.6245               259.5457
 Red. masses --      2.8481                 2.4198                 1.1292
 Frc consts  --      0.0757                 0.0798                 0.0448
 IR Inten    --      1.5470                 2.2739                 0.0943

                      7                      8                      9
                      A                      A                      A
 Frequencies --    324.2886               393.9649               417.8586
 Red. masses --      2.4106                 2.8643                 3.2497
 Frc consts  --      0.1494                 0.2619                 0.3343
 IR Inten    --      1.7456                 0.7478                 5.7160

                     10                     11                     12
                      A                      A                      A
 Frequencies --    433.4175               480.4064               504.4597
 Red. masses --      4.7246                 3.3376                 5.1590
 Frc consts  --      0.5229                 0.4538                 0.7735
 IR Inten    --      1.4464                 5.4266                 0.1690

                     13                     14                     15
                      A                      A                      A
 Frequencies --    586.1918               644.2319               666.0403
 Red. masses --      3.1704                 2.4063                 2.6442
 Frc consts  --      0.6419                 0.5884                 0.6911
 IR Inten    --      2.8561                 3.4217                 2.5777

                     16                     17                     18
                      A                      A                      A
 Frequencies --    718.4960               775.8354               805.9164
 Red. masses --      3.8253                 1.3258                 1.6823
 Frc consts  --      1.1635                 0.4702                 0.6438
 IR Inten    --      0.7957                 8.9140                 2.5372

                     19                     20                     21
                      A                      A                      A
 Frequencies --    841.3664               843.9878               868.2696
 Red. masses --      1.9024                 1.9921                 2.4250
 Frc consts  --      0.7934                 0.8360                 1.0771
 IR Inten    --     40.7532                 9.3325                 6.8023

                     22                     23                     24
                      A                      A                      A
 Frequencies --    895.7907               924.9389               934.9891
 Red. masses --      3.2602                 1.6638                 1.3865
 Frc consts  --      1.5414                 0.8386                 0.7141
 IR Inten    --     10.1549                 1.9827                 2.2709

                     25                     26                     27
                      A                      A                      A
 Frequencies --    982.4595              1009.7630              1034.1540
 Red. masses --      2.1721                 1.9109                 1.7819
 Frc consts  --      1.2353                 1.1479                 1.1228
 IR Inten    --      1.2110                 2.3978                 4.1819

                     28                     29                     30
                      A                      A                      A
 Frequencies --   1053.3400              1078.5132              1088.5587
 Red. masses --      2.3961                 2.8360                 2.6063
 Frc consts  --      1.5664                 1.9436                 1.8196
 IR Inten    --      3.1115                17.9763                63.6320

                     31                     32                     33
                      A                      A                      A
 Frequencies --   1103.0642              1158.1936              1189.7598
 Red. masses --      2.0221                 1.8572                 1.4829
 Frc consts  --      1.4496                 1.4678                 1.2368
 IR Inten    --      7.6861                 3.8195                 6.9278

                     34                     35                     36
                      A                      A                      A
 Frequencies --   1204.4776              1213.1379              1270.0690
 Red. masses --      1.5622                 1.8236                 1.4020
 Frc consts  --      1.3354                 1.5812                 1.3325
 IR Inten    --      2.7545                 9.0785                53.5627

                     37                     38                     39
                      A                      A                      A
 Frequencies --   1278.1213              1282.6185              1319.1288
 Red. masses --      1.4566                 1.3392                 1.2512
 Frc consts  --      1.4020                 1.2980                 1.2828
 IR Inten    --     56.7594                 7.3165                 9.0294

                     40                     41                     42
                      A                      A                      A
 Frequencies --   1323.8027              1360.9252              1364.7647
 Red. masses --      1.2473                 1.2671                 1.5284
 Frc consts  --      1.2878                 1.3827                 1.6773
 IR Inten    --      1.2544                 3.3340                 6.0913

                     43                     44                     45
                      A                      A                      A
 Frequencies --   1387.5432              1390.3705              1404.5123
 Red. masses --      1.3933                 1.5168                 1.5683
 Frc consts  --      1.5804                 1.7276                 1.8228
 IR Inten    --      0.2873                 4.8967                 2.1505

                     46                     47                     48
                      A                      A                      A
 Frequencies --   1416.1109              1442.8888              1447.0242
 Red. masses --      1.3385                 1.3965                 1.6923
 Frc consts  --      1.5815                 1.7130                 2.0878
 IR Inten    --      7.1918                15.9104                 5.8302

                     49                     50                     51
                      A                      A                      A
 Frequencies --   1514.6522              1515.6014              1521.2087
 Red. masses --      1.0481                 1.0802                 1.0897
 Frc consts  --      1.4167                 1.4619                 1.4858
 IR Inten    --      4.7195                 1.0455                 1.1317

                     52                     53                     54
                      A                      A                      A
 Frequencies --   1532.5003              1542.3643              1674.0658
 Red. masses --      1.0583                 1.0869                 6.2528
 Frc consts  --      1.4645                 1.5234                10.3245
 IR Inten    --      4.5331                 0.3371                56.7827

                     55                     56                     57
                      A                      A                      A
 Frequencies --   1712.7826              2993.5993              2995.8923
 Red. masses --      7.1917                 1.0809                 1.0744
 Frc consts  --     12.4304                 5.7070                 5.6816
 IR Inten    --     39.5808                21.4126                27.6691

                     58                     59                     60
                      A                      A                      A
 Frequencies --   3013.5876              3049.7642              3063.0294
 Red. masses --      1.0851                 1.0604                 1.0500
 Frc consts  --      5.8062                 5.8111                 5.8045
 IR Inten    --     55.9098                36.1824                16.8765

                     61                     62                     63
                      A                      A                      A
 Frequencies --   3065.9989              3084.7045              3095.8942
 Red. masses --      1.0471                 1.1019                 1.0918
 Frc consts  --      5.7992                 6.1778                 6.1652
 IR Inten    --     44.8537                10.8086                38.3994

                     64                     65                     66
                      A                      A                      A
 Frequencies --   3109.2218              3135.1798              3143.8616
 Red. masses --      1.1051                 1.1021                 1.1031
 Frc consts  --      6.2946                 6.3825                 6.4236
 IR Inten    --     60.4336                19.7689                23.9425

                     67                     68                     69
                      A                      A                      A
 Frequencies --   3176.8214              3198.5599              3219.7822
 Red. masses --      1.0911                 1.0860                 1.0990
 Frc consts  --      6.4876                 6.5463                 6.7128
 IR Inten    --     24.3820                 1.8775                31.6849

 - Thermochemistry -
 -------------------
 Temperature   298.150 Kelvin.  Pressure   1.00000 Atm.
 Atom     1 has atomic number  6 and mass  12.00000

 Molecular mass:   150.10447 amu.
 Principal axes and moments of inertia in atomic units:
                           1         2         3
     Eigenvalues --  1005.073441792.138672503.15757
           X            0.99983   0.01667   0.00761
           Y           -0.01670   0.99985   0.00470
           Z           -0.00753  -0.00483   0.99996
 This molecule is an asymmetric top.
 Rotational symmetry number  1.
 Warning -- assumption of classical behavior for rotation
           may cause significant error
 Rotational temperatures (Kelvin)      0.08618     0.04833     0.03460
 Rotational constants (GHZ):           1.79563     1.00703     0.72099
 Zero-point vibrational energy     581875.3 (Joules/Mol)
                                  139.07153 (Kcal/Mol)
 Warning -- explicit consideration of  13 degrees of freedom as
           vibrations may cause significant error
 Vibrational temperatures:    123.41   163.98   217.04   305.53   340.45
          (Kelvin)            373.43   466.58   566.83   601.21   623.59
                              691.20   725.80   843.40   926.91   958.28
                             1033.76  1116.25  1159.53  1210.54  1214.31
                             1249.25  1288.84  1330.78  1345.24  1413.54
                             1452.82  1487.92  1515.52  1551.74  1566.19
                             1587.06  1666.38  1711.80  1732.97  1745.43
                             1827.35  1838.93  1845.40  1897.93  1904.66
                             1958.07  1963.59  1996.37  2000.43  2020.78
                             2037.47  2076.00  2081.95  2179.25  2180.61
                             2188.68  2204.93  2219.12  2408.61  2464.31
                             4307.12  4310.42  4335.88  4387.93  4407.02
                             4411.29  4438.20  4454.30  4473.48  4510.82
                             4523.32  4570.74  4602.01  4632.55

 Zero-point correction=                           0.221625 (Hartree/Particle)
 Thermal correction to Energy=                    0.231300
 Thermal correction to Enthalpy=                  0.232244
 Thermal correction to Gibbs Free Energy=         0.187009
 Sum of electronic and zero-point Energies=           -464.507983
 Sum of electronic and thermal Energies=              -464.498308
 Sum of electronic and thermal Enthalpies=            -464.497363
 Sum of electronic and thermal Free Energies=         -464.542598

                     E (Thermal)             CV                S
                      KCal/Mol        Cal/Mol-Kelvin    Cal/Mol-Kelvin
 Total                  145.143             38.904             95.205
 Electronic               0.000              0.000              0.000
 Translational            0.889              2.981             40.929
 Rotational               0.889              2.981             29.890
 Vibrational            143.366             32.943             24.386
 Vibration     1          0.601              1.959              3.754
 Vibration     2          0.607              1.938              3.200
 Vibration     3          0.618              1.902              2.661
 Vibration     4          0.643              1.822              2.023
 Vibration     5          0.656              1.785              1.828
 Vibration     6          0.668              1.747              1.665
 Vibration     7          0.709              1.627              1.288
 Vibration     8          0.761              1.483              0.985
 Vibration     9          0.781              1.431              0.899
 Vibration    10          0.794              1.397              0.848
 Vibration    11          0.837              1.294              0.709
 Vibration    12          0.860              1.240              0.647
 Vibration    13          0.943              1.061              0.474

 Optimization completed.
    -- Stationary point found.
 Normal termination of Gaussian 16 at Tue Dec  8 19:42:10 2020.

 ----------------------------------------------------------------------
 # B3LYP/6-311++G(d,p) empiricaldispersion=gd3bj scf=xqc pop=npa geom=c
 heck
 ----------------------------------------------------------------------

 --------------------------------------
 CID_57207295_JID_1279_Energie_neutraal
 --------------------------------------
 Structure from the checkpoint file:  "JID_1279.chk"
 Charge =  0 Multiplicity = 1

 SCF Done:  E(RB3LYP) =  -464.855810437     A.U. after   15 cycles
 Normal termination of Gaussian 16 at Tue Dec  8 19:44:16 2020.

 ----------------------------------------------------------------------
 # B3LYP/6-311++G(d,p) empiricaldispersion=gd3bj scf=xqc pop=npa geom=c
 heck
 ----------------------------------------------------------------------

 ------------------------------------
 CID_57207295_JID_1279_Energie_kation
 ------------------------------------
 Structure from the checkpoint file:  "JID_1279.chk"
 Charge =  1 Multiplicity = 2

 SCF Done:  E(UB3LYP) =  -464.581823526     A.U. after   18 cycles
 Normal termination of Gaussian 16 at Tue Dec  8 19:48:03 2020.
 Gaussian 16:  ES64L-G16RevA.03 25-Dec-2016

 ----------------------------------------------------------------------
 # B3LYP/6-311++G(d,p) empiricaldispersion=gd3bj scf=xqc pop=npa geom=c
 heck
 ----------------------------------------------------------------------

 -----------------------------------
 CID_57207295_JID_1279_Energie_anion
 -----------------------------------
 Structure from the checkpoint file:  "JID_1279.chk"
 Charge = -1 Multiplicity = 2

                         Standard orientation:
 ---------------------------------------------------------------------
 Center     Atomic      Atomic             Coordinates (Angstroms)
 Number     Number       Type             X           Y           Z
 ---------------------------------------------------------------------
      1          6           0       -2.084907   -1.911209   -0.327254
      2          6           0       -1.505825   -0.520011   -0.512250
      3          6           0        0.028079   -0.436321   -0.437186
      4          6           0        0.724433   -1.275269    0.657163
      5          6           0        2.265841   -1.063557    0.634643
      6          6           0        2.720326    0.006410   -0.396555
      7          6           0        1.821521    1.209541   -0.315660
      8          6           0        0.491092    1.003057   -0.302249
      9          6           0       -0.512854    1.999116    0.026065
     10          6           0       -1.734009    1.619091    0.443316
     11          8           0       -2.165922    0.329249    0.452617
     12          1           0       -1.645232   -2.605680   -1.051070
     13          1           0       -3.168287   -1.891072   -0.476902
     14          1           0       -1.884851   -2.285775    0.680633
     15          1           0       -1.791284   -0.128162   -1.500094
     16          1           0        0.380758   -0.823629   -1.405746
     17          1           0        0.314419   -0.983608    1.630287
     18          1           0        0.489170   -2.335790    0.517975
     19          1           0        2.602455   -0.745492    1.626905
     20          1           0        2.775849   -2.009801    0.419048
     21          1           0        3.766677    0.274970   -0.219257
     22          1           0        2.684289   -0.436475   -1.404835
     23          1           0        2.241614    2.201464   -0.164686
     24          1           0       -0.238547    3.048402    0.071008
     25          1           0       -2.481828    2.301560    0.835613
 ---------------------------------------------------------------------

 SCF Done:  E(UB3LYP) =  -464.833555158     A.U. after   33 cycles
 SCF Done:  E(UB3LYP) =  -464.837403079     a.u. after    9 cycles

 The electronic state is 2-A.
 Alpha  occ. eigenvalues --  -19.04522 -10.12365 -10.11979 -10.07237 -10.06869
 Alpha  occ. eigenvalues --  -10.06286 -10.06216 -10.06137 -10.06112 -10.05642
 Alpha  occ. eigenvalues --  -10.05426  -0.96153  -0.74340  -0.69187  -0.66748
 Alpha  occ. eigenvalues --   -0.62808  -0.60149  -0.54214  -0.52926  -0.47971
 Alpha  occ. eigenvalues --   -0.45356  -0.40935  -0.39799  -0.38816  -0.36535
 Alpha  occ. eigenvalues --   -0.34922  -0.33236  -0.30975  -0.29969  -0.29341
 Alpha  occ. eigenvalues --   -0.28730  -0.28134  -0.27110  -0.25582  -0.24663
 Alpha  occ. eigenvalues --   -0.24107  -0.21721  -0.20249  -0.19946  -0.17539
 Alpha  occ. eigenvalues --   -0.09939   0.04874
 Alpha virt. eigenvalues --    0.06967   0.07046   0.08085   0.08708   0.08999
 Alpha virt. eigenvalues --    0.09295   0.10298   0.10823   0.11258   0.12066
 Alpha virt. eigenvalues --    0.12171   0.13659   0.14078   0.14716   0.14918

  Beta  occ. eigenvalues --  -19.04520 -10.12352 -10.11971 -10.07220 -10.06878
  Beta  occ. eigenvalues --  -10.06263 -10.06196 -10.06122 -10.06095 -10.05602
  Beta  occ. eigenvalues --  -10.05391  -0.96146  -0.74308  -0.69154  -0.66710
  Beta  occ. eigenvalues --   -0.62758  -0.60098  -0.54156  -0.52887  -0.47915
  Beta  occ. eigenvalues --   -0.45295  -0.40895  -0.39764  -0.38764  -0.36497
  Beta  occ. eigenvalues --   -0.34875  -0.33189  -0.30931  -0.29939  -0.29306
  Beta  occ. eigenvalues --   -0.28685  -0.28091  -0.27073  -0.25543  -0.24627
  Beta  occ. eigenvalues --   -0.24073  -0.21683  -0.20217  -0.19916  -0.17500
  Beta  occ. eigenvalues --   -0.09866
  Beta virt. eigenvalues --    0.07141   0.07640   0.08064   0.08474   0.09054
  Beta virt. eigenvalues --    0.09666   0.10054   0.10600   0.11167   0.12112
  Beta virt. eigenvalues --    0.12572   0.12702   0.13939   0.14382   0.14699

 Mulliken charges and spin densities:
               1          2
     1  C    1.676218  -2.207644
     2  C   -1.003846   0.441376
     3  C   -2.002542   2.765366
     4  C    0.499575  -1.203404
     5  C   -0.073126  -0.286004
     6  C    1.083780  -1.614140
     7  C   -0.229372   0.098003
     8  C    1.219693  -1.089438
     9  C    0.713812  -0.679887
    10  C    0.270657  -0.598445
    11  O   -0.045613   0.010889
    12  H   -0.598412   0.760312
    13  H   -0.404651   0.566732
    14  H   -0.080542   0.250147
    15  H   -0.177529   0.363900
    16  H   -0.053748   0.290344
    17  H   -0.023278   0.192111
    18  H    0.144798  -0.024287
    19  H    0.139376  -0.027043
    20  H   -0.419207   0.566147
    21  H   -0.490351   0.674763
    22  H    0.052646   0.076033
    23  H   -0.458498   0.617839
    24  H   -0.467777   0.620234
    25  H   -0.272064   0.436097
 Sum of Mulliken charges =  -1.00000   1.00000

 Dipole moment (field-independent basis, Debye):
    X=             -0.4917    Y=              1.3396    Z=              2.3323  Tot=              2.7343
 Quadrupole moment (field-independent basis, Debye-Ang):
   XX=           -126.6413   YY=           -118.6294   ZZ=            -97.0599
   XY=             -5.3829   XZ=             -0.9466   YZ=             -4.8434

 Summary of Natural Population Analysis:

                                       Natural Population
                Natural  -----------------------------------------------
    Atom  No    Charge         Core      Valence    Rydberg      Total
 -----------------------------------------------------------------------
      C    1   -0.29157      0.99964     2.28514    0.00678     3.29157
      C    2    0.07234      0.99952     1.91354    0.01459     2.92766
      C    3   -0.13081      0.99953     2.11928    0.01200     3.13081
      C    4   -0.18953      0.99961     2.18117    0.00875     3.18953
      C    5   -0.18284      0.99963     2.17521    0.00799     3.18284
      C    6   -0.20952      0.99963     2.20103    0.00886     3.20952
      C    7   -0.08316      0.99947     2.07343    0.01026     3.08316
      C    8   -0.02447      0.99946     2.01286    0.01215     3.02447
      C    9   -0.15755      0.99949     2.14772    0.01034     3.15755
      C   10    0.09192      0.99946     1.89398    0.01464     2.90808
      O   11   -0.28520      0.99987     3.27516    0.01017     4.28520
      H   12    0.10602      0.00000     0.39203    0.00196     0.39398
      H   13    0.10432      0.00000     0.39421    0.00147     0.39568
      H   14    0.10134      0.00000     0.39737    0.00129     0.39866
      H   15    0.08529      0.00000     0.41258    0.00213     0.41471
      H   16    0.10852      0.00000     0.38928    0.00220     0.39148
      H   17    0.09723      0.00000     0.40134    0.00142     0.40277
      H   18    0.10170      0.00000     0.39691    0.00139     0.39830
      H   19    0.09392      0.00000     0.40490    0.00118     0.40608
      H   20    0.09762      0.00000     0.40110    0.00128     0.40238
      H   21    0.10366      0.00000     0.39476    0.00158     0.39634
      H   22    0.10036      0.00000     0.39811    0.00153     0.39964
      H   23    0.09584      0.00000     0.40284    0.00132     0.40416
      H   24    0.10690      0.00000     0.39178    0.00132     0.39310
      H   25    0.08766      0.00000     0.41125    0.00109     0.41234
 =======================================================================
   * Total *   -0.00000     10.99532    29.86697    0.13771    41.00000

 Normal termination of Gaussian 16 at Tue Dec  8 20:19:42 2020.
