 Gaussian 16, Revision A.03,

 ----------------------------------------------------------------------
 # opt=(cartesian,calcfc) freq B3LYP/6-31G(d) empiricaldispersion=gd3bj
  scf=xqc
 ----------------------------------------------------------------------

 -------------------------------
 CID_104882207_JID_6925_neutraal
 -------------------------------
 Symbolic Z-matrix:
 Charge =  0 Multiplicity = 1

 SCF Done:  E(RB3LYP) =  -742.669378732     A.U. after   14 cycles
 SCF Done:  E(RB3LYP) =  -742.670323708     A.U. after   10 cycles
 SCF Done:  E(RB3LYP) =  -742.670331839     A.U. after   10 cycles
 SCF Done:  E(RB3LYP) =  -742.670335183     A.U. after   10 cycles
 SCF Done:  E(RB3LYP) =  -742.670325218     A.U. after   11 cycles
 SCF Done:  E(RB3LYP) =  -742.670357019     A.U. after    9 cycles
 SCF Done:  E(RB3LYP) =  -742.670377699     A.U. after   10 cycles
 SCF Done:  E(RB3LYP) =  -742.670407646     A.U. after   10 cycles
 SCF Done:  E(RB3LYP) =  -742.670398333     A.U. after   10 cycles
 SCF Done:  E(RB3LYP) =  -742.670424552     A.U. after    9 cycles
 SCF Done:  E(RB3LYP) =  -742.670831825     A.U. after    2 cycles
 SCF Done:  E(RB3LYP) =  -742.670831857     A.U. after    7 cycles
 SCF Done:  E(RB3LYP) =  -742.670831880     A.U. after    7 cycles
 SCF Done:  E(RB3LYP) =  -742.670831862     A.U. after    7 cycles
 SCF Done:  E(RB3LYP) =  -742.670831896     A.U. after    7 cycles
 SCF Done:  E(RB3LYP) =  -742.670831905     A.U. after    6 cycles
 Optimization completed.
    -- Stationary point found.
 Normal termination of Gaussian 16 at Mon Jan  4 10:29:59 2021.

 --------------------------------------------------------------------
 #N Geom=AllCheck Guess=TCheck SCRF=Check GenChk RB3LYP/6-31G(d) Freq
 --------------------------------------------------------------------

 Structure from the checkpoint file:  "JID_6925.chk"
 -------------------------------
 CID_104882207_JID_6925_neutraal
 -------------------------------
 Charge =  0 Multiplicity = 1

 SCF Done:  E(RB3LYP) =  -742.670831905     A.U. after    1 cycles

  Exact polarizability: 144.124  -4.858 144.414   4.131   1.272 122.279
 Approx polarizability: 184.146  -1.210 212.136   9.018   6.537 191.346

                      1                      2                      3
                      A                      A                      A
 Frequencies --     36.4619                56.8304                78.2487
 Red. masses --      4.5415                 4.1512                 3.6077
 Frc consts  --      0.0036                 0.0079                 0.0130
 IR Inten    --      0.2902                 0.0334                 0.4639

                      4                      5                      6
                      A                      A                      A
 Frequencies --     93.3115               122.1957               136.6461
 Red. masses --      3.7816                 1.9487                 2.1948
 Frc consts  --      0.0194                 0.0171                 0.0241
 IR Inten    --      0.8079                 3.5084                 1.3760

                      7                      8                      9
                      A                      A                      A
 Frequencies --    177.3684               190.8689               218.3930
 Red. masses --      1.6286                 2.9331                 2.9422
 Frc consts  --      0.0302                 0.0630                 0.0827
 IR Inten    --      2.9801                 0.4732                 2.3764

                     10                     11                     12
                      A                      A                      A
 Frequencies --    238.1849               256.2235               262.1092
 Red. masses --      2.6936                 1.5989                 2.6254
 Frc consts  --      0.0900                 0.0618                 0.1063
 IR Inten    --     10.3730                16.1610                 8.6492

                     13                     14                     15
                      A                      A                      A
 Frequencies --    283.9216               299.5641               344.7565
 Red. masses --      2.6205                 2.3432                 2.8318
 Frc consts  --      0.1245                 0.1239                 0.1983
 IR Inten    --      3.2381                 1.6690                 1.8759

                     16                     17                     18
                      A                      A                      A
 Frequencies --    364.0127               380.8616               391.4595
 Red. masses --      2.0030                 2.6152                 2.3786
 Frc consts  --      0.1564                 0.2235                 0.2148
 IR Inten    --      6.1325                 0.4024                 1.9694

                     19                     20                     21
                      A                      A                      A
 Frequencies --    459.3210               492.6488               500.7348
 Red. masses --      3.2328                 3.0388                 2.4079
 Frc consts  --      0.4019                 0.4345                 0.3557
 IR Inten    --      0.7446                 2.4863                 1.4853

                     22                     23                     24
                      A                      A                      A
 Frequencies --    536.8573               564.3235               613.2027
 Red. masses --      2.8609                 3.2093                 2.2788
 Frc consts  --      0.4858                 0.6022                 0.5049
 IR Inten    --     28.6970                32.1895                26.4646

                     25                     26                     27
                      A                      A                      A
 Frequencies --    625.2834               681.5131               715.6923
 Red. masses --      2.0641                 2.3814                 3.2220
 Frc consts  --      0.4755                 0.6517                 0.9724
 IR Inten    --     19.6967                33.2915                30.0363

                     28                     29                     30
                      A                      A                      A
 Frequencies --    736.9358               755.3498               794.4133
 Red. masses --      2.6410                 4.5511                 3.3026
 Frc consts  --      0.8450                 1.5299                 1.2280
 IR Inten    --      2.7432                27.7138                 3.4580

                     31                     32                     33
                      A                      A                      A
 Frequencies --    851.5147               852.8614               878.5120
 Red. masses --      2.7999                 1.8168                 2.0002
 Frc consts  --      1.1961                 0.7786                 0.9096
 IR Inten    --      2.4683                 0.8972                14.1340

                     34                     35                     36
                      A                      A                      A
 Frequencies --    896.2650               906.5480               948.5927
 Red. masses --      2.7916                 2.4662                 2.0658
 Frc consts  --      1.3212                 1.1942                 1.0952
 IR Inten    --     22.1201                 4.3011                 9.3511

                     37                     38                     39
                      A                      A                      A
 Frequencies --    980.3008               984.9583              1005.7295
 Red. masses --      2.2279                 2.1272                 3.2540
 Frc consts  --      1.2614                 1.2159                 1.9392
 IR Inten    --     33.8998                45.2486               114.0502

                     40                     41                     42
                      A                      A                      A
 Frequencies --   1012.4494              1045.3474              1069.3441
 Red. masses --      2.7103                 2.4644                 2.4296
 Frc consts  --      1.6369                 1.5867                 1.6369
 IR Inten    --     21.4471                17.2063                10.3409

                     43                     44                     45
                      A                      A                      A
 Frequencies --   1074.7007              1104.2793              1109.3574
 Red. masses --      2.9165                 1.8722                 2.1490
 Frc consts  --      1.9847                 1.3451                 1.5582
 IR Inten    --      4.0651                14.2072                23.5660

                     46                     47                     48
                      A                      A                      A
 Frequencies --   1119.0282              1125.7484              1143.2232
 Red. masses --      2.1192                 1.3380                 5.8003
 Frc consts  --      1.5635                 0.9991                 4.4664
 IR Inten    --      8.2265                 1.0053                77.2126

                     49                     50                     51
                      A                      A                      A
 Frequencies --   1155.9904              1174.6575              1188.5277
 Red. masses --      2.8719                 1.5888                 2.3622
 Frc consts  --      2.2612                 1.2917                 1.9660
 IR Inten    --     16.1097                 9.9942                12.1416

                     52                     53                     54
                      A                      A                      A
 Frequencies --   1197.4442              1233.4741              1241.9123
 Red. masses --      2.3713                 1.8330                 1.6048
 Frc consts  --      2.0033                 1.6432                 1.4583
 IR Inten    --     22.7902                17.4409                29.4052

                     55                     56                     57
                      A                      A                      A
 Frequencies --   1250.5806              1261.8905              1293.0052
 Red. masses --      1.1057                 1.3827                 1.4546
 Frc consts  --      1.0188                 1.2972                 1.4328
 IR Inten    --     11.3168                10.1141                12.0203

                     58                     59                     60
                      A                      A                      A
 Frequencies --   1302.2660              1323.6466              1325.3441
 Red. masses --      1.4835                 1.3138                 1.3790
 Frc consts  --      1.4823                 1.3562                 1.4272
 IR Inten    --     78.8936                18.6344                22.5035

                     61                     62                     63
                      A                      A                      A
 Frequencies --   1327.0772              1356.1717              1365.1960
 Red. masses --      1.2164                 1.2559                 1.2068
 Frc consts  --      1.2622                 1.3610                 1.3252
 IR Inten    --      8.2044                 6.1205                16.2471

                     64                     65                     66
                      A                      A                      A
 Frequencies --   1378.3581              1387.7786              1404.7539
 Red. masses --      1.2370                 1.4070                 1.3588
 Frc consts  --      1.3847                 1.5965                 1.5798
 IR Inten    --      0.7162                35.8078                 9.1293

                     67                     68                     69
                      A                      A                      A
 Frequencies --   1408.9314              1423.4505              1425.8088
 Red. masses --      1.3280                 1.5410                 2.5031
 Frc consts  --      1.5532                 1.8396                 2.9981
 IR Inten    --     13.1642                38.1936               129.4513

                     70                     71                     72
                      A                      A                      A
 Frequencies --   1434.6580              1443.3730              1456.9943
 Red. masses --      1.3132                 1.3014                 1.3053
 Frc consts  --      1.5924                 1.5974                 1.6326
 IR Inten    --      8.9795                 7.8810                38.3351

                     73                     74                     75
                      A                      A                      A
 Frequencies --   1491.0279              1495.6607              1504.7980
 Red. masses --      1.1177                 1.0888                 1.0892
 Frc consts  --      1.4640                 1.4350                 1.4532
 IR Inten    --      6.8229                 4.4062                 4.3669

                     76                     77                     78
                      A                      A                      A
 Frequencies --   1509.0817              1513.9990              1525.5516
 Red. masses --      1.1009                 1.0985                 1.0916
 Frc consts  --      1.4772                 1.4835                 1.4968
 IR Inten    --      2.3612                12.2799                 0.2885

                     79                     80                     81
                      A                      A                      A
 Frequencies --   1532.1584              1535.1558              1536.7218
 Red. masses --      1.0779                 1.1082                 1.0956
 Frc consts  --      1.4909                 1.5388                 1.5244
 IR Inten    --      0.8959                 1.3880                 5.3142

                     82                     83                     84
                      A                      A                      A
 Frequencies --   1540.1527              1721.0398              1740.0336
 Red. masses --      1.0500                 6.2032                 1.0592
 Frc consts  --      1.4675                10.8255                 1.8895
 IR Inten    --      3.1914               301.7923                16.0700

                     85                     86                     87
                      A                      A                      A
 Frequencies --   2963.3329              3002.8354              3014.2089
 Red. masses --      1.0477                 1.0692                 1.0957
 Frc consts  --      5.4208                 5.6805                 5.8652
 IR Inten    --     88.9891                38.1832                54.7273

                     88                     89                     90
                      A                      A                      A
 Frequencies --   3015.9433              3019.5144              3035.1333
 Red. masses --      1.0698                 1.0681                 1.0639
 Frc consts  --      5.7335                 5.7377                 5.7741
 IR Inten    --     14.4580                72.0245                57.2405

                     91                     92                     93
                      A                      A                      A
 Frequencies --   3043.1244              3047.2008              3069.0150
 Red. masses --      1.0845                 1.0727                 1.0730
 Frc consts  --      5.9171                 5.8685                 5.9545
 IR Inten    --     15.1963                46.9997                70.2558

                     94                     95                     96
                      A                      A                      A
 Frequencies --   3085.5033              3088.9757              3096.5923
 Red. masses --      1.0884                 1.0796                 1.0972
 Frc consts  --      6.1050                 6.0695                 6.1987
 IR Inten    --      7.7320                80.0424                52.5278

                     97                     98                     99
                      A                      A                      A
 Frequencies --   3098.1537              3110.8460              3137.8151
 Red. masses --      1.1003                 1.0921                 1.0908
 Frc consts  --      6.2225                 6.2266                 6.3279
 IR Inten    --     66.3546                38.6527                11.3880

                    100                    101                    102
                      A                      A                      A
 Frequencies --   3167.0350              3174.7768              3181.9405
 Red. masses --      1.0948                 1.0923                 1.0952
 Frc consts  --      6.4699                 6.4863                 6.5329
 IR Inten    --      9.3985                 7.2023                 8.9085

                    103                    104                    105
                      A                      A                      A
 Frequencies --   3446.6499              3527.5914              3603.3695
 Red. masses --      1.0475                 1.0947                 1.0759
 Frc consts  --      7.3314                 8.0258                 8.2310
 IR Inten    --      4.0526                 1.2392                19.8449

 - Thermochemistry -
 -------------------
 Temperature   298.150 Kelvin.  Pressure   1.00000 Atm.
 Atom     1 has atomic number  6 and mass  12.00000

 Molecular mass:   227.17461 amu.
 Principal axes and moments of inertia in atomic units:
                           1         2         3
     Eigenvalues --  2163.607404683.583665281.99589
           X            0.99982  -0.01852   0.00412
           Y            0.01853   0.99983  -0.00170
           Z           -0.00408   0.00178   0.99999
 This molecule is an asymmetric top.
 Rotational symmetry number  1.
 Warning -- assumption of classical behavior for rotation
           may cause significant error
 Rotational temperatures (Kelvin)      0.04003     0.01849     0.01640
 Rotational constants (GHZ):           0.83414     0.38533     0.34168
 Zero-point vibrational energy     872392.8 (Joules/Mol)
                                  208.50688 (Kcal/Mol)
 Warning -- explicit consideration of  24 degrees of freedom as
           vibrations may cause significant error
 Vibrational temperatures:     52.46    81.77   112.58   134.25   175.81
          (Kelvin)            196.60   255.19   274.62   314.22   342.69
                              368.65   377.12   408.50   431.01   496.03
                              523.73   547.97   563.22   660.86   708.81
                              720.45   772.42   811.94   882.26   899.64
                              980.55  1029.72  1060.29  1086.78  1142.98
                             1225.14  1227.08  1263.98  1289.53  1304.32
                             1364.81  1410.43  1417.14  1447.02  1456.69
                             1504.02  1538.55  1546.25  1588.81  1596.12
                             1610.03  1619.70  1644.84  1663.21  1690.07
                             1710.03  1722.86  1774.69  1786.83  1799.31
                             1815.58  1860.35  1873.67  1904.43  1906.87
                             1909.37  1951.23  1964.21  1983.15  1996.70
                             2021.13  2027.14  2048.03  2051.42  2064.15
                             2076.69  2096.29  2145.26  2151.92  2165.07
                             2171.23  2178.31  2194.93  2204.43  2208.75
                             2211.00  2215.94  2476.19  2503.52  4263.58
                             4320.41  4336.77  4339.27  4344.41  4366.88
                             4378.38  4384.24  4415.63  4439.35  4444.35
                             4455.31  4457.55  4475.81  4514.62  4556.66
                             4567.80  4578.10  4958.96  5075.42  5184.44

 Zero-point correction=                           0.332277 (Hartree/Particle)
 Thermal correction to Energy=                    0.347942
 Thermal correction to Enthalpy=                  0.348886
 Thermal correction to Gibbs Free Energy=         0.289589
 Sum of electronic and zero-point Energies=           -742.338555
 Sum of electronic and thermal Energies=              -742.322890
 Sum of electronic and thermal Enthalpies=            -742.321946
 Sum of electronic and thermal Free Energies=         -742.381243

                     E (Thermal)             CV                S
                      KCal/Mol        Cal/Mol-Kelvin    Cal/Mol-Kelvin
 Total                  218.337             61.016            124.802
 Electronic               0.000              0.000              0.000
 Translational            0.889              2.981             42.164
 Rotational               0.889              2.981             32.348
 Vibrational            216.560             55.054             50.290
 Vibration     1          0.594              1.982              5.443
 Vibration     2          0.596              1.975              4.564
 Vibration     3          0.600              1.964              3.934
 Vibration     4          0.602              1.954              3.589
 Vibration     5          0.610              1.931              3.065
 Vibration     6          0.614              1.917              2.850
 Vibration     7          0.628              1.870              2.356
 Vibration     8          0.634              1.852              2.219
 Vibration     9          0.646              1.813              1.972
 Vibration    10          0.656              1.782              1.816
 Vibration    11          0.666              1.752              1.687
 Vibration    12          0.669              1.742              1.648
 Vibration    13          0.682              1.703              1.510
 Vibration    14          0.692              1.675              1.419
 Vibration    15          0.723              1.586              1.190
 Vibration    16          0.738              1.546              1.105
 Vibration    17          0.751              1.511              1.036
 Vibration    18          0.759              1.488              0.995
 Vibration    19          0.817              1.340              0.768
 Vibration    20          0.848              1.266              0.677
 Vibration    21          0.856              1.248              0.656
 Vibration    22          0.892              1.169              0.572
 Vibration    23          0.920              1.108              0.515
 Vibration    24          0.973              1.004              0.427

 Optimization completed.
    -- Stationary point found.
 Normal termination of Gaussian 16 at Mon Jan  4 10:44:08 2021.

 ----------------------------------------------------------------------
 # B3LYP/6-311++G(d,p) empiricaldispersion=gd3bj scf=xqc pop=npa geom=c
 heck
 ----------------------------------------------------------------------

 ---------------------------------------
 CID_104882207_JID_6925_Energie_neutraal
 ---------------------------------------
 Structure from the checkpoint file:  "JID_6925.chk"
 Charge =  0 Multiplicity = 1

 SCF Done:  E(RB3LYP) =  -742.886183308     A.U. after   15 cycles
 Normal termination of Gaussian 16 at Mon Jan  4 10:50:16 2021.

 ----------------------------------------------------------------------
 # B3LYP/6-311++G(d,p) empiricaldispersion=gd3bj scf=xqc pop=npa geom=c
 heck
 ----------------------------------------------------------------------

 -------------------------------------
 CID_104882207_JID_6925_Energie_kation
 -------------------------------------
 Structure from the checkpoint file:  "JID_6925.chk"
 Charge =  1 Multiplicity = 2

 SCF Done:  E(UB3LYP) =  -742.619131554     A.U. after   23 cycles
 Normal termination of Gaussian 16 at Mon Jan  4 11:02:46 2021.
 Gaussian 16:  ES64L-G16RevA.03 25-Dec-2016

 ----------------------------------------------------------------------
 # B3LYP/6-311++G(d,p) empiricaldispersion=gd3bj scf=xqc pop=npa geom=c
 heck
 ----------------------------------------------------------------------

 ------------------------------------
 CID_104882207_JID_6925_Energie_anion
 ------------------------------------
 Structure from the checkpoint file:  "JID_6925.chk"
 Charge = -1 Multiplicity = 2

                         Standard orientation:
 ---------------------------------------------------------------------
 Center     Atomic      Atomic             Coordinates (Angstroms)
 Number     Number       Type             X           Y           Z
 ---------------------------------------------------------------------
      1          6           0       -2.173732    2.553465    0.782744
      2          7           0       -1.664689    1.217950    1.030193
      3          6           0       -1.959322    0.278856    0.206330
      4          7           0       -2.614993    0.452600   -1.016627
      5          7           0       -3.492133   -0.548966   -1.527938
      6          7           0       -1.626512   -1.060657    0.470905
      7          6           0       -0.995698   -1.319331    1.774250
      8          6           0        0.504680   -1.110255    1.529644
      9          6           0        0.725503   -1.571195    0.050137
     10          6           0       -0.727392   -1.711242   -0.505600
     11          7           0        1.577997   -0.785323   -0.836201
     12          6           0        3.011594   -0.844140   -0.563009
     13          6           0        3.492011    0.259101    0.385702
     14          8           0        3.139808    1.541389   -0.121062
     15          6           0        1.729715    1.667882   -0.289377
     16          6           0        1.186081    0.574490   -1.215788
     17          1           0       -2.002963    3.170931    1.669485
     18          1           0       -3.257322    2.580987    0.569737
     19          1           0       -1.660335    3.045729   -0.059121
     20          1           0       -3.039643    1.364915   -1.115984
     21          1           0       -2.955165   -1.128609   -2.171107
     22          1           0       -3.752673   -1.160225   -0.752835
     23          1           0       -1.216631   -2.359559    2.045797
     24          1           0       -1.410762   -0.651368    2.526964
     25          1           0        0.723085   -0.049243    1.637447
     26          1           0        1.135063   -1.664461    2.232400
     27          1           0        1.181446   -2.568075    0.063121
     28          1           0       -0.825636   -1.268950   -1.496013
     29          1           0       -0.998166   -2.770441   -0.576270
     30          1           0        3.547369   -0.720570   -1.515902
     31          1           0        3.263502   -1.833327   -0.163030
     32          1           0        3.068927    0.118004    1.393168
     33          1           0        4.584065    0.253290    0.467761
     34          1           0        1.566794    2.654927   -0.735082
     35          1           0        1.220299    1.648517    0.684429
     36          1           0        1.592873    0.759070   -2.221070
     37          1           0        0.099084    0.652335   -1.287932
 ---------------------------------------------------------------------

 SCF Done:  E(UB3LYP) =  -742.874028923     A.U. after   32 cycles

 The electronic state is 2-A.
 Alpha  occ. eigenvalues --  -19.03088 -14.25753 -14.23588 -14.22609 -14.20659
 Alpha  occ. eigenvalues --  -14.18262 -10.16621 -10.12062 -10.11686 -10.10270
 Alpha  occ. eigenvalues --  -10.09891 -10.09787 -10.09765 -10.09619 -10.09151
 Alpha  occ. eigenvalues --  -10.06049  -0.94551  -0.91398  -0.85034  -0.82359
 Alpha  occ. eigenvalues --   -0.79708  -0.69249  -0.67684  -0.66929  -0.63471
 Alpha  occ. eigenvalues --   -0.60596  -0.57724  -0.56053  -0.53803  -0.50111
 Alpha  occ. eigenvalues --   -0.46835  -0.45823  -0.43051  -0.41242  -0.40630
 Alpha  occ. eigenvalues --   -0.39968  -0.39236  -0.38335  -0.37669  -0.36396
 Alpha  occ. eigenvalues --   -0.35151  -0.34926  -0.34099  -0.33197  -0.31668
 Alpha  occ. eigenvalues --   -0.30239  -0.29877  -0.28710  -0.28255  -0.27825
 Alpha  occ. eigenvalues --   -0.26707  -0.26394  -0.24696  -0.24286  -0.23013
 Alpha  occ. eigenvalues --   -0.21771  -0.20345  -0.17833  -0.15900  -0.14641
 Alpha  occ. eigenvalues --   -0.13079  -0.10408   0.04282
 Alpha virt. eigenvalues --    0.06165   0.06814   0.07477   0.08377   0.08732
 Alpha virt. eigenvalues --    0.09160   0.09414   0.09738   0.10719   0.11213
 Alpha virt. eigenvalues --    0.11486   0.11794   0.12027   0.12484   0.12865

  Beta  occ. eigenvalues --  -19.03085 -14.25740 -14.23544 -14.22610 -14.20660
  Beta  occ. eigenvalues --  -14.18252 -10.16620 -10.12055 -10.11681 -10.10255
  Beta  occ. eigenvalues --  -10.09876 -10.09754 -10.09746 -10.09606 -10.09135
  Beta  occ. eigenvalues --  -10.06038  -0.94543  -0.91373  -0.85009  -0.82346
  Beta  occ. eigenvalues --   -0.79689  -0.69184  -0.67667  -0.66887  -0.63433
  Beta  occ. eigenvalues --   -0.60564  -0.57699  -0.56023  -0.53766  -0.50084
  Beta  occ. eigenvalues --   -0.46798  -0.45792  -0.43014  -0.41183  -0.40585
  Beta  occ. eigenvalues --   -0.39931  -0.39189  -0.38326  -0.37648  -0.36367
  Beta  occ. eigenvalues --   -0.35123  -0.34902  -0.34071  -0.33168  -0.31644
  Beta  occ. eigenvalues --   -0.30216  -0.29860  -0.28680  -0.28230  -0.27798
  Beta  occ. eigenvalues --   -0.26687  -0.26368  -0.24672  -0.24256  -0.22979
  Beta  occ. eigenvalues --   -0.21758  -0.20306  -0.17814  -0.15868  -0.14605
  Beta  occ. eigenvalues --   -0.13062  -0.10393
  Beta virt. eigenvalues --    0.06323   0.06995   0.07595   0.07846   0.08794
  Beta virt. eigenvalues --    0.09099   0.09461   0.09852   0.10094   0.11068
  Beta virt. eigenvalues --    0.11497   0.11749   0.11991   0.12111   0.12712

 Mulliken charges and spin densities:
               1          2
     1  C    0.200989  -0.606795
     2  N   -0.199684   0.143326
     3  C    0.609514  -1.415592
     4  N   -0.262975   0.137920
     5  N   -0.425138   0.192247
     6  N    0.015969   0.257176
     7  C    1.082283  -1.530266
     8  C   -0.587100   0.402375
     9  C    0.160469  -0.057863
    10  C   -0.109542  -0.715026
    11  N    0.195222  -0.058208
    12  C    0.256770  -0.217106
    13  C   -0.097594  -0.276742
    14  O   -0.127172   0.012821
    15  C   -0.396261  -0.221845
    16  C    0.039249  -0.203105
    17  H   -0.017202   0.159211
    18  H   -0.167824   0.289678
    19  H    0.011230   0.143077
    20  H    0.137705   0.129639
    21  H   -0.067558   0.319069
    22  H    0.052759   0.222498
    23  H   -0.316307   0.503483
    24  H    0.161144   0.034951
    25  H    0.255477  -0.186029
    26  H   -0.369711   0.551425
    27  H   -0.428602   0.638370
    28  H    0.118266   0.075217
    29  H   -0.866076   1.081108
    30  H    0.076506   0.084115
    31  H   -0.288790   0.419410
    32  H    0.051087   0.088739
    33  H   -0.024690   0.208930
    34  H    0.147850   0.014535
    35  H    0.183385   0.023492
    36  H   -0.060313   0.240579
    37  H    0.056664   0.115189
 Sum of Mulliken charges =  -1.00000   1.00000

 Dipole moment (field-independent basis, Debye):
    X=              2.0464    Y=              5.3305    Z=              0.2969  Tot=              5.7175
 Quadrupole moment (field-independent basis, Debye-Ang):
   XX=           -163.6598   YY=           -158.3924   ZZ=           -135.3506
   XY=             -1.7507   XZ=             -5.6336   YZ=              1.3010

 Summary of Natural Population Analysis:

                                       Natural Population
                Natural  -----------------------------------------------
    Atom  No    Charge         Core      Valence    Rydberg      Total
 -----------------------------------------------------------------------
      C    1   -0.19525      0.99964     2.18574    0.00987     3.19525
      N    2   -0.30270      0.99963     2.79238    0.01069     3.80270
      C    3    0.31212      0.99953     1.67050    0.01785     2.68788
      N    4   -0.24991      0.99966     2.73673    0.01352     3.74991
      N    5   -0.31739      0.99978     2.80697    0.01064     3.81739
      N    6   -0.27781      0.99968     2.76173    0.01640     3.77781
      C    7   -0.08446      0.99962     2.07362    0.01122     3.08446
      C    8   -0.21399      0.99960     2.20618    0.00821     3.21399
      C    9   -0.00867      0.99957     1.99270    0.01640     3.00867
      C   10   -0.09196      0.99958     2.07831    0.01407     3.09196
      N   11   -0.27928      0.99971     2.76501    0.01456     3.77928
      C   12   -0.09629      0.99961     2.08530    0.01138     3.09629
      C   13   -0.02087      0.99958     2.00898    0.01231     3.02087
      O   14   -0.30271      0.99989     3.29405    0.00877     4.30271
      C   15   -0.01981      0.99957     2.00957    0.01067     3.01981
      C   16   -0.10398      0.99960     2.09304    0.01135     3.10398
      H   17    0.09511      0.00000     0.40392    0.00097     0.40489
      H   18    0.08294      0.00000     0.41534    0.00172     0.41706
      H   19    0.08675      0.00000     0.41197    0.00129     0.41325
      H   20    0.18750      0.00000     0.30967    0.00282     0.31250
      H   21    0.17422      0.00000     0.32296    0.00283     0.32578
      H   22    0.17700      0.00000     0.31951    0.00349     0.32300
      H   23    0.09493      0.00000     0.40359    0.00149     0.40507
      H   24    0.11094      0.00000     0.38766    0.00140     0.38906
      H   25    0.10360      0.00000     0.39418    0.00222     0.39640
      H   26    0.10166      0.00000     0.39689    0.00146     0.39834
      H   27    0.10066      0.00000     0.39662    0.00272     0.39934
      H   28    0.10473      0.00000     0.39318    0.00209     0.39527
      H   29    0.10377      0.00000     0.39290    0.00333     0.39623
      H   30    0.09115      0.00000     0.40763    0.00122     0.40885
      H   31    0.10103      0.00000     0.39756    0.00140     0.39897
      H   32    0.07902      0.00000     0.41954    0.00144     0.42098
      H   33    0.08827      0.00000     0.41050    0.00123     0.41173
      H   34    0.08817      0.00000     0.41048    0.00135     0.41183
      H   35    0.08388      0.00000     0.41450    0.00162     0.41612
      H   36    0.09182      0.00000     0.40690    0.00128     0.40818
      H   37    0.10580      0.00000     0.39222    0.00198     0.39420
 =======================================================================
   * Total *    0.00000     15.99426    45.76850    0.23724    62.00000

 Normal termination of Gaussian 16 at Mon Jan  4 11:20:11 2021.
