 Gaussian 16, Revision A.03,

 -----------------------------------------------------------
 # opt freq B3LYP/6-31G(d) empiricaldispersion=gd3bj scf=xqc
 -----------------------------------------------------------

 ------------------------------
 CID_71416283_JID_6064_neutraal
 ------------------------------
 Symbolic Z-matrix:
 Charge =  0 Multiplicity = 1

 SCF Done:  E(RB3LYP) =  -1099.29678351     A.U. after   15 cycles
 SCF Done:  E(RB3LYP) =  -1099.30324074     A.U. after   13 cycles
 SCF Done:  E(RB3LYP) =  -1099.30391719     A.U. after   12 cycles
 SCF Done:  E(RB3LYP) =  -1099.30414675     A.U. after   12 cycles
 SCF Done:  E(RB3LYP) =  -1099.30445383     A.U. after   13 cycles
 SCF Done:  E(RB3LYP) =  -1099.30468860     A.U. after   13 cycles
 SCF Done:  E(RB3LYP) =  -1099.30491573     A.U. after   13 cycles
 SCF Done:  E(RB3LYP) =  -1099.30497808     A.U. after   13 cycles
 SCF Done:  E(RB3LYP) =  -1099.30510974     A.U. after   13 cycles
 SCF Done:  E(RB3LYP) =  -1099.30515582     A.U. after   12 cycles
 SCF Done:  E(RB3LYP) =  -1099.30529796     A.U. after   11 cycles
 SCF Done:  E(RB3LYP) =  -1099.30530258     A.U. after   11 cycles
 SCF Done:  E(RB3LYP) =  -1099.30530334     A.U. after   10 cycles
 SCF Done:  E(RB3LYP) =  -1099.30530339     A.U. after    9 cycles
 SCF Done:  E(RB3LYP) =  -1099.30530340     A.U. after    7 cycles
 SCF Done:  E(RB3LYP) =  -1099.30530341     A.U. after    7 cycles
 Optimization completed.
    -- Stationary point found.
 Normal termination of Gaussian 16 at Thu Dec 10 21:12:23 2020.

 --------------------------------------------------------------------
 #N Geom=AllCheck Guess=TCheck SCRF=Check GenChk RB3LYP/6-31G(d) Freq
 --------------------------------------------------------------------

 Structure from the checkpoint file:  "JID_6064.chk"
 ------------------------------
 CID_71416283_JID_6064_neutraal
 ------------------------------
 Charge =  0 Multiplicity = 1

 SCF Done:  E(RB3LYP) =  -1099.30530341     A.U. after    1 cycles

  Exact polarizability: 219.965 -11.153 117.405  16.726 -13.729 115.381
 Approx polarizability: 328.564 -43.917 208.835  51.509 -39.164 210.735

                      1                      2                      3
                      A                      A                      A
 Frequencies --     12.0459                28.7150                50.3319
 Red. masses --      6.9858                 3.9204                 5.2462
 Frc consts  --      0.0006                 0.0019                 0.0078
 IR Inten    --      1.2393                 0.2089                 0.6917

                      4                      5                      6
                      A                      A                      A
 Frequencies --     78.9815               147.3886               170.3899
 Red. masses --      5.6544                 6.1762                 7.5346
 Frc consts  --      0.0208                 0.0790                 0.1289
 IR Inten    --      0.2408                 1.1003                 4.2922

                      7                      8                      9
                      A                      A                      A
 Frequencies --    190.2167               247.8928               278.9042
 Red. masses --      6.2875                 7.1916                 6.6931
 Frc consts  --      0.1340                 0.2604                 0.3068
 IR Inten    --      0.7270                 3.0494                 0.9935

                     10                     11                     12
                      A                      A                      A
 Frequencies --    305.3381               313.9658               371.4260
 Red. masses --      8.6922                 6.7460                 2.7109
 Frc consts  --      0.4775                 0.3918                 0.2204
 IR Inten    --      4.8368                 0.8970                38.7635

                     13                     14                     15
                      A                      A                      A
 Frequencies --    412.8043               413.3818               452.4022
 Red. masses --      3.0070                 7.5458                 4.3776
 Frc consts  --      0.3019                 0.7597                 0.5279
 IR Inten    --      0.0685                 1.1299                31.4994

                     16                     17                     18
                      A                      A                      A
 Frequencies --    463.7413               540.0649               547.5449
 Red. masses --      5.1697                 2.7607                 2.0583
 Frc consts  --      0.6550                 0.4744                 0.3636
 IR Inten    --      9.8665                 6.7952                81.8974

                     19                     20                     21
                      A                      A                      A
 Frequencies --    575.1558               603.7011               630.0480
 Red. masses --      7.9808                 9.6438                 6.4324
 Frc consts  --      1.5555                 2.0708                 1.5044
 IR Inten    --     60.2469               171.3955                 0.2766

                     22                     23                     24
                      A                      A                      A
 Frequencies --    681.0685               699.6856               725.1370
 Red. masses --      7.7507                 2.4904                 4.8081
 Frc consts  --      2.1182                 0.7183                 1.4896
 IR Inten    --      2.8229                19.2135                21.4728

                     25                     26                     27
                      A                      A                      A
 Frequencies --    734.7571               761.0547               784.6702
 Red. masses --      2.8938                 1.6255                 3.5336
 Frc consts  --      0.9205                 0.5547                 1.2819
 IR Inten    --     40.1839                47.7404                63.5019

                     28                     29                     30
                      A                      A                      A
 Frequencies --    802.1464               860.6882               910.6673
 Red. masses --      1.9993                 1.2436                 4.1918
 Frc consts  --      0.7580                 0.5428                 2.0482
 IR Inten    --     92.8403                 0.1298                22.0012

                     31                     32                     33
                      A                      A                      A
 Frequencies --    939.6559               942.2047               970.7572
 Red. masses --      1.3386                 1.4449                 1.2697
 Frc consts  --      0.6964                 0.7558                 0.7050
 IR Inten    --      0.5795                 8.1242                 1.9111

                     34                     35                     36
                      A                      A                      A
 Frequencies --    978.2916               986.4469              1004.7160
 Red. masses --      1.3525                 4.0943                 1.2736
 Frc consts  --      0.7626                 2.3473                 0.7575
 IR Inten    --      0.0439                54.2604                 0.3587

                     37                     38                     39
                      A                      A                      A
 Frequencies --   1019.4479              1035.1058              1052.9024
 Red. masses --      6.2434                 5.3201                 2.9308
 Frc consts  --      3.8230                 3.3585                 1.9143
 IR Inten    --      3.4777                46.3167                 7.1353

                     40                     41                     42
                      A                      A                      A
 Frequencies --   1082.8503              1110.7326              1135.1874
 Red. masses --      4.3374                 1.5496                 4.5150
 Frc consts  --      2.9965                 1.1264                 3.4280
 IR Inten    --    111.6876                 6.6818               122.3993

                     43                     44                     45
                      A                      A                      A
 Frequencies --   1158.2886              1195.9599              1210.2151
 Red. masses --      3.3115                 1.1059                 1.1573
 Frc consts  --      2.6177                 0.9320                 0.9987
 IR Inten    --     15.7331                 0.0060                 2.8142

                     46                     47                     48
                      A                      A                      A
 Frequencies --   1225.2679              1295.8904              1325.4719
 Red. masses --      1.8242                 8.9441                 1.5036
 Frc consts  --      1.6136                 8.8496                 1.5564
 IR Inten    --     23.0939               117.2383                 1.9177

                     49                     50                     51
                      A                      A                      A
 Frequencies --   1344.4427              1365.8410              1391.9992
 Red. masses --      1.5529                 4.0293                 1.6889
 Frc consts  --      1.6538                 4.4287                 1.9281
 IR Inten    --      0.5315                 1.4561                13.3008

                     52                     53                     54
                      A                      A                      A
 Frequencies --   1422.1963              1494.0554              1495.4997
 Red. masses --      1.5163                 2.1511                 2.0832
 Frc consts  --      1.8070                 2.8291                 2.7450
 IR Inten    --     27.9079                 9.0243                79.0523

                     55                     56                     57
                      A                      A                      A
 Frequencies --   1527.8809              1617.2909              1646.8002
 Red. masses --      2.0660                 5.6693                 5.7628
 Frc consts  --      2.8416                 8.7369                 9.2081
 IR Inten    --      3.4312               291.2218                 0.9040

                     58                     59                     60
                      A                      A                      A
 Frequencies --   1647.9428              1667.2627              1688.0569
 Red. masses --      5.3988                 4.8883                 7.9090
 Frc consts  --      8.6383                 8.0060                13.2783
 IR Inten    --      0.5939                 2.1418               398.1799

                     61                     62                     63
                      A                      A                      A
 Frequencies --   3181.4893              3190.9435              3202.2083
 Red. masses --      1.0929                 1.0858                 1.0896
 Frc consts  --      6.5178                 6.5139                 6.5829
 IR Inten    --     24.7378                 0.2139                14.5982

                     64                     65                     66
                      A                      A                      A
 Frequencies --   3212.5818              3226.6481              3228.5791
 Red. masses --      1.0943                 1.0929                 1.0939
 Frc consts  --      6.6541                 6.7040                 6.7183
 IR Inten    --     21.3304                 3.9201                 7.7321

                     67                     68                     69
                      A                      A                      A
 Frequencies --   3229.9188              3255.6210              3643.8074
 Red. masses --      1.0899                 1.0933                 1.0800
 Frc consts  --      6.6993                 6.8272                 8.4487
 IR Inten    --      2.0608                12.8933               139.3961

 - Thermochemistry -
 -------------------
 Temperature   298.150 Kelvin.  Pressure   1.00000 Atm.
 Atom     1 has atomic number  6 and mass  12.00000

 Molecular mass:   235.04155 amu.
 Principal axes and moments of inertia in atomic units:
                           1         2         3
     Eigenvalues --  1966.222126392.752946926.85700
           X            0.99998   0.00676   0.00194
           Y           -0.00669   0.99940  -0.03393
           Z           -0.00217   0.03391   0.99942
 This molecule is an asymmetric top.
 Rotational symmetry number  1.
 Warning -- assumption of classical behavior for rotation
           may cause significant error
 Rotational temperatures (Kelvin)      0.04405     0.01355     0.01250
 Rotational constants (GHZ):           0.91787     0.28231     0.26054
 Zero-point vibrational energy     485353.5 (Joules/Mol)
                                  116.00228 (Kcal/Mol)
 Warning -- explicit consideration of  20 degrees of freedom as
           vibrations may cause significant error
 Vibrational temperatures:     17.33    41.31    72.42   113.64   212.06
          (Kelvin)            245.15   273.68   356.66   401.28   439.31
                              451.73   534.40   593.93   594.76   650.91
                              667.22   777.03   787.80   827.52   868.59
                              906.50   979.91  1006.69  1043.31  1057.15
                             1094.99  1128.97  1154.11  1238.34  1310.25
                             1351.96  1355.62  1396.70  1407.54  1419.28
                             1445.56  1466.76  1489.29  1514.89  1557.98
                             1598.10  1633.28  1666.52  1720.72  1741.23
                             1762.89  1864.50  1907.06  1934.35  1965.14
                             2002.78  2046.22  2149.61  2151.69  2198.28
                             2326.92  2369.38  2371.02  2398.82  2428.74
                             4577.45  4591.06  4607.26  4622.19  4642.43
                             4645.21  4647.13  4684.11  5242.63

 Zero-point correction=                           0.184861 (Hartree/Particle)
 Thermal correction to Energy=                    0.198364
 Thermal correction to Enthalpy=                  0.199309
 Thermal correction to Gibbs Free Energy=         0.141712
 Sum of electronic and zero-point Energies=          -1099.120442
 Sum of electronic and thermal Energies=             -1099.106939
 Sum of electronic and thermal Enthalpies=           -1099.105995
 Sum of electronic and thermal Free Energies=        -1099.163591

                     E (Thermal)             CV                S
                      KCal/Mol        Cal/Mol-Kelvin    Cal/Mol-Kelvin
 Total                  124.476             51.422            121.222
 Electronic               0.000              0.000              0.000
 Translational            0.889              2.981             42.265
 Rotational               0.889              2.981             32.832
 Vibrational            122.698             45.460             46.125
 Vibration     1          0.593              1.987              7.641
 Vibration     2          0.593              1.984              5.916
 Vibration     3          0.595              1.977              4.804
 Vibration     4          0.600              1.963              3.916
 Vibration     5          0.617              1.906              2.706
 Vibration     6          0.625              1.879              2.431
 Vibration     7          0.634              1.853              2.226
 Vibration     8          0.662              1.766              1.746
 Vibration     9          0.679              1.713              1.540
 Vibration    10          0.696              1.664              1.387
 Vibration    11          0.702              1.647              1.341
 Vibration    12          0.743              1.531              1.074
 Vibration    13          0.777              1.442              0.917
 Vibration    14          0.777              1.441              0.915
 Vibration    15          0.811              1.356              0.789
 Vibration    16          0.821              1.330              0.755
 Vibration    17          0.895              1.161              0.565
 Vibration    18          0.903              1.145              0.549
 Vibration    19          0.932              1.085              0.494
 Vibration    20          0.962              1.024              0.443

                           ! Non-Optimized Parameters !
 Normal termination of Gaussian 16 at Thu Dec 10 21:19:49 2020.

 ----------------------------------------------------------------------
 # B3LYP/6-311++G(d,p) empiricaldispersion=gd3bj scf=xqc pop=npa geom=c
 heck
 ----------------------------------------------------------------------

 --------------------------------------
 CID_71416283_JID_6064_Energie_neutraal
 --------------------------------------
 Structure from the checkpoint file:  "JID_6064.chk"
 Charge =  0 Multiplicity = 1

 SCF Done:  E(RB3LYP) =  -1099.52261400     A.U. after   17 cycles
 Normal termination of Gaussian 16 at Thu Dec 10 21:22:54 2020.

 ----------------------------------------------------------------------
 # B3LYP/6-311++G(d,p) empiricaldispersion=gd3bj scf=xqc pop=npa geom=c
 heck
 ----------------------------------------------------------------------

 ------------------------------------
 CID_71416283_JID_6064_Energie_kation
 ------------------------------------
 Structure from the checkpoint file:  "JID_6064.chk"
 Charge =  1 Multiplicity = 2

 SCF Done:  E(UB3LYP) =  -1099.22458841     A.U. after   27 cycles
 Normal termination of Gaussian 16 at Thu Dec 10 21:30:00 2020.
 Gaussian 16:  ES64L-G16RevA.03 25-Dec-2016

 ----------------------------------------------------------------------
 # B3LYP/6-311++G(d,p) empiricaldispersion=gd3bj scf=xqc pop=npa geom=c
 heck
 ----------------------------------------------------------------------

 -----------------------------------
 CID_71416283_JID_6064_Energie_anion
 -----------------------------------
 Structure from the checkpoint file:  "JID_6064.chk"
 Charge = -1 Multiplicity = 2

                         Standard orientation:
 ---------------------------------------------------------------------
 Center     Atomic      Atomic             Coordinates (Angstroms)
 Number     Number       Type             X           Y           Z
 ---------------------------------------------------------------------
      1          6           0       -3.867012   -1.780284   -0.220828
      2          6           0       -2.906041   -1.945512    0.779838
      3          6           0       -1.898230   -0.997179    0.943811
      4          6           0       -1.869355    0.111062    0.096508
      5          6           0       -2.826889    0.293842   -0.901241
      6          6           0       -3.829757   -0.662419   -1.056850
      7         16           0       -0.556036    1.321918    0.279371
      8          8           0       -1.047296    2.586905   -0.287572
      9          8           0       -0.093045    1.252774    1.679628
     10          6           0        0.693456    0.716955   -0.800036
     11          6           0        1.877331    0.139251   -0.464173
     12          6           0        2.362850   -0.097112    0.899098
     13          7           0        3.484395   -0.683996    1.170289
     14          7           0        4.218325   -1.076298    0.087090
     15          6           0        3.824777   -0.835641   -1.192781
     16          7           0        2.716932   -0.261453   -1.516510
     17          1           0       -4.651155   -2.521705   -0.344391
     18          1           0       -2.946008   -2.809749    1.436316
     19          1           0       -1.152845   -1.095029    1.725621
     20          1           0       -2.788898    1.180861   -1.524258
     21          1           0       -4.585333   -0.531348   -1.825802
     22          1           0        0.448149    0.847702   -1.847990
     23          1           0        1.774575    0.233687    1.745843
     24          1           0        5.101421   -1.511929    0.309678
     25          1           0        4.515053   -1.166155   -1.967563
 ---------------------------------------------------------------------

 SCF Done:  E(UB3LYP) =  -1099.54573603     A.U. after   30 cycles

 The electronic state is 2-A.
 Alpha  occ. eigenvalues --  -88.89984 -18.96697 -18.96535 -14.25950 -14.20028
 Alpha  occ. eigenvalues --  -14.18132 -10.13631 -10.07241 -10.07070 -10.06577
 Alpha  occ. eigenvalues --  -10.06505 -10.06285 -10.06219 -10.06003 -10.05989
 Alpha  occ. eigenvalues --  -10.02777  -7.96225  -5.92557  -5.92428  -5.92298
 Alpha  occ. eigenvalues --   -0.95889  -0.91744  -0.85736  -0.79813  -0.74687
 Alpha  occ. eigenvalues --   -0.72985  -0.65501  -0.63778  -0.63092  -0.55807
 Alpha  occ. eigenvalues --   -0.54932  -0.49825  -0.49704  -0.45877  -0.45068
 Alpha  occ. eigenvalues --   -0.41659  -0.40507  -0.38338  -0.35338  -0.34606
 Alpha  occ. eigenvalues --   -0.33263  -0.32973  -0.32439  -0.31571  -0.31245
 Alpha  occ. eigenvalues --   -0.30040  -0.27624  -0.26070  -0.25552  -0.23812
 Alpha  occ. eigenvalues --   -0.22543  -0.19709  -0.19422  -0.19037  -0.17819
 Alpha  occ. eigenvalues --   -0.16388  -0.15546  -0.14789  -0.14695  -0.13014
 Alpha  occ. eigenvalues --   -0.08311   0.03285
 Alpha virt. eigenvalues --    0.06920   0.07713   0.08126   0.09406   0.09495
 Alpha virt. eigenvalues --    0.09844   0.10120   0.10631   0.12568   0.12846
 Alpha virt. eigenvalues --    0.13964   0.14683   0.15154   0.15704   0.16033

  Beta  occ. eigenvalues --  -88.89978 -18.96673 -18.96501 -14.25785 -14.19357
  Beta  occ. eigenvalues --  -14.18043 -10.13645 -10.06988 -10.06927 -10.06620
  Beta  occ. eigenvalues --  -10.06519 -10.06309 -10.06147 -10.05898 -10.05802
  Beta  occ. eigenvalues --  -10.02686  -7.96217  -5.92554  -5.92402  -5.92290
  Beta  occ. eigenvalues --   -0.95757  -0.91178  -0.85646  -0.79388  -0.74501
  Beta  occ. eigenvalues --   -0.72405  -0.65190  -0.63617  -0.62695  -0.55526
  Beta  occ. eigenvalues --   -0.54546  -0.49661  -0.49350  -0.45753  -0.44881
  Beta  occ. eigenvalues --   -0.41425  -0.40271  -0.38124  -0.35149  -0.34498
  Beta  occ. eigenvalues --   -0.33106  -0.32282  -0.31850  -0.31527  -0.31123
  Beta  occ. eigenvalues --   -0.29889  -0.27478  -0.25571  -0.25436  -0.23751
  Beta  occ. eigenvalues --   -0.20989  -0.19259  -0.18598  -0.18251  -0.17771
  Beta  occ. eigenvalues --   -0.16246  -0.15124  -0.14358  -0.14116  -0.12583
  Beta  occ. eigenvalues --   -0.06956
  Beta virt. eigenvalues --    0.06895   0.07684   0.08276   0.09335   0.09496
  Beta virt. eigenvalues --    0.09860   0.10100   0.10618   0.11328   0.12559
  Beta virt. eigenvalues --    0.12824   0.13973   0.14694   0.15137   0.15713

 Mulliken charges and spin densities:
               1          2
     1  C   -0.313431   0.144773
     2  C   -0.505050  -0.022619
     3  C   -0.471919   0.083545
     4  C    0.753585   0.133705
     5  C   -0.023629   0.054705
     6  C   -0.423006  -0.005503
     7  S    0.176233  -0.161014
     8  O   -0.198770   0.008592
     9  O   -0.260506  -0.011280
    10  C   -0.457800   0.079223
    11  C   -0.243584   0.242501
    12  C   -0.490436   0.045072
    13  N   -0.070207   0.304072
    14  N   -0.254962   0.050198
    15  C    0.203455  -0.000414
    16  N   -0.142222   0.044555
    17  H    0.115696  -0.012162
    18  H    0.143071   0.002328
    19  H    0.176000  -0.007781
    20  H    0.217885   0.000351
    21  H    0.132408   0.001898
    22  H    0.240395   0.008693
    23  H    0.252885   0.012178
    24  H    0.303940  -0.000476
    25  H    0.139967   0.004858
 Sum of Mulliken charges =  -1.00000   1.00000

 Dipole moment (field-independent basis, Debye):
    X=              0.6542    Y=             -4.7224    Z=             -1.6944  Tot=              5.0597
 Quadrupole moment (field-independent basis, Debye-Ang):
   XX=           -117.7916   YY=           -120.5657   ZZ=           -116.8581
   XY=             -1.5966   XZ=             -2.2160   YZ=             -2.0758

 Summary of Natural Population Analysis:

                                       Natural Population
                Natural  -----------------------------------------------
    Atom  No    Charge         Core      Valence    Rydberg      Total
 -----------------------------------------------------------------------
      C    1   -0.07087      0.99958     2.06185    0.00945     3.07087
      C    2   -0.11645      0.99957     2.10756    0.00932     3.11645
      C    3   -0.07464      0.99951     2.06537    0.00976     3.07464
      C    4   -0.11668      0.99938     2.10156    0.01574     3.11668
      C    5   -0.08379      0.99951     2.07435    0.00994     3.08379
      C    6   -0.11335      0.99957     2.10436    0.00942     3.11335
      S    7    1.05081      4.99908     1.85381    0.09630     6.94919
      O    8   -0.47912      0.99991     3.47362    0.00559     4.47912
      O    9   -0.48715      0.99991     3.47892    0.00832     4.48715
      C   10   -0.25629      0.99940     2.24469    0.01219     3.25629
      C   11    0.10444      0.99945     1.87982    0.01628     2.89556
      C   12   -0.00317      0.99961     1.98878    0.01478     3.00317
      N   13   -0.04393      0.99969     2.52848    0.01576     3.54393
      N   14   -0.18926      0.99970     2.67661    0.01296     3.68926
      C   15    0.13453      0.99966     1.84936    0.01645     2.86547
      N   16   -0.24227      0.99968     2.73106    0.01153     3.74227
      H   17    0.09099      0.00000     0.40802    0.00099     0.40901
      H   18    0.09501      0.00000     0.40399    0.00100     0.40499
      H   19    0.11083      0.00000     0.38792    0.00125     0.38917
      H   20    0.11007      0.00000     0.38866    0.00127     0.38993
      H   21    0.09417      0.00000     0.40481    0.00102     0.40583
      H   22    0.10904      0.00000     0.38978    0.00118     0.39096
      H   23    0.11270      0.00000     0.38606    0.00124     0.38730
      H   24    0.18600      0.00000     0.31184    0.00216     0.31400
      H   25    0.07838      0.00000     0.41997    0.00165     0.42162
 =======================================================================
   * Total *   -0.00000     19.99322    40.72123    0.28556    61.00000

 Normal termination of Gaussian 16 at Thu Dec 10 21:37:25 2020.
