 Gaussian 16, Revision A.03,

 -----------------------------------------------------------
 # opt freq B3LYP/6-31G(d) empiricaldispersion=gd3bj scf=xqc
 -----------------------------------------------------------

 -------------------------------
 CID_142625628_JID_5371_neutraal
 -------------------------------
 Symbolic Z-matrix:
 Charge =  0 Multiplicity = 1

 SCF Done:  E(RB3LYP) =  -704.945987930     A.U. after   15 cycles
 SCF Done:  E(RB3LYP) =  -704.955580242     A.U. after   13 cycles
 SCF Done:  E(RB3LYP) =  -704.958080860     A.U. after   13 cycles
 SCF Done:  E(RB3LYP) =  -704.960236775     A.U. after   13 cycles
 SCF Done:  E(RB3LYP) =  -704.961837090     A.U. after   13 cycles
 SCF Done:  E(RB3LYP) =  -704.962419943     A.U. after   12 cycles
 SCF Done:  E(RB3LYP) =  -704.962587965     A.U. after   12 cycles
 SCF Done:  E(RB3LYP) =  -704.962650708     A.U. after   11 cycles
 SCF Done:  E(RB3LYP) =  -704.962667736     A.U. after   10 cycles
 SCF Done:  E(RB3LYP) =  -704.962673555     A.U. after    9 cycles
 SCF Done:  E(RB3LYP) =  -704.962676188     A.U. after    9 cycles
 SCF Done:  E(RB3LYP) =  -704.962677905     A.U. after    9 cycles
 SCF Done:  E(RB3LYP) =  -704.962679269     A.U. after    9 cycles
 SCF Done:  E(RB3LYP) =  -704.962679615     A.U. after    8 cycles
 SCF Done:  E(RB3LYP) =  -704.962679649     A.U. after    7 cycles
 Optimization completed.
    -- Stationary point found.
 Normal termination of Gaussian 16 at Thu Dec 10 15:49:13 2020.

 --------------------------------------------------------------------
 #N Geom=AllCheck Guess=TCheck SCRF=Check GenChk RB3LYP/6-31G(d) Freq
 --------------------------------------------------------------------

 Structure from the checkpoint file:  "JID_5371.chk"
 -------------------------------
 CID_142625628_JID_5371_neutraal
 -------------------------------
 Charge =  0 Multiplicity = 1

 SCF Done:  E(RB3LYP) =  -704.962679650     A.U. after    1 cycles

  Exact polarizability: 227.915   1.988 134.668  -5.935  -5.990  53.226
 Approx polarizability: 353.224   5.842 254.709 -17.311 -13.560  84.294

                      1                      2                      3
                      A                      A                      A
 Frequencies --     42.3849                65.5817                92.6852
 Red. masses --      7.0605                 6.7629                 6.7684
 Frc consts  --      0.0075                 0.0171                 0.0343
 IR Inten    --      0.4391                 3.1138                 1.2980

                      4                      5                      6
                      A                      A                      A
 Frequencies --    137.3852               182.2257               207.4172
 Red. masses --      6.6385                 4.4620                 4.1665
 Frc consts  --      0.0738                 0.0873                 0.1056
 IR Inten    --      2.5432                 4.1188                 1.9248

                      7                      8                      9
                      A                      A                      A
 Frequencies --    266.1815               314.8326               329.4402
 Red. masses --      6.2133                 3.7562                 5.2417
 Frc consts  --      0.2594                 0.2194                 0.3352
 IR Inten    --      7.5690                13.4404                44.8101

                     10                     11                     12
                      A                      A                      A
 Frequencies --    351.2519               402.5004               413.8820
 Red. masses --      1.6528                 3.3809                 4.3559
 Frc consts  --      0.1201                 0.3227                 0.4396
 IR Inten    --     49.4704                 4.1452                73.7581

                     13                     14                     15
                      A                      A                      A
 Frequencies --    454.5003               483.6861               490.0803
 Red. masses --      1.3718                 3.3884                 2.5750
 Frc consts  --      0.1670                 0.4671                 0.3644
 IR Inten    --     93.2026                22.6980                 5.9915

                     16                     17                     18
                      A                      A                      A
 Frequencies --    507.0362               527.4167               575.1716
 Red. masses --      3.7664                 6.9158                 4.9602
 Frc consts  --      0.5705                 1.1334                 0.9668
 IR Inten    --      6.7501                 0.7034                31.6613

                     19                     20                     21
                      A                      A                      A
 Frequencies --    597.6897               640.3003               646.0391
 Red. masses --      7.2950                 3.7987                 6.2359
 Frc consts  --      1.5354                 0.9176                 1.5334
 IR Inten    --      1.1340                 0.4499                 9.2897

                     22                     23                     24
                      A                      A                      A
 Frequencies --    708.3033               752.5132               779.4881
 Red. masses --      7.4569                 1.5417                 2.6559
 Frc consts  --      2.2042                 0.5144                 0.9508
 IR Inten    --     27.0923                12.0744                15.5279

                     25                     26                     27
                      A                      A                      A
 Frequencies --    787.4592               796.3334               837.4795
 Red. masses --      4.1199                 3.6719                 1.7173
 Frc consts  --      1.5052                 1.3719                 0.7097
 IR Inten    --      9.4823                38.7631                39.3791

                     28                     29                     30
                      A                      A                      A
 Frequencies --    846.9319               886.6707               938.9822
 Red. masses --      3.7286                 1.6115                 1.6009
 Frc consts  --      1.5758                 0.7465                 0.8316
 IR Inten    --     18.2557                 7.8541                 8.0307

                     31                     32                     33
                      A                      A                      A
 Frequencies --    951.4735               965.8668               977.4247
 Red. masses --      3.8047                 1.4182                 1.3178
 Frc consts  --      2.0294                 0.7795                 0.7417
 IR Inten    --     28.2695                 5.3563                 1.9517

                     34                     35                     36
                      A                      A                      A
 Frequencies --    997.1633              1008.3465              1049.1384
 Red. masses --      1.2937                 4.5640                 8.2342
 Frc consts  --      0.7579                 2.7341                 5.3399
 IR Inten    --      0.2252                38.8740               114.4364

                     37                     38                     39
                      A                      A                      A
 Frequencies --   1053.2683              1136.8609              1170.6809
 Red. masses --      2.3014                 2.7512                 1.6805
 Frc consts  --      1.5042                 2.0950                 1.3570
 IR Inten    --      1.5895                 0.2852                 5.4852

                     40                     41                     42
                      A                      A                      A
 Frequencies --   1191.2712              1198.5237              1238.9660
 Red. masses --      1.1746                 1.2372                 2.0713
 Frc consts  --      0.9821                 1.0471                 1.8733
 IR Inten    --      1.6094                 2.8497                85.1138

                     43                     44                     45
                      A                      A                      A
 Frequencies --   1267.7687              1302.6521              1317.5493
 Red. masses --      2.1247                 1.7627                 2.7922
 Frc consts  --      2.0120                 1.7623                 2.8558
 IR Inten    --     56.7168                10.3750               138.4495

                     46                     47                     48
                      A                      A                      A
 Frequencies --   1401.9561              1417.0486              1431.5525
 Red. masses --      1.9840                 4.2394                 5.8474
 Frc consts  --      2.2976                 5.0156                 7.0603
 IR Inten    --     16.4210                 3.7386                 8.5174

                     49                     50                     51
                      A                      A                      A
 Frequencies --   1440.8481              1486.5803              1508.3444
 Red. masses --      1.2515                 2.4402                 1.3015
 Frc consts  --      1.5308                 3.1772                 1.7446
 IR Inten    --     95.3835                22.5346               187.1729

                     52                     53                     54
                      A                      A                      A
 Frequencies --   1519.9302              1563.3931              1625.0930
 Red. masses --      2.1580                 3.3253                 6.7273
 Frc consts  --      2.9373                 4.7887                10.4676
 IR Inten    --      6.8986                 4.0770                 4.1825

                     55                     56                     57
                      A                      A                      A
 Frequencies --   1659.1597              1685.5245              1746.8233
 Red. masses --      5.2514                 6.0740                 8.8042
 Frc consts  --      8.5174                10.1670                15.8285
 IR Inten    --     24.7154                47.0358               151.4481

                     58                     59                     60
                      A                      A                      A
 Frequencies --   3184.7230              3189.4817              3193.0131
 Red. masses --      1.0859                 1.0886                 1.0898
 Frc consts  --      6.4893                 6.5248                 6.5461
 IR Inten    --      1.5000                 1.1311                 8.5056

                     61                     62                     63
                      A                      A                      A
 Frequencies --   3202.0575              3213.4881              3214.7212
 Red. masses --      1.0936                 1.0925                 1.0952
 Frc consts  --      6.6067                 6.6473                 6.6685
 IR Inten    --     28.8140                 7.5969                21.2847

                     64                     65                     66
                      A                      A                      A
 Frequencies --   3253.7857              3448.7632              3574.9314
 Red. masses --      1.0927                 1.0640                 1.0672
 Frc consts  --      6.8161                 7.4564                 8.0356
 IR Inten    --      1.1735                68.5376                 4.9562

 - Thermochemistry -
 -------------------
 Temperature   298.150 Kelvin.  Pressure   1.00000 Atm.
 Atom     1 has atomic number  6 and mass  12.00000

 Molecular mass:   203.05824 amu.
 Principal axes and moments of inertia in atomic units:
                           1         2         3
     Eigenvalues --  1010.849605731.395956563.59706
           X            1.00000   0.00040   0.00159
           Y           -0.00038   0.99990  -0.01447
           Z           -0.00160   0.01447   0.99989
 This molecule is an asymmetric top.
 Rotational symmetry number  1.
 Warning -- assumption of classical behavior for rotation
           may cause significant error
 Rotational temperatures (Kelvin)      0.08568     0.01511     0.01320
 Rotational constants (GHZ):           1.78537     0.31489     0.27496
 Zero-point vibrational energy     477609.2 (Joules/Mol)
                                  114.15134 (Kcal/Mol)
 Warning -- explicit consideration of  19 degrees of freedom as
           vibrations may cause significant error
 Vibrational temperatures:     60.98    94.36   133.35   197.67   262.18
          (Kelvin)            298.43   382.98   452.97   473.99   505.37
                              579.11   595.48   653.92   695.92   705.12
                              729.51   758.84   827.54   859.94   921.25
                              929.51  1019.09  1082.70  1121.51  1132.98
                             1145.75  1204.95  1218.55  1275.72  1350.99
                             1368.96  1389.67  1406.30  1434.70  1450.79
                             1509.48  1515.42  1635.69  1684.35  1713.97
                             1724.41  1782.60  1824.04  1874.23  1895.66
                             2017.10  2038.82  2059.68  2073.06  2138.86
                             2170.17  2186.84  2249.37  2338.15  2387.16
                             2425.09  2513.29  4582.11  4588.95  4594.03
                             4607.05  4623.49  4625.27  4681.47  4962.00
                             5143.53

 Zero-point correction=                           0.181912 (Hartree/Particle)
 Thermal correction to Energy=                    0.194051
 Thermal correction to Enthalpy=                  0.194995
 Thermal correction to Gibbs Free Energy=         0.143040
 Sum of electronic and zero-point Energies=           -704.780768
 Sum of electronic and thermal Energies=              -704.768629
 Sum of electronic and thermal Enthalpies=            -704.767685
 Sum of electronic and thermal Free Energies=         -704.819640

                     E (Thermal)             CV                S
                      KCal/Mol        Cal/Mol-Kelvin    Cal/Mol-Kelvin
 Total                  121.769             47.989            109.348
 Electronic               0.000              0.000              0.000
 Translational            0.889              2.981             41.829
 Rotational               0.889              2.981             32.009
 Vibrational            119.991             42.028             35.510
 Vibration     1          0.595              1.980              5.144
 Vibration     2          0.597              1.971              4.282
 Vibration     3          0.602              1.954              3.603
 Vibration     4          0.614              1.916              2.840
 Vibration     5          0.630              1.864              2.305
 Vibration     6          0.641              1.829              2.066
 Vibration     7          0.672              1.735              1.621
 Vibration     8          0.702              1.645              1.337
 Vibration     9          0.712              1.617              1.263
 Vibration    10          0.728              1.573              1.161
 Vibration    11          0.768              1.465              0.954
 Vibration    12          0.777              1.440              0.913
 Vibration    13          0.813              1.351              0.782
 Vibration    14          0.840              1.286              0.700
 Vibration    15          0.846              1.272              0.683
 Vibration    16          0.862              1.234              0.641
 Vibration    17          0.882              1.189              0.593
 Vibration    18          0.932              1.085              0.494
 Vibration    19          0.956              1.037              0.454

 Optimization completed.
    -- Stationary point found.
 Normal termination of Gaussian 16 at Thu Dec 10 15:55:33 2020.

 ----------------------------------------------------------------------
 # B3LYP/6-311++G(d,p) empiricaldispersion=gd3bj scf=xqc pop=npa geom=c
 heck
 ----------------------------------------------------------------------

 ---------------------------------------
 CID_142625628_JID_5371_Energie_neutraal
 ---------------------------------------
 Structure from the checkpoint file:  "JID_5371.chk"
 Charge =  0 Multiplicity = 1

 SCF Done:  E(RB3LYP) =  -705.168399213     A.U. after   16 cycles
 Normal termination of Gaussian 16 at Thu Dec 10 15:58:08 2020.

 ----------------------------------------------------------------------
 # B3LYP/6-311++G(d,p) empiricaldispersion=gd3bj scf=xqc pop=npa geom=c
 heck
 ----------------------------------------------------------------------

 -------------------------------------
 CID_142625628_JID_5371_Energie_kation
 -------------------------------------
 Structure from the checkpoint file:  "JID_5371.chk"
 Charge =  1 Multiplicity = 2

 SCF Done:  E(UB3LYP) =  -704.864014515     A.U. after   25 cycles
 Normal termination of Gaussian 16 at Thu Dec 10 16:03:46 2020.
 Gaussian 16:  ES64L-G16RevA.03 25-Dec-2016

 ----------------------------------------------------------------------
 # B3LYP/6-311++G(d,p) empiricaldispersion=gd3bj scf=xqc pop=npa geom=c
 heck
 ----------------------------------------------------------------------

 ------------------------------------
 CID_142625628_JID_5371_Energie_anion
 ------------------------------------
 Structure from the checkpoint file:  "JID_5371.chk"
 Charge = -1 Multiplicity = 2

                         Standard orientation:
 ---------------------------------------------------------------------
 Center     Atomic      Atomic             Coordinates (Angstroms)
 Number     Number       Type             X           Y           Z
 ---------------------------------------------------------------------
      1          6           0       -4.289373    0.273069    0.098871
      2          6           0       -3.976032   -1.098047    0.268661
      3          6           0       -2.666592   -1.517578    0.238859
      4          6           0       -1.612858   -0.585961    0.038083
      5          6           0       -0.257919   -0.985700   -0.000646
      6          6           0        0.755935   -0.061431   -0.186233
      7          6           0        0.438983    1.315457   -0.363957
      8          6           0       -0.870524    1.724859   -0.339952
      9          6           0       -1.930187    0.800675   -0.134145
     10          6           0       -3.290384    1.199883   -0.098232
     11          6           0        2.136045   -0.585085   -0.223884
     12          8           0        2.421995   -1.769060   -0.381435
     13          7           0        3.203025    0.356952   -0.156965
     14          8           0        3.071521    1.292679    0.885133
     15          8           0        4.440859   -0.292613   -0.023839
     16          1           0       -5.327532    0.591469    0.124643
     17          1           0       -4.775964   -1.816259    0.422078
     18          1           0       -2.417551   -2.567606    0.367064
     19          1           0       -0.000639   -2.033770    0.116123
     20          1           0        1.234467    2.031296   -0.523734
     21          1           0       -1.114388    2.774041   -0.483373
     22          1           0       -3.531122    2.251524   -0.229350
     23          1           0        3.237383    0.787021    1.708707
     24          1           0        4.176606   -1.245275   -0.026805
 ---------------------------------------------------------------------

 SCF Done:  E(UB3LYP) =  -705.202062185     A.U. after   23 cycles

 The electronic state is 2-A.
 Alpha  occ. eigenvalues --  -19.04227 -19.03368 -18.95880 -14.28803 -10.11614
 Alpha  occ. eigenvalues --  -10.05072 -10.04993 -10.04788 -10.04541 -10.04388
 Alpha  occ. eigenvalues --  -10.04340 -10.04235 -10.03787 -10.03566 -10.02156
 Alpha  occ. eigenvalues --   -1.01229  -0.90966  -0.88473  -0.74335  -0.69639
 Alpha  occ. eigenvalues --   -0.66724  -0.64333  -0.61187  -0.59216  -0.51439
 Alpha  occ. eigenvalues --   -0.48982  -0.47620  -0.46304  -0.42985  -0.40921
 Alpha  occ. eigenvalues --   -0.38468  -0.37046  -0.34496  -0.33536  -0.31931
 Alpha  occ. eigenvalues --   -0.30308  -0.30024  -0.28843  -0.28316  -0.27264
 Alpha  occ. eigenvalues --   -0.26597  -0.25372  -0.24422  -0.22233  -0.21408
 Alpha  occ. eigenvalues --   -0.20831  -0.20185  -0.19773  -0.16175  -0.15057
 Alpha  occ. eigenvalues --   -0.12089  -0.11172  -0.09570   0.02356
 Alpha virt. eigenvalues --    0.08075   0.08729   0.09384   0.09635   0.10545
 Alpha virt. eigenvalues --    0.11590   0.12095   0.12543   0.12848   0.14001
 Alpha virt. eigenvalues --    0.14764   0.15432   0.16333   0.16582   0.17138

  Beta  occ. eigenvalues --  -19.04129 -19.03362 -18.95475 -14.28750 -10.11287
  Beta  occ. eigenvalues --  -10.05154 -10.04914 -10.04859 -10.04524 -10.04354
  Beta  occ. eigenvalues --  -10.04186 -10.04021 -10.03732 -10.03497 -10.01781
  Beta  occ. eigenvalues --   -1.01061  -0.90565  -0.88013  -0.74098  -0.69324
  Beta  occ. eigenvalues --   -0.66454  -0.63970  -0.61003  -0.58866  -0.50792
  Beta  occ. eigenvalues --   -0.48904  -0.47362  -0.46044  -0.42874  -0.40604
  Beta  occ. eigenvalues --   -0.38230  -0.36911  -0.34141  -0.33307  -0.31790
  Beta  occ. eigenvalues --   -0.30046  -0.29798  -0.28714  -0.28159  -0.26447
  Beta  occ. eigenvalues --   -0.26345  -0.24385  -0.24275  -0.22056  -0.21164
  Beta  occ. eigenvalues --   -0.20353  -0.20059  -0.18941  -0.15135  -0.14577
  Beta  occ. eigenvalues --   -0.11382  -0.10738  -0.08264
  Beta virt. eigenvalues --    0.07825   0.08069   0.09246   0.09411   0.09978
  Beta virt. eigenvalues --    0.10551   0.11581   0.12104   0.12825   0.13290
  Beta virt. eigenvalues --    0.14604   0.15297   0.15432   0.16547   0.16676

 Mulliken charges and spin densities:
               1          2
     1  C   -0.228099   0.170719
     2  C   -0.307619  -0.057525
     3  C   -0.339370   0.166184
     4  C    0.071692  -0.075009
     5  C    0.041224   0.300797
     6  C    0.505672   0.031449
     7  C   -0.623074   0.001172
     8  C   -0.410193   0.050287
     9  C    0.304217   0.036235
    10  C   -0.135961  -0.008448
    11  C   -0.220962   0.191807
    12  O   -0.402465   0.142288
    13  N   -0.250598  -0.001079
    14  O   -0.091303   0.007832
    15  O   -0.054680  -0.002328
    16  H    0.112016  -0.012448
    17  H    0.114380   0.004159
    18  H    0.093485  -0.011825
    19  H    0.136924  -0.021299
    20  H    0.164436   0.015947
    21  H    0.079392  -0.002890
    22  H    0.084715  -0.002009
    23  H    0.124903   0.069122
    24  H    0.231270   0.006864
 Sum of Mulliken charges =  -1.00000   1.00000

 Dipole moment (field-independent basis, Debye):
    X=             -2.8507    Y=              0.6953    Z=              1.4341  Tot=              3.2660
 Quadrupole moment (field-independent basis, Debye-Ang):
   XX=           -137.9906   YY=            -98.5436   ZZ=            -95.2095
   XY=             -1.1948   XZ=              4.5082   YZ=             -2.8899

 Summary of Natural Population Analysis:

                                       Natural Population
                Natural  -----------------------------------------------
    Atom  No    Charge         Core      Valence    Rydberg      Total
 -----------------------------------------------------------------------
      C    1   -0.06888      0.99958     2.05980    0.00951     3.06888
      C    2   -0.13972      0.99960     2.12996    0.01017     3.13972
      C    3   -0.04162      0.99943     2.03139    0.01080     3.04162
      C    4   -0.05925      0.99954     2.04867    0.01105     3.05925
      C    5    0.03482      0.99953     1.96054    0.00511     2.96518
      C    6   -0.07729      0.99950     2.06500    0.01279     3.07729
      C    7   -0.08191      0.99954     2.07378    0.00859     3.08191
      C    8   -0.09988      0.99954     2.09101    0.00932     3.09988
      C    9   -0.00846      0.99949     2.00079    0.00818     3.00846
      C   10   -0.10180      0.99954     2.09340    0.00887     3.10180
      C   11    0.36382      0.99960     1.61358    0.02299     2.63618
      O   12   -0.28753      0.99987     3.28048    0.00717     4.28753
      N   13    0.02316      0.99967     2.45784    0.01933     3.47684
      O   14   -0.27054      0.99990     3.26243    0.00821     4.27054
      O   15   -0.29979      0.99990     3.29153    0.00836     4.29979
      H   16    0.08840      0.00000     0.41050    0.00110     0.41160
      H   17    0.09174      0.00000     0.40715    0.00111     0.40826
      H   18    0.09483      0.00000     0.40460    0.00057     0.40517
      H   19    0.10060      0.00000     0.39861    0.00079     0.39940
      H   20    0.10544      0.00000     0.39286    0.00170     0.39456
      H   21    0.09029      0.00000     0.40817    0.00154     0.40971
      H   22    0.09091      0.00000     0.40754    0.00155     0.40909
      H   23    0.21660      0.00000     0.27827    0.00512     0.28340
      H   24    0.23626      0.00000     0.25912    0.00462     0.26374
 =======================================================================
   * Total *    0.00021     14.99422    37.82702    0.17855    52.99979

 Normal termination of Gaussian 16 at Thu Dec 10 16:08:26 2020.
