 Gaussian 16, Revision A.03,

 -----------------------------------------------------------
 # opt freq B3LYP/6-31G(d) empiricaldispersion=gd3bj scf=xqc
 -----------------------------------------------------------

 -------------------------------
 CID_145408378_JID_7040_neutraal
 -------------------------------
 Symbolic Z-matrix:
 Charge =  0 Multiplicity = 1

 SCF Done:  E(RB3LYP) =  -1377.59840596     A.U. after   14 cycles
 SCF Done:  E(RB3LYP) =  -1377.60275057     A.U. after   13 cycles
 SCF Done:  E(RB3LYP) =  -1377.60595799     A.U. after   14 cycles
 SCF Done:  E(RB3LYP) =  -1377.60598094     A.U. after   14 cycles
 SCF Done:  E(RB3LYP) =  -1377.60900552     A.U. after   13 cycles
 SCF Done:  E(RB3LYP) =  -1377.60784752     A.U. after   13 cycles
 SCF Done:  E(RB3LYP) =  -1377.60958377     A.U. after   13 cycles
 SCF Done:  E(RB3LYP) =  -1377.60981000     A.U. after   12 cycles
 SCF Done:  E(RB3LYP) =  -1377.60990019     A.U. after   12 cycles
 SCF Done:  E(RB3LYP) =  -1377.60993011     A.U. after   12 cycles
 SCF Done:  E(RB3LYP) =  -1377.60995946     A.U. after   10 cycles
 SCF Done:  E(RB3LYP) =  -1377.60996782     A.U. after   10 cycles
 SCF Done:  E(RB3LYP) =  -1377.60996902     A.U. after    8 cycles
 SCF Done:  E(RB3LYP) =  -1377.60996951     A.U. after    8 cycles
 SCF Done:  E(RB3LYP) =  -1377.60996950     A.U. after    7 cycles
 Optimization completed.
    -- Stationary point found.
 Normal termination of Gaussian 16 at Fri Dec 11 11:51:11 2020.

 --------------------------------------------------------------------
 #N Geom=AllCheck Guess=TCheck SCRF=Check GenChk RB3LYP/6-31G(d) Freq
 --------------------------------------------------------------------

 Structure from the checkpoint file:  "JID_7040.chk"
 -------------------------------
 CID_145408378_JID_7040_neutraal
 -------------------------------
 Charge =  0 Multiplicity = 1

 SCF Done:  E(RB3LYP) =  -1377.60996950     A.U. after    1 cycles

  Exact polarizability: 239.979 -16.534 186.274  12.941 -41.693 163.898
 Approx polarizability: 393.675 -48.820 318.068  46.598-101.179 280.701

                      1                      2                      3
                      A                      A                      A
 Frequencies --     32.5885                38.5388                61.8585
 Red. masses --      4.1971                 4.3134                 3.6771
 Frc consts  --      0.0026                 0.0038                 0.0083
 IR Inten    --      0.0323                 0.0502                 0.0295

                      4                      5                      6
                      A                      A                      A
 Frequencies --     66.1004                73.5163                83.8407
 Red. masses --      3.7560                 4.8952                 4.8855
 Frc consts  --      0.0097                 0.0156                 0.0202
 IR Inten    --      0.4737                 0.0703                 0.2863

                      7                      8                      9
                      A                      A                      A
 Frequencies --    103.8570               120.4015               169.7477
 Red. masses --      1.1360                 3.7485                 3.8082
 Frc consts  --      0.0072                 0.0320                 0.0647
 IR Inten    --      0.1964                 0.7217                 2.8957

                     10                     11                     12
                      A                      A                      A
 Frequencies --    185.1541               199.5091               205.7253
 Red. masses --      3.8864                 2.3449                 2.6673
 Frc consts  --      0.0785                 0.0550                 0.0665
 IR Inten    --      0.2885                 8.7920                 8.9293

                     13                     14                     15
                      A                      A                      A
 Frequencies --    224.5324               250.5568               289.7466
 Red. masses --      4.8444                 2.4545                 4.4913
 Frc consts  --      0.1439                 0.0908                 0.2222
 IR Inten    --      0.4637                 3.4600                 2.4173

                     16                     17                     18
                      A                      A                      A
 Frequencies --    310.4513               327.9915               345.6160
 Red. masses --      5.6249                 3.7466                 3.8605
 Frc consts  --      0.3194                 0.2375                 0.2717
 IR Inten    --      0.5031                 0.5212                 1.0409

                     19                     20                     21
                      A                      A                      A
 Frequencies --    418.2504               427.4422               443.9714
 Red. masses --      3.1156                 4.2510                 2.5090
 Frc consts  --      0.3211                 0.4576                 0.2914
 IR Inten    --      0.5324                 0.5766                 0.8421

                     22                     23                     24
                      A                      A                      A
 Frequencies --    474.6033               493.6635               513.6069
 Red. masses --      1.2121                 3.1301                 3.8660
 Frc consts  --      0.1609                 0.4494                 0.6009
 IR Inten    --      3.2915                 6.1007                 3.3083

                     25                     26                     27
                      A                      A                      A
 Frequencies --    555.9640               593.5347               619.1186
 Red. masses --      3.1618                 3.4060                 3.3867
 Frc consts  --      0.5758                 0.7069                 0.7648
 IR Inten    --      6.2350                 7.3871                 1.1665

                     28                     29                     30
                      A                      A                      A
 Frequencies --    633.1895               638.7769               707.2109
 Red. masses --      4.2943                 5.3073                 1.8346
 Frc consts  --      1.0144                 1.2759                 0.5406
 IR Inten    --     15.7218                 1.2954                 3.9114

                     31                     32                     33
                      A                      A                      A
 Frequencies --    712.2405               748.2264               764.1527
 Red. masses --      1.4059                 3.0301                 1.6517
 Frc consts  --      0.4202                 0.9995                 0.5683
 IR Inten    --     51.3590                 4.0680                48.3350

                     34                     35                     36
                      A                      A                      A
 Frequencies --    771.4989               796.7683               830.7729
 Red. masses --      1.7316                 2.3960                 1.7291
 Frc consts  --      0.6073                 0.8962                 0.7031
 IR Inten    --      4.1205                 2.1654                 2.9524

                     37                     38                     39
                      A                      A                      A
 Frequencies --    856.4920               865.5684               916.7071
 Red. masses --      1.2991                 2.9126                 1.3813
 Frc consts  --      0.5615                 1.2857                 0.6839
 IR Inten    --      1.7627                 6.6117                27.9077

                     40                     41                     42
                      A                      A                      A
 Frequencies --    921.2104               935.4818               955.5738
 Red. masses --      1.7397                 1.8684                 1.8322
 Frc consts  --      0.8699                 0.9634                 0.9857
 IR Inten    --      5.6948                 3.0962                 8.2236

                     43                     44                     45
                      A                      A                      A
 Frequencies --    957.1903               970.0838               974.5431
 Red. masses --      1.7497                 1.3497                 1.4633
 Frc consts  --      0.9445                 0.7483                 0.8188
 IR Inten    --     14.6947                 0.2467                 8.7957

                     46                     47                     48
                      A                      A                      A
 Frequencies --    985.8128               993.6541              1015.3485
 Red. masses --      1.2960                 1.2532                 1.2034
 Frc consts  --      0.7421                 0.7290                 0.7310
 IR Inten    --      0.8186                 0.9226                 1.0570

                     49                     50                     51
                      A                      A                      A
 Frequencies --   1021.8922              1041.2199              1049.0123
 Red. masses --      5.9476                 1.6482                 3.0098
 Frc consts  --      3.6593                 1.0528                 1.9514
 IR Inten    --      0.2612                 1.6016                 7.5837

                     52                     53                     54
                      A                      A                      A
 Frequencies --   1067.5726              1069.9660              1117.9451
 Red. masses --      2.0077                 1.5070                 1.5845
 Frc consts  --      1.3482                 1.0165                 1.1668
 IR Inten    --      9.5575                 1.0394                 2.2065

                     55                     56                     57
                      A                      A                      A
 Frequencies --   1153.9584              1193.9433              1217.1646
 Red. masses --      2.0038                 1.0949                 1.1364
 Frc consts  --      1.5721                 0.9196                 0.9919
 IR Inten    --      2.5449                 0.0935                 0.9999

                     58                     59                     60
                      A                      A                      A
 Frequencies --   1250.8731              1270.6634              1307.9017
 Red. masses --      2.1766                 1.8586                 1.2912
 Frc consts  --      2.0066                 1.7680                 1.3013
 IR Inten    --      4.1854                 7.5963                 5.2034

                     61                     62                     63
                      A                      A                      A
 Frequencies --   1342.1179              1351.8134              1369.3088
 Red. masses --      2.8156                 2.0049                 1.8798
 Frc consts  --      2.9882                 2.1586                 2.0766
 IR Inten    --      1.9566                10.2727                 1.5093

                     64                     65                     66
                      A                      A                      A
 Frequencies --   1398.6426              1437.3340              1449.0670
 Red. masses --      1.3376                 1.3052                 1.3348
 Frc consts  --      1.5416                 1.5887                 1.6514
 IR Inten    --      3.3656                 4.5341                 5.6994

                     67                     68                     69
                      A                      A                      A
 Frequencies --   1491.2105              1492.5966              1509.2009
 Red. masses --      1.7009                 1.8605                 1.0734
 Frc consts  --      2.2285                 2.4421                 1.4405
 IR Inten    --      4.9843                 3.7308                 5.9681

                     70                     71                     72
                      A                      A                      A
 Frequencies --   1517.6667              1541.3801              1595.2774
 Red. masses --      1.0818                 2.2078                 8.4839
 Frc consts  --      1.4681                 3.0905                12.7210
 IR Inten    --     12.1771                 5.2261                20.5198

                     73                     74                     75
                      A                      A                      A
 Frequencies --   1636.9680              1649.1459              1660.6473
 Red. masses --      5.4152                 4.4305                 5.5132
 Frc consts  --      8.5496                 7.0995                 8.9580
 IR Inten    --      2.0744                 6.1604                 1.5737

                     76                     77                     78
                      A                      A                      A
 Frequencies --   1682.7377              1720.6033              2633.2239
 Red. masses --      5.7581                 5.6140                 1.0384
 Frc consts  --      9.6065                 9.7924                 4.2423
 IR Inten    --      5.2707                13.0617                10.0516

                     79                     80                     81
                      A                      A                      A
 Frequencies --   2648.6453              3033.3373              3074.5115
 Red. masses --      1.0380                 1.0411                 1.0994
 Frc consts  --      4.2902                 5.6440                 6.1227
 IR Inten    --     10.7574                31.2057                24.0598

                     82                     83                     84
                      A                      A                      A
 Frequencies --   3138.2289              3158.0864              3161.8335
 Red. masses --      1.0936                 1.0885                 1.0841
 Frc consts  --      6.3458                 6.3963                 6.3855
 IR Inten    --      3.4872                23.5250                 0.0635

                     85                     86                     87
                      A                      A                      A
 Frequencies --   3175.5325              3183.0871              3183.4467
 Red. masses --      1.0612                 1.0857                 1.0904
 Frc consts  --      6.3048                 6.4813                 6.5105
 IR Inten    --      2.6596                 2.3875                18.5685

                     88                     89                     90
                      A                      A                      A
 Frequencies --   3193.1791              3198.1864              3206.4291
 Red. masses --      1.0896                 1.0911                 1.0946
 Frc consts  --      6.5455                 6.5755                 6.6302
 IR Inten    --     15.3715                16.4406                35.7788

                     91                     92                     93
                      A                      A                      A
 Frequencies --   3221.7303              3228.3996              3263.5096
 Red. masses --      1.0934                 1.0926                 1.1162
 Frc consts  --      6.6869                 6.7096                 7.0041
 IR Inten    --      8.6354                 3.7446                 6.0499

 - Thermochemistry -
 -------------------
 Temperature   298.150 Kelvin.  Pressure   1.00000 Atm.
 Atom     1 has atomic number  6 and mass  12.00000

 Molecular mass:   260.06934 amu.
 Principal axes and moments of inertia in atomic units:
                           1         2         3
     Eigenvalues --  4012.011645363.711765913.07296
           X            0.99878  -0.04941   0.00108
           Y            0.04937   0.99655  -0.06664
           Z            0.00222   0.06661   0.99778
 This molecule is an asymmetric top.
 Rotational symmetry number  1.
 Warning -- assumption of classical behavior for rotation
           may cause significant error
 Rotational temperatures (Kelvin)      0.02159     0.01615     0.01465
 Rotational constants (GHZ):           0.44983     0.33647     0.30521
 Zero-point vibrational energy     687192.3 (Joules/Mol)
                                  164.24291 (Kcal/Mol)
 Warning -- explicit consideration of  27 degrees of freedom as
           vibrations may cause significant error
 Vibrational temperatures:     46.89    55.45    89.00    95.10   105.77
          (Kelvin)            120.63   149.43   173.23   244.23   266.40
                              287.05   295.99   323.05   360.50   416.88
                              446.67   471.91   497.26   601.77   614.99
                              638.78   682.85   710.27   738.97   799.91
                              853.96   890.77   911.02   919.06  1017.52
                             1024.76  1076.53  1099.45  1110.01  1146.37
                             1195.30  1232.30  1245.36  1318.94  1325.42
                             1345.95  1374.86  1377.18  1395.73  1402.15
                             1418.36  1429.65  1460.86  1470.27  1498.08
                             1509.29  1536.00  1539.44  1608.47  1660.29
                             1717.82  1751.23  1799.73  1828.20  1881.78
                             1931.01  1944.96  1970.13  2012.33  2068.00
                             2084.88  2145.52  2147.51  2171.40  2183.58
                             2217.70  2295.25  2355.23  2372.75  2389.30
                             2421.08  2475.56  3788.62  3810.81  4364.30
                             4423.54  4515.21  4543.78  4549.17  4568.88
                             4579.75  4580.27  4594.27  4601.48  4613.34
                             4635.35  4644.95  4695.46

 Zero-point correction=                           0.261738 (Hartree/Particle)
 Thermal correction to Energy=                    0.279654
 Thermal correction to Enthalpy=                  0.280598
 Thermal correction to Gibbs Free Energy=         0.214823
 Sum of electronic and zero-point Energies=          -1377.348232
 Sum of electronic and thermal Energies=             -1377.330315
 Sum of electronic and thermal Enthalpies=           -1377.329371
 Sum of electronic and thermal Free Energies=        -1377.395147

                     E (Thermal)             CV                S
                      KCal/Mol        Cal/Mol-Kelvin    Cal/Mol-Kelvin
 Total                  175.486             66.937            138.436
 Electronic               0.000              0.000              0.000
 Translational            0.889              2.981             42.567
 Rotational               0.889              2.981             33.209
 Vibrational            173.708             60.975             62.660
 Vibration     1          0.594              1.983              5.665
 Vibration     2          0.594              1.981              5.333
 Vibration     3          0.597              1.973              4.397
 Vibration     4          0.598              1.970              4.266
 Vibration     5          0.599              1.966              4.057
 Vibration     6          0.601              1.960              3.799
 Vibration     7          0.605              1.946              3.381
 Vibration     8          0.609              1.932              3.094
 Vibration     9          0.625              1.880              2.438
 Vibration    10          0.631              1.860              2.276
 Vibration    11          0.638              1.841              2.138
 Vibration    12          0.640              1.832              2.081
 Vibration    13          0.649              1.804              1.922
 Vibration    14          0.663              1.762              1.727
 Vibration    15          0.686              1.693              1.475
 Vibration    16          0.699              1.654              1.360
 Vibration    17          0.711              1.620              1.270
 Vibration    18          0.724              1.584              1.186
 Vibration    19          0.781              1.431              0.898
 Vibration    20          0.789              1.411              0.867
 Vibration    21          0.803              1.374              0.814
 Vibration    22          0.831              1.306              0.725
 Vibration    23          0.849              1.264              0.674
 Vibration    24          0.869              1.220              0.625
 Vibration    25          0.911              1.127              0.532
 Vibration    26          0.951              1.046              0.461
 Vibration    27          0.979              0.992              0.418

                           ! Non-Optimized Parameters !
 Normal termination of Gaussian 16 at Fri Dec 11 12:06:03 2020.

 ----------------------------------------------------------------------
 # B3LYP/6-311++G(d,p) empiricaldispersion=gd3bj scf=xqc pop=npa geom=c
 heck
 ----------------------------------------------------------------------

 ---------------------------------------
 CID_145408378_JID_7040_Energie_neutraal
 ---------------------------------------
 Structure from the checkpoint file:  "JID_7040.chk"
 Charge =  0 Multiplicity = 1

 SCF Done:  E(RB3LYP) =  -1377.82252196     A.U. after   17 cycles
 Normal termination of Gaussian 16 at Fri Dec 11 12:13:54 2020.

 ----------------------------------------------------------------------
 # B3LYP/6-311++G(d,p) empiricaldispersion=gd3bj scf=xqc pop=npa geom=c
 heck
 ----------------------------------------------------------------------

 -------------------------------------
 CID_145408378_JID_7040_Energie_kation
 -------------------------------------
 Structure from the checkpoint file:  "JID_7040.chk"
 Charge =  1 Multiplicity = 2

 SCF Done:  E(UB3LYP) =  -1377.56008133     A.U. after   27 cycles
 Normal termination of Gaussian 16 at Fri Dec 11 12:28:30 2020.
 Gaussian 16:  ES64L-G16RevA.03 25-Dec-2016

 ----------------------------------------------------------------------
 # B3LYP/6-311++G(d,p) empiricaldispersion=gd3bj scf=xqc pop=npa geom=c
 heck
 ----------------------------------------------------------------------

 ------------------------------------
 CID_145408378_JID_7040_Energie_anion
 ------------------------------------
 Structure from the checkpoint file:  "JID_7040.chk"
 Charge = -1 Multiplicity = 2

                         Standard orientation:
 ---------------------------------------------------------------------
 Center     Atomic      Atomic             Coordinates (Angstroms)
 Number     Number       Type             X           Y           Z
 ---------------------------------------------------------------------
      1          6           0       -2.331233    3.248518    0.446648
      2          6           0       -0.869340    3.060394    0.170852
      3          6           0       -0.045087    2.159549    0.737841
      4          6           0       -0.409906    1.236655    1.802830
      5          6           0        0.219838    0.097313    2.160127
      6          6           0        1.368326   -0.562194    1.518274
      7          6           0        2.170688   -1.361375    2.250449
      8          6           0        1.634671   -0.347938    0.063151
      9          6           0        0.664080   -0.415396   -0.885169
     10          6           0       -0.686886   -0.957134   -0.610128
     11          6           0       -1.838722   -0.261388   -1.010077
     12          6           0       -3.103757   -0.749399   -0.695137
     13          6           0       -3.241352   -1.949909    0.005486
     14          6           0       -2.102624   -2.662191    0.383877
     15          6           0       -0.835606   -2.172298    0.074990
     16         16           0        0.893877    0.113089   -2.577106
     17         16           0        3.326189    0.114444   -0.264244
     18          1           0       -2.915123    3.101633   -0.472320
     19          1           0       -2.541877    4.270276    0.790050
     20          1           0       -2.714478    2.547187    1.191442
     21          1           0       -0.450369    3.714977   -0.592777
     22          1           0        0.981992    2.125103    0.386966
     23          1           0       -1.278151    1.508808    2.398485
     24          1           0       -0.151659   -0.419986    3.042129
     25          1           0        3.025115   -1.868638    1.816368
     26          1           0        1.984848   -1.515216    3.309456
     27          1           0       -1.730562    0.676024   -1.543290
     28          1           0       -3.985523   -0.191114   -0.997327
     29          1           0       -4.229627   -2.331403    0.246437
     30          1           0       -2.199961   -3.605097    0.914751
     31          1           0        0.050225   -2.724296    0.369339
     32          1           0        1.716811    1.156591   -2.320524
     33          1           0        3.358737   -0.264612   -1.561659
 ---------------------------------------------------------------------

 SCF Done:  E(UB3LYP) =  -1377.83784525     A.U. after   29 cycles

 The electronic state is 2-A.
 Alpha  occ. eigenvalues --  -88.73047 -88.72914 -10.07470 -10.06978 -10.05850
 Alpha  occ. eigenvalues --  -10.05676 -10.05465 -10.05147 -10.05021 -10.04730
 Alpha  occ. eigenvalues --  -10.04417 -10.04262 -10.04071 -10.03946 -10.03465
 Alpha  occ. eigenvalues --  -10.02824 -10.00844  -7.81742  -7.81611  -5.78108
 Alpha  occ. eigenvalues --   -5.77971  -5.77730  -5.77588  -5.77175  -5.77062
 Alpha  occ. eigenvalues --   -0.74338  -0.71457  -0.68298  -0.66261  -0.63884
 Alpha  occ. eigenvalues --   -0.62463  -0.61522  -0.60195  -0.56035  -0.55670
 Alpha  occ. eigenvalues --   -0.48976  -0.48185  -0.47275  -0.44168  -0.41209
 Alpha  occ. eigenvalues --   -0.39723  -0.36768  -0.36109  -0.34601  -0.33344
 Alpha  occ. eigenvalues --   -0.32554  -0.31437  -0.31268  -0.30521  -0.29904
 Alpha  occ. eigenvalues --   -0.28959  -0.27391  -0.26840  -0.25411  -0.25081
 Alpha  occ. eigenvalues --   -0.24459  -0.23724  -0.23000  -0.22033  -0.21940
 Alpha  occ. eigenvalues --   -0.19947  -0.18741  -0.18021  -0.15505  -0.14983
 Alpha  occ. eigenvalues --   -0.13711  -0.13107  -0.08893  -0.07354   0.03396
 Alpha virt. eigenvalues --    0.07702   0.08070   0.08573   0.08741   0.09617
 Alpha virt. eigenvalues --    0.10232   0.10662   0.10784   0.10926   0.11304
 Alpha virt. eigenvalues --    0.11862   0.12405   0.12609   0.13086   0.13129

  Beta  occ. eigenvalues --  -88.73033 -88.72892 -10.07358 -10.06839 -10.05846
  Beta  occ. eigenvalues --  -10.05682 -10.05511 -10.05131 -10.04889 -10.04697
  Beta  occ. eigenvalues --  -10.04305 -10.04128 -10.04048 -10.03970 -10.03411
  Beta  occ. eigenvalues --  -10.02706 -10.00414  -7.81726  -7.81587  -5.78099
  Beta  occ. eigenvalues --   -5.77945  -5.77714  -5.77561  -5.77149  -5.77026
  Beta  occ. eigenvalues --   -0.74143  -0.71201  -0.68100  -0.65973  -0.63694
  Beta  occ. eigenvalues --   -0.62347  -0.61345  -0.59901  -0.55925  -0.55335
  Beta  occ. eigenvalues --   -0.48739  -0.47996  -0.46821  -0.43824  -0.41060
  Beta  occ. eigenvalues --   -0.39597  -0.36608  -0.35961  -0.34465  -0.33254
  Beta  occ. eigenvalues --   -0.32406  -0.31274  -0.31114  -0.30407  -0.29844
  Beta  occ. eigenvalues --   -0.28817  -0.27243  -0.26683  -0.25210  -0.25005
  Beta  occ. eigenvalues --   -0.24191  -0.23569  -0.22860  -0.21922  -0.21829
  Beta  occ. eigenvalues --   -0.19654  -0.18348  -0.17485  -0.15254  -0.14322
  Beta  occ. eigenvalues --   -0.13247  -0.12601  -0.08155  -0.06109
  Beta virt. eigenvalues --    0.07429   0.07982   0.08455   0.08849   0.09207
  Beta virt. eigenvalues --    0.09612   0.10180   0.10646   0.10880   0.11081
  Beta virt. eigenvalues --    0.11273   0.11995   0.12569   0.12786   0.13073

 Mulliken charges and spin densities:
               1          2
     1  C   -0.572336  -0.051568
     2  C   -0.526109   0.088771
     3  C    0.570979   0.022138
     4  C   -0.467688   0.081719
     5  C   -0.374983   0.029504
     6  C    0.428688  -0.031604
     7  C   -0.707020   0.385542
     8  C   -0.541158   0.250881
     9  C    0.149641   0.076098
    10  C    1.369624  -0.060344
    11  C   -0.593598   0.066188
    12  C   -0.306845   0.009114
    13  C   -0.262697   0.055283
    14  C   -0.359521  -0.014382
    15  C    0.111982   0.008025
    16  S   -0.318973  -0.055899
    17  S   -0.275053  -0.087478
    18  H    0.129563   0.015440
    19  H    0.113878   0.003783
    20  H    0.109456   0.009675
    21  H    0.093767   0.014902
    22  H    0.196824   0.013024
    23  H    0.104674  -0.010736
    24  H    0.107008   0.031657
    25  H    0.078206   0.011675
    26  H    0.104957  -0.028693
    27  H    0.095520  -0.004864
    28  H    0.127855   0.013088
    29  H    0.119640  -0.012853
    30  H    0.127004   0.011333
    31  H    0.201717   0.029711
    32  H   -0.025364   0.059835
    33  H   -0.009639   0.071036
 Sum of Mulliken charges =  -1.00000   1.00000

 Dipole moment (field-independent basis, Debye):
    X=             -2.6056    Y=              0.9645    Z=             -1.3563  Tot=              3.0918
 Quadrupole moment (field-independent basis, Debye-Ang):
   XX=           -147.2348   YY=           -140.1678   ZZ=           -141.3835
   XY=             -0.1245   XZ=             -6.8203   YZ=             -3.1227

 Summary of Natural Population Analysis:

                                       Natural Population
                Natural  -----------------------------------------------
    Atom  No    Charge         Core      Valence    Rydberg      Total
 -----------------------------------------------------------------------
      C    1   -0.30361      0.99966     2.29914    0.00481     3.30361
      C    2   -0.06824      0.99956     2.05987    0.00881     3.06824
      C    3   -0.11708      0.99952     2.10703    0.01053     3.11708
      C    4   -0.09546      0.99953     2.08742    0.00852     3.09546
      C    5   -0.07563      0.99952     2.06472    0.01139     3.07563
      C    6   -0.06646      0.99945     2.05453    0.01248     3.06646
      C    7   -0.07907      0.99953     2.07205    0.00748     3.07907
      C    8   -0.06762      0.99927     2.05506    0.01329     3.06762
      C    9   -0.08055      0.99926     2.06772    0.01357     3.08055
      C   10   -0.03120      0.99946     2.01983    0.01191     3.03120
      C   11   -0.06963      0.99952     2.06150    0.00861     3.06963
      C   12   -0.11827      0.99957     2.11006    0.00864     3.11827
      C   13   -0.08453      0.99957     2.07598    0.00898     3.08453
      C   14   -0.10776      0.99957     2.09982    0.00837     3.10776
      C   15   -0.08099      0.99952     2.07059    0.01087     3.08099
      S   16   -0.00080      4.99956     2.98479    0.01645     8.00080
      S   17    0.01455      4.99955     2.96898    0.01692     7.98545
      H   18    0.09909      0.00000     0.39989    0.00102     0.40091
      H   19    0.09427      0.00000     0.40461    0.00112     0.40573
      H   20    0.10221      0.00000     0.39691    0.00089     0.39779
      H   21    0.08263      0.00000     0.41559    0.00178     0.41737
      H   22    0.10241      0.00000     0.39620    0.00139     0.39759
      H   23    0.08825      0.00000     0.41023    0.00152     0.41175
      H   24    0.09121      0.00000     0.40746    0.00133     0.40879
      H   25    0.08799      0.00000     0.41092    0.00109     0.41201
      H   26    0.08181      0.00000     0.41726    0.00093     0.41819
      H   27    0.10458      0.00000     0.39354    0.00188     0.39542
      H   28    0.09285      0.00000     0.40576    0.00139     0.40715
      H   29    0.09034      0.00000     0.40867    0.00099     0.40966
      H   30    0.09389      0.00000     0.40519    0.00092     0.40611
      H   31    0.10660      0.00000     0.39199    0.00141     0.39340
      H   32    0.05836      0.00000     0.43722    0.00442     0.44164
      H   33    0.05585      0.00000     0.44000    0.00415     0.44415
 =======================================================================
   * Total *    0.00000     24.99161    43.80055    0.20785    69.00000

 Normal termination of Gaussian 16 at Fri Dec 11 12:49:34 2020.
