 Gaussian 16, Revision A.03,

 -----------------------------------------------------------
 # opt freq B3LYP/6-31G(d) empiricaldispersion=gd3bj scf=xqc
 -----------------------------------------------------------

 -------------------------------
 CID_107710563_JID_6556_neutraal
 -------------------------------
 Symbolic Z-matrix:
 Charge =  0 Multiplicity = 1

 SCF Done:  E(RB3LYP) =  -741.703519249     A.U. after   14 cycles
 SCF Done:  E(RB3LYP) =  -741.709352781     A.U. after   13 cycles
 SCF Done:  E(RB3LYP) =  -741.711453970     A.U. after   12 cycles
 SCF Done:  E(RB3LYP) =  -741.711811531     A.U. after   13 cycles
 SCF Done:  E(RB3LYP) =  -741.712230361     A.U. after   12 cycles
 SCF Done:  E(RB3LYP) =  -741.712379953     A.U. after   12 cycles
 SCF Done:  E(RB3LYP) =  -741.712444196     A.U. after   11 cycles
 SCF Done:  E(RB3LYP) =  -741.712465411     A.U. after   10 cycles
 SCF Done:  E(RB3LYP) =  -741.712475922     A.U. after   10 cycles
 SCF Done:  E(RB3LYP) =  -741.712481017     A.U. after    9 cycles
 SCF Done:  E(RB3LYP) =  -741.712484960     A.U. after    9 cycles
 SCF Done:  E(RB3LYP) =  -741.712485505     A.U. after    7 cycles
 SCF Done:  E(RB3LYP) =  -741.712485637     A.U. after    7 cycles
 Optimization completed.
    -- Stationary point found.
 Normal termination of Gaussian 16 at Thu Dec 10 23:34:36 2020.

 --------------------------------------------------------------------
 #N Geom=AllCheck Guess=TCheck SCRF=Check GenChk RB3LYP/6-31G(d) Freq
 --------------------------------------------------------------------

 Structure from the checkpoint file:  "JID_6556.chk"
 -------------------------------
 CID_107710563_JID_6556_neutraal
 -------------------------------
 Charge =  0 Multiplicity = 1

 SCF Done:  E(RB3LYP) =  -741.712485637     A.U. after    1 cycles

  Exact polarizability: 127.633  12.185 140.502  -3.239  11.726 122.845
 Approx polarizability: 176.691  24.986 240.026  -4.136  35.141 208.937

                      1                      2                      3
                      A                      A                      A
 Frequencies --     35.4427                49.6834                72.7577
 Red. masses --      6.3116                 5.3290                 4.1989
 Frc consts  --      0.0047                 0.0078                 0.0131
 IR Inten    --      0.8753                 0.4204                 1.6243

                      4                      5                      6
                      A                      A                      A
 Frequencies --    105.5641               148.7868               194.8917
 Red. masses --      5.6864                 3.4750                 4.3747
 Frc consts  --      0.0373                 0.0453                 0.0979
 IR Inten    --      1.5865                 1.0469                 0.8251

                      7                      8                      9
                      A                      A                      A
 Frequencies --    207.1328               237.6467               241.2280
 Red. masses --      3.6222                 2.8381                 2.1032
 Frc consts  --      0.0916                 0.0944                 0.0721
 IR Inten    --      3.5460                 0.0731                 0.3033

                     10                     11                     12
                      A                      A                      A
 Frequencies --    253.6480               323.4594               341.8058
 Red. masses --      1.9685                 1.7974                 2.4359
 Frc consts  --      0.0746                 0.1108                 0.1677
 IR Inten    --      0.7219                91.8511                26.9100

                     13                     14                     15
                      A                      A                      A
 Frequencies --    352.7685               366.8325               379.6283
 Red. masses --      1.3603                 1.8096                 4.1208
 Frc consts  --      0.0997                 0.1435                 0.3499
 IR Inten    --      2.5309                77.4833                10.7966

                     16                     17                     18
                      A                      A                      A
 Frequencies --    404.5958               425.5424               469.5420
 Red. masses --      1.5035                 4.0532                 4.3618
 Frc consts  --      0.1450                 0.4324                 0.5666
 IR Inten    --     61.7748                 3.5545                 7.1135

                     19                     20                     21
                      A                      A                      A
 Frequencies --    501.3599               540.5226               565.7764
 Red. masses --      4.3046                 6.2686                 4.1867
 Frc consts  --      0.6375                 1.0791                 0.7896
 IR Inten    --     12.4111                 0.4020                 3.3068

                     22                     23                     24
                      A                      A                      A
 Frequencies --    595.5105               620.4897               634.4828
 Red. masses --      4.0602                 4.3444                 2.3718
 Frc consts  --      0.8483                 0.9855                 0.5625
 IR Inten    --      4.5668                 0.3366                34.2473

                     25                     26                     27
                      A                      A                      A
 Frequencies --    665.3382               692.1026               708.9442
 Red. masses --      2.6964                 3.0438                 3.1971
 Frc consts  --      0.7033                 0.8590                 0.9467
 IR Inten    --     40.8680                45.4253                25.3101

                     28                     29                     30
                      A                      A                      A
 Frequencies --    731.6256               755.5534               766.8107
 Red. masses --      1.4994                 1.5868                 3.2609
 Frc consts  --      0.4729                 0.5337                 1.1297
 IR Inten    --     21.1095                27.2093                33.8868

                     31                     32                     33
                      A                      A                      A
 Frequencies --    796.6266               818.2169               821.6357
 Red. masses --      3.6479                 1.4568                 1.8770
 Frc consts  --      1.3640                 0.5746                 0.7466
 IR Inten    --      5.7312                 0.0820                15.7556

                     34                     35                     36
                      A                      A                      A
 Frequencies --    839.9247               933.2998               946.8591
 Red. masses --      1.5963                 1.2354                 1.7951
 Frc consts  --      0.6635                 0.6340                 0.9482
 IR Inten    --     83.0341                 0.0826                 3.3247

                     37                     38                     39
                      A                      A                      A
 Frequencies --    953.5234              1006.5435              1033.2921
 Red. masses --      6.0621                 2.9430                 2.7948
 Frc consts  --      3.2474                 1.7567                 1.7581
 IR Inten    --     22.3263                92.7669                44.9833

                     40                     41                     42
                      A                      A                      A
 Frequencies --   1059.8049              1089.5917              1114.8228
 Red. masses --      2.1352                 2.4261                 2.0491
 Frc consts  --      1.4130                 1.6970                 1.5004
 IR Inten    --     65.2849                 6.6766                10.1191

                     43                     44                     45
                      A                      A                      A
 Frequencies --   1131.6896              1164.2460              1170.8799
 Red. masses --      2.5122                 2.4277                 2.0486
 Frc consts  --      1.8957                 1.9388                 1.6548
 IR Inten    --     32.6454                32.5915                12.1376

                     46                     47                     48
                      A                      A                      A
 Frequencies --   1195.3177              1202.9481              1235.5107
 Red. masses --      1.1258                 1.8236                 1.5744
 Frc consts  --      0.9477                 1.5548                 1.4160
 IR Inten    --      2.0648                50.5121                23.6686

                     49                     50                     51
                      A                      A                      A
 Frequencies --   1251.1822              1263.8785              1308.0942
 Red. masses --      1.7140                 1.8106                 2.0733
 Frc consts  --      1.5809                 1.7040                 2.0902
 IR Inten    --     12.6011                26.2388               110.3503

                     52                     53                     54
                      A                      A                      A
 Frequencies --   1335.9666              1349.3014              1357.8721
 Red. masses --      4.1183                 2.0289                 1.7441
 Frc consts  --      4.3307                 2.1763                 1.8947
 IR Inten    --     48.1608                22.7257                17.6820

                     55                     56                     57
                      A                      A                      A
 Frequencies --   1388.9766              1398.9484              1412.0967
 Red. masses --      1.7129                 2.8113                 2.1873
 Frc consts  --      1.9470                 3.2416                 2.5698
 IR Inten    --     74.3650                38.7606                28.8716

                     58                     59                     60
                      A                      A                      A
 Frequencies --   1427.6473              1436.1629              1500.0741
 Red. masses --      1.6878                 1.9831                 1.5313
 Frc consts  --      2.0269                 2.4099                 2.0303
 IR Inten    --     10.3663                25.8473                 7.9252

                     61                     62                     63
                      A                      A                      A
 Frequencies --   1512.7532              1520.6463              1535.8407
 Red. masses --      2.0236                 1.2248                 1.1152
 Frc consts  --      2.7285                 1.6687                 1.5499
 IR Inten    --     93.5942                 2.4616                 4.4987

                     64                     65                     66
                      A                      A                      A
 Frequencies --   1558.9787              1559.8698              1647.2222
 Red. masses --      2.5703                 1.6696                 5.0831
 Frc consts  --      3.6805                 2.3936                 8.1262
 IR Inten    --      8.2110                36.8085                72.7597

                     67                     68                     69
                      A                      A                      A
 Frequencies --   1666.3499              1671.1764              3062.4625
 Red. masses --      6.0689                 6.5578                 1.0342
 Frc consts  --      9.9286                10.7908                 5.7148
 IR Inten    --     50.7127                63.0572                26.2201

                     70                     71                     72
                      A                      A                      A
 Frequencies --   3106.6231              3135.5504              3142.8277
 Red. masses --      1.0858                 1.1032                 1.1019
 Frc consts  --      6.1739                 6.3902                 6.4125
 IR Inten    --      3.1058                26.4379                22.2639

                     73                     74                     75
                      A                      A                      A
 Frequencies --   3171.6562              3175.0159              3208.8176
 Red. masses --      1.0876                 1.0905                 1.0952
 Frc consts  --      6.4461                 6.4772                 6.6440
 IR Inten    --      2.3900                27.1243                16.6026

                     76                     77                     78
                      A                      A                      A
 Frequencies --   3250.2318              3290.7821              3553.1509
 Red. masses --      1.0955                 1.0977                 1.0738
 Frc consts  --      6.8184                 7.0039                 7.9870
 IR Inten    --      7.8123                 0.5701                12.8998

                     79                     80                     81
                      A                      A                      A
 Frequencies --   3678.2656              3756.3497              3758.3601
 Red. masses --      1.0813                 1.0660                 1.0660
 Frc consts  --      8.6193                 8.8623                 8.8714
 IR Inten    --     61.8184                48.6109                42.3683

 - Thermochemistry -
 -------------------
 Temperature   298.150 Kelvin.  Pressure   1.00000 Atm.
 Atom     1 has atomic number  6 and mass  12.00000

 Molecular mass:   219.10078 amu.
 Principal axes and moments of inertia in atomic units:
                           1         2         3
     Eigenvalues --  2422.619014378.723444731.64658
           X            0.99996   0.00619  -0.00651
           Y           -0.00639   0.99952  -0.03033
           Z            0.00632   0.03037   0.99952
 This molecule is an asymmetric top.
 Rotational symmetry number  1.
 Warning -- assumption of classical behavior for rotation
           may cause significant error
 Rotational temperatures (Kelvin)      0.03575     0.01978     0.01831
 Rotational constants (GHZ):           0.74495     0.41216     0.38142
 Zero-point vibrational energy     617855.3 (Joules/Mol)
                                  147.67096 (Kcal/Mol)
 Warning -- explicit consideration of  23 degrees of freedom as
           vibrations may cause significant error
 Vibrational temperatures:     50.99    71.48   104.68   151.88   214.07
          (Kelvin)            280.41   298.02   341.92   347.07   364.94
                              465.39   491.78   507.56   527.79   546.20
                              582.12   612.26   675.57   721.35   777.69
                              814.03   856.81   892.75   912.88   957.27
                              995.78  1020.01  1052.65  1087.07  1103.27
                             1146.17  1177.23  1182.15  1208.46  1342.81
                             1362.32  1371.91  1448.19  1486.68  1524.82
                             1567.68  1603.98  1628.25  1675.09  1684.64
                             1719.80  1730.77  1777.62  1800.17  1818.44
                             1882.06  1922.16  1941.34  1953.68  1998.43
                             2012.77  2031.69  2054.07  2066.32  2158.27
                             2176.51  2187.87  2209.73  2243.02  2244.30
                             2369.99  2397.51  2404.45  4406.20  4469.74
                             4511.36  4521.83  4563.31  4568.14  4616.77
                             4676.36  4734.70  5112.19  5292.20  5404.55
                             5407.44

 Zero-point correction=                           0.235329 (Hartree/Particle)
 Thermal correction to Energy=                    0.249758
 Thermal correction to Enthalpy=                  0.250703
 Thermal correction to Gibbs Free Energy=         0.193929
 Sum of electronic and zero-point Energies=           -741.477157
 Sum of electronic and thermal Energies=              -741.462727
 Sum of electronic and thermal Enthalpies=            -741.461783
 Sum of electronic and thermal Free Energies=         -741.518557

                     E (Thermal)             CV                S
                      KCal/Mol        Cal/Mol-Kelvin    Cal/Mol-Kelvin
 Total                  156.726             56.623            119.490
 Electronic               0.000              0.000              0.000
 Translational            0.889              2.981             42.056
 Rotational               0.889              2.981             32.284
 Vibrational            154.948             50.661             45.150
 Vibration     1          0.594              1.982              5.499
 Vibration     2          0.595              1.978              4.830
 Vibration     3          0.599              1.967              4.077
 Vibration     4          0.605              1.945              3.349
 Vibration     5          0.618              1.904              2.688
 Vibration     6          0.636              1.847              2.181
 Vibration     7          0.641              1.830              2.069
 Vibration     8          0.656              1.783              1.820
 Vibration     9          0.658              1.777              1.794
 Vibration    10          0.665              1.757              1.705
 Vibration    11          0.708              1.629              1.293
 Vibration    12          0.721              1.592              1.204
 Vibration    13          0.729              1.570              1.154
 Vibration    14          0.740              1.540              1.093
 Vibration    15          0.750              1.514              1.041
 Vibration    16          0.770              1.460              0.946
 Vibration    17          0.787              1.415              0.873
 Vibration    18          0.827              1.318              0.739
 Vibration    19          0.857              1.247              0.655
 Vibration    20          0.896              1.160              0.564
 Vibration    21          0.922              1.105              0.512
 Vibration    22          0.953              1.041              0.457
 Vibration    23          0.981              0.989              0.416

 Optimization completed.
    -- Stationary point found.
 Normal termination of Gaussian 16 at Thu Dec 10 23:45:31 2020.

 ----------------------------------------------------------------------
 # B3LYP/6-311++G(d,p) empiricaldispersion=gd3bj scf=xqc pop=npa geom=c
 heck
 ----------------------------------------------------------------------

 ---------------------------------------
 CID_107710563_JID_6556_Energie_neutraal
 ---------------------------------------
 Structure from the checkpoint file:  "JID_6556.chk"
 Charge =  0 Multiplicity = 1

 SCF Done:  E(RB3LYP) =  -741.936537329     A.U. after   16 cycles
 Normal termination of Gaussian 16 at Thu Dec 10 23:50:38 2020.

 ----------------------------------------------------------------------
 # B3LYP/6-311++G(d,p) empiricaldispersion=gd3bj scf=xqc pop=npa geom=c
 heck
 ----------------------------------------------------------------------

 -------------------------------------
 CID_107710563_JID_6556_Energie_kation
 -------------------------------------
 Structure from the checkpoint file:  "JID_6556.chk"
 Charge =  1 Multiplicity = 2

 SCF Done:  E(UB3LYP) =  -741.672643091     A.U. after   28 cycles
 Normal termination of Gaussian 16 at Fri Dec 11 00:03:23 2020.
 Gaussian 16:  ES64L-G16RevA.03 25-Dec-2016

 ----------------------------------------------------------------------
 # B3LYP/6-311++G(d,p) empiricaldispersion=gd3bj scf=xqc pop=npa geom=c
 heck
 ----------------------------------------------------------------------

 ------------------------------------
 CID_107710563_JID_6556_Energie_anion
 ------------------------------------
 Structure from the checkpoint file:  "JID_6556.chk"
 Charge = -1 Multiplicity = 2

                         Standard orientation:
 ---------------------------------------------------------------------
 Center     Atomic      Atomic             Coordinates (Angstroms)
 Number     Number       Type             X           Y           Z
 ---------------------------------------------------------------------
      1          6           0        0.745916   -2.375214    1.652255
      2          6           0        0.086212   -1.090089    1.140383
      3          6           0        1.050972   -0.247662    0.308036
      4          6           0        1.532838    0.982466    0.773848
      5          6           0        2.401696    1.775480    0.016957
      6          6           0        2.802249    1.337190   -1.240932
      7          6           0        2.341093    0.122538   -1.741034
      8          6           0        1.474007   -0.652066   -0.966638
      9          8           0        0.995944   -1.854723   -1.431388
     10          8           0        1.105444    1.389470    2.015802
     11          7           0       -1.157600   -1.423303    0.442830
     12          6           0       -1.972186   -0.352286    0.050521
     13          6           0       -1.969777    0.958837    0.505972
     14          7           0       -3.001618    1.580044   -0.143518
     15          7           0       -3.664581    0.776093   -0.992371
     16          6           0       -3.045191   -0.400680   -0.878101
     17          1           0        1.057491   -3.014321    0.820653
     18          1           0        0.037903   -2.930579    2.275057
     19          1           0        1.631939   -2.134014    2.247975
     20          1           0       -0.199679   -0.494067    2.010136
     21          1           0        2.754180    2.726082    0.411107
     22          1           0        3.475918    1.945742   -1.836525
     23          1           0        2.647851   -0.224724   -2.725095
     24          1           0        1.337497   -1.999057   -2.327037
     25          1           0        1.507817    2.249071    2.212449
     26          1           0       -0.973107   -2.049347   -0.334267
     27          1           0       -1.331283    1.475992    1.205420
     28          1           0       -3.293549    2.540066   -0.053935
     29          1           0       -3.384459   -1.249728   -1.457437
 ---------------------------------------------------------------------

 SCF Done:  E(UB3LYP) =  -741.931231623     A.U. after   33 cycles
 SCF Done:  E(UB3LYP) =  -741.931231623     a.u. after    1 cycles

 The electronic state is 2-A.
 Alpha  occ. eigenvalues --  -19.05753 -19.05306 -14.28510 -14.23336 -14.21377
 Alpha  occ. eigenvalues --  -10.13945 -10.13820 -10.11203 -10.10118 -10.09723
 Alpha  occ. eigenvalues --  -10.08723 -10.08105 -10.07554 -10.06934 -10.06827
 Alpha  occ. eigenvalues --  -10.06543  -0.96780  -0.96288  -0.94776  -0.82876
 Alpha  occ. eigenvalues --   -0.75328  -0.71738  -0.69176  -0.65765  -0.63653
 Alpha  occ. eigenvalues --   -0.62670  -0.54752  -0.53724  -0.51334  -0.49586
 Alpha  occ. eigenvalues --   -0.48178  -0.46795  -0.45128  -0.41176  -0.40139
 Alpha  occ. eigenvalues --   -0.38143  -0.37117  -0.35904  -0.34961  -0.34404
 Alpha  occ. eigenvalues --   -0.33601  -0.33239  -0.32567  -0.30635  -0.29290
 Alpha  occ. eigenvalues --   -0.28926  -0.28497  -0.28135  -0.27501  -0.26274
 Alpha  occ. eigenvalues --   -0.24350  -0.22308  -0.20753  -0.19968  -0.16005
 Alpha  occ. eigenvalues --   -0.13716  -0.12470  -0.10244   0.03844
 Alpha virt. eigenvalues --    0.05594   0.07206   0.07738   0.08359   0.08798
 Alpha virt. eigenvalues --    0.09204   0.09906   0.09998   0.10501   0.11100
 Alpha virt. eigenvalues --    0.11704   0.12027   0.13002   0.13085   0.13610

  Beta  occ. eigenvalues --  -19.05700 -19.05247 -14.28501 -14.23335 -14.21374
  Beta  occ. eigenvalues --  -10.13943 -10.13819 -10.11200 -10.10118 -10.09715
  Beta  occ. eigenvalues --  -10.08721 -10.08099 -10.07546 -10.06907 -10.06795
  Beta  occ. eigenvalues --  -10.06537  -0.96676  -0.96172  -0.94768  -0.82868
  Beta  occ. eigenvalues --   -0.75286  -0.71724  -0.69160  -0.65738  -0.63595
  Beta  occ. eigenvalues --   -0.62647  -0.54699  -0.53652  -0.51315  -0.49573
  Beta  occ. eigenvalues --   -0.48150  -0.46664  -0.45106  -0.41120  -0.40071
  Beta  occ. eigenvalues --   -0.38110  -0.37085  -0.35869  -0.34942  -0.34393
  Beta  occ. eigenvalues --   -0.33581  -0.33199  -0.32522  -0.30616  -0.29238
  Beta  occ. eigenvalues --   -0.28886  -0.28473  -0.28116  -0.27458  -0.26244
  Beta  occ. eigenvalues --   -0.24324  -0.22269  -0.20741  -0.19964  -0.15999
  Beta  occ. eigenvalues --   -0.13696  -0.12435  -0.10238
  Beta virt. eigenvalues --    0.06640   0.07264   0.07788   0.08028   0.08682
  Beta virt. eigenvalues --    0.09136   0.09345   0.10014   0.10173   0.10622
  Beta virt. eigenvalues --    0.11063   0.12181   0.12382   0.12985   0.13446

 Mulliken charges and spin densities:
               1          2
     1  C   -0.435178  -0.163075
     2  C    1.155345  -1.846868
     3  C    3.043265  -1.742915
     4  C   -0.953210   0.512355
     5  C   -1.132611   0.975409
     6  C    2.285811  -2.559457
     7  C   -2.421695   2.078058
     8  C   -0.083084  -0.210559
     9  O   -0.210399  -0.002460
    10  O   -0.240844   0.040710
    11  N    0.164877   0.014053
    12  C   -0.504778   0.169804
    13  C    0.283646  -0.615341
    14  N   -0.067513   0.055128
    15  N   -0.225067  -0.011359
    16  C   -0.174665   0.187060
    17  H    0.134415   0.047140
    18  H    0.146746  -0.011797
    19  H    0.050769   0.097458
    20  H    0.267132  -0.038030
    21  H   -1.165096   1.328178
    22  H    0.275516  -0.116615
    23  H   -0.875587   1.023220
    24  H   -0.404622   0.689233
    25  H   -0.423809   0.718979
    26  H    0.269166   0.005704
    27  H    0.006938   0.163883
    28  H    0.169130   0.138156
    29  H    0.065400   0.073949
 Sum of Mulliken charges =  -1.00000   1.00000

 Dipole moment (field-independent basis, Debye):
    X=             -3.0695    Y=             -2.7592    Z=              1.4010  Tot=              4.3587
 Quadrupole moment (field-independent basis, Debye-Ang):
   XX=           -147.9335   YY=           -137.3743   ZZ=           -140.1898
   XY=             -6.4730   XZ=             -2.0589   YZ=            -15.8377

 Summary of Natural Population Analysis:

                                       Natural Population
                Natural  -----------------------------------------------
    Atom  No    Charge         Core      Valence    Rydberg      Total
 -----------------------------------------------------------------------
      C    1   -0.28276      0.99964     2.27838    0.00474     3.28276
      C    2   -0.01806      0.99958     2.00580    0.01269     3.01806
      C    3   -0.07274      0.99941     2.06050    0.01283     3.07274
      C    4    0.16903      0.99935     1.81772    0.01390     2.83097
      C    5   -0.14787      0.99951     2.13757    0.01079     3.14787
      C    6   -0.08350      0.99957     2.07460    0.00933     3.08350
      C    7   -0.14909      0.99952     2.13926    0.01031     3.14909
      C    8    0.17089      0.99935     1.81637    0.01340     2.82911
      O    9   -0.35100      0.99988     3.34348    0.00765     4.35100
      O   10   -0.34808      0.99988     3.34049    0.00771     4.34808
      N   11   -0.32228      0.99969     2.81270    0.00990     3.82228
      C   12    0.03613      0.99949     1.95412    0.01025     2.96387
      C   13   -0.04831      0.99954     2.03765    0.01112     3.04831
      N   14   -0.17018      0.99971     2.65732    0.01315     3.67018
      N   15   -0.15677      0.99975     2.64324    0.01378     3.65677
      C   16   -0.03057      0.99960     2.01661    0.01436     3.03057
      H   17    0.10390      0.00000     0.39490    0.00120     0.39610
      H   18    0.09853      0.00000     0.40051    0.00096     0.40147
      H   19    0.10150      0.00000     0.39774    0.00076     0.39850
      H   20    0.10713      0.00000     0.39057    0.00230     0.39287
      H   21    0.10530      0.00000     0.39166    0.00304     0.39470
      H   22    0.10035      0.00000     0.39882    0.00083     0.39965
      H   23    0.10357      0.00000     0.39423    0.00219     0.39643
      H   24    0.24342      0.00000     0.24307    0.01351     0.25658
      H   25    0.24453      0.00000     0.23532    0.02015     0.25547
      H   26    0.18951      0.00000     0.30731    0.00318     0.31049
      H   27    0.11499      0.00000     0.38341    0.00159     0.38501
      H   28    0.19655      0.00000     0.30154    0.00191     0.30345
      H   29    0.09588      0.00000     0.40306    0.00106     0.40412
 =======================================================================
   * Total *    0.00000     15.99345    41.77794    0.22861    58.00000

 Normal termination of Gaussian 16 at Fri Dec 11 00:18:24 2020.
