 Gaussian 16, Revision A.03,

 -----------------------------------------------------------
 # opt freq B3LYP/6-31G(d) empiricaldispersion=gd3bj scf=xqc
 -----------------------------------------------------------

 ------------------------------
 CID_68832000_JID_8470_neutraal
 ------------------------------
 Symbolic Z-matrix:
 Charge =  0 Multiplicity = 1

 SCF Done:  E(RB3LYP) =  -771.018612275     A.U. after   14 cycles
 SCF Done:  E(RB3LYP) =  -771.024048627     A.U. after   12 cycles
 SCF Done:  E(RB3LYP) =  -771.024790827     A.U. after   11 cycles
 SCF Done:  E(RB3LYP) =  -771.025066844     A.U. after   11 cycles
 SCF Done:  E(RB3LYP) =  -771.025216953     A.U. after   11 cycles
 SCF Done:  E(RB3LYP) =  -771.025321880     A.U. after   11 cycles
 SCF Done:  E(RB3LYP) =  -771.025417524     A.U. after   11 cycles
 SCF Done:  E(RB3LYP) =  -771.025586487     A.U. after   13 cycles
 SCF Done:  E(RB3LYP) =  -771.023911926     A.U. after   14 cycles
 SCF Done:  E(RB3LYP) =  -771.025908780     A.U. after   12 cycles
 SCF Done:  E(RB3LYP) =  -771.026515463     A.U. after    9 cycles
 SCF Done:  E(RB3LYP) =  -771.026515859     A.U. after    9 cycles
 SCF Done:  E(RB3LYP) =  -771.026516066     A.U. after    9 cycles
 SCF Done:  E(RB3LYP) =  -771.026516114     A.U. after    7 cycles
 SCF Done:  E(RB3LYP) =  -771.026516133     A.U. after    7 cycles
 SCF Done:  E(RB3LYP) =  -771.026516138     A.U. after    7 cycles
 Optimization completed.
    -- Stationary point found.
 Normal termination of Gaussian 16 at Fri Dec 11 20:59:22 2020.

 --------------------------------------------------------------------
 #N Geom=AllCheck Guess=TCheck SCRF=Check GenChk RB3LYP/6-31G(d) Freq
 --------------------------------------------------------------------

 Structure from the checkpoint file:  "JID_8470.chk"
 ------------------------------
 CID_68832000_JID_8470_neutraal
 ------------------------------
 Charge =  0 Multiplicity = 1

 SCF Done:  E(RB3LYP) =  -771.026516138     A.U. after    1 cycles

  Exact polarizability: 301.356  28.524 181.127  20.909 -22.744  92.227
 Approx polarizability: 428.377  47.716 306.078  40.913 -50.076 144.698

                      1                      2                      3
                      A                      A                      A
 Frequencies --     18.0765                21.7889                30.5645
 Red. masses --      4.4616                 2.8285                 3.6156
 Frc consts  --      0.0009                 0.0008                 0.0020
 IR Inten    --      0.0503                 0.1919                 0.1944

                      4                      5                      6
                      A                      A                      A
 Frequencies --     47.1600                71.0489               103.8323
 Red. masses --      3.0378                 3.1167                 3.9082
 Frc consts  --      0.0040                 0.0093                 0.0248
 IR Inten    --      0.4311                 0.1428                 0.2055

                      7                      8                      9
                      A                      A                      A
 Frequencies --    119.5036               162.9880               192.1801
 Red. masses --      2.2171                 3.1607                 3.5322
 Frc consts  --      0.0187                 0.0495                 0.0769
 IR Inten    --      0.9478                 0.1220                 0.7572

                     10                     11                     12
                      A                      A                      A
 Frequencies --    202.2463               227.7773               245.2229
 Red. masses --      3.6175                 3.9406                 1.1433
 Frc consts  --      0.0872                 0.1205                 0.0405
 IR Inten    --      0.1175                 1.0969                 0.2229

                     13                     14                     15
                      A                      A                      A
 Frequencies --    281.7752               291.6135               349.6397
 Red. masses --      4.0352                 3.2171                 3.4177
 Frc consts  --      0.1888                 0.1612                 0.2462
 IR Inten    --     10.3977                 0.5698                 1.8376

                     16                     17                     18
                      A                      A                      A
 Frequencies --    359.3492               402.2851               411.2968
 Red. masses --      3.4898                 3.9931                 3.4229
 Frc consts  --      0.2655                 0.3807                 0.3412
 IR Inten    --      3.4823                 3.5422                 0.6022

                     19                     20                     21
                      A                      A                      A
 Frequencies --    445.0123               460.4111               479.2983
 Red. masses --      4.2913                 2.4337                 2.6597
 Frc consts  --      0.5007                 0.3039                 0.3600
 IR Inten    --      1.7338                 6.0209                 7.5736

                     22                     23                     24
                      A                      A                      A
 Frequencies --    516.2768               533.4585               540.0373
 Red. masses --      3.5732                 3.3191                 4.4428
 Frc consts  --      0.5611                 0.5565                 0.7634
 IR Inten    --      3.4021                 1.0995                 0.7161

                     25                     26                     27
                      A                      A                      A
 Frequencies --    584.9179               599.8833               640.7160
 Red. masses --      3.9522                 4.4712                 2.5708
 Frc consts  --      0.7967                 0.9480                 0.6218
 IR Inten    --     19.4827                 7.5738                 3.6644

                     28                     29                     30
                      A                      A                      A
 Frequencies --    690.4675               717.9012               767.2095
 Red. masses --      5.4843                 2.3174                 4.9474
 Frc consts  --      1.5405                 0.7037                 1.7158
 IR Inten    --      1.8653                 0.0594                 4.4993

                     31                     32                     33
                      A                      A                      A
 Frequencies --    768.8171               808.5263               809.6559
 Red. masses --      2.8024                 1.2396                 1.3161
 Frc consts  --      0.9759                 0.4774                 0.5083
 IR Inten    --      1.6960                 0.8255                16.5937

                     34                     35                     36
                      A                      A                      A
 Frequencies --    813.0530               834.5366               843.0902
 Red. masses --      1.2493                 1.5072                 3.4470
 Frc consts  --      0.4866                 0.6185                 1.4436
 IR Inten    --      6.7727                 6.0536                 1.3185

                     37                     38                     39
                      A                      A                      A
 Frequencies --    876.6715               887.3812               901.4379
 Red. masses --      2.3291                 1.5387                 1.5227
 Frc consts  --      1.0547                 0.7139                 0.7290
 IR Inten    --      7.5816                26.8088                21.3732

                     40                     41                     42
                      A                      A                      A
 Frequencies --    915.4697               943.9070               948.7697
 Red. masses --      1.3779                 3.9095                 1.3128
 Frc consts  --      0.6804                 2.0522                 0.6963
 IR Inten    --     37.7417                 4.1469                 1.8710

                     43                     44                     45
                      A                      A                      A
 Frequencies --    966.9396               982.0661              1008.6860
 Red. masses --      1.3027                 3.4475                 2.9036
 Frc consts  --      0.7176                 1.9590                 1.7406
 IR Inten    --      0.4472                 0.1822                16.8848

                     46                     47                     48
                      A                      A                      A
 Frequencies --   1034.8851              1055.1016              1078.8810
 Red. masses --      1.1178                 4.5469                 2.6362
 Frc consts  --      0.7053                 2.9823                 1.8079
 IR Inten    --     13.9559                25.0085                29.0462

                     49                     50                     51
                      A                      A                      A
 Frequencies --   1084.6510              1104.4929              1130.5014
 Red. masses --      1.7879                 2.4259                 2.0306
 Frc consts  --      1.2393                 1.7436                 1.5291
 IR Inten    --     40.5197                71.7741                72.7858

                     52                     53                     54
                      A                      A                      A
 Frequencies --   1174.5373              1183.6534              1192.1249
 Red. masses --      1.6404                 2.0701                 2.0370
 Frc consts  --      1.3333                 1.7088                 1.7056
 IR Inten    --     26.3242                24.8219                66.7475

                     55                     56                     57
                      A                      A                      A
 Frequencies --   1202.6008              1207.8287              1221.0707
 Red. masses --      1.7393                 1.2830                 1.8725
 Frc consts  --      1.4821                 1.1028                 1.6450
 IR Inten    --    155.0226                 4.7692                28.2771

                     58                     59                     60
                      A                      A                      A
 Frequencies --   1266.3519              1283.2061              1305.4399
 Red. masses --      2.4804                 1.3794                 1.6814
 Frc consts  --      2.3436                 1.3383                 1.6882
 IR Inten    --     98.2075                 4.6987                 5.6356

                     61                     62                     63
                      A                      A                      A
 Frequencies --   1315.2957              1329.5472              1351.9776
 Red. masses --      1.7769                 1.1339                 1.4476
 Frc consts  --      1.8111                 1.1809                 1.5590
 IR Inten    --    229.8042                47.4712                 1.0498

                     64                     65                     66
                      A                      A                      A
 Frequencies --   1355.8919              1372.0230              1394.7592
 Red. masses --      1.1050                 1.3324                 2.0553
 Frc consts  --      1.1969                 1.4778                 2.3557
 IR Inten    --      1.5881                23.3569                 5.2929

                     67                     68                     69
                      A                      A                      A
 Frequencies --   1414.1168              1420.9498              1427.9613
 Red. masses --      1.3289                 2.8338                 4.5337
 Frc consts  --      1.5657                 3.3711                 5.4468
 IR Inten    --      8.7726                11.9653                 0.2659

                     70                     71                     72
                      A                      A                      A
 Frequencies --   1441.9208              1451.5241              1460.9843
 Red. masses --      1.2838                 1.3610                 3.3158
 Frc consts  --      1.5727                 1.6895                 4.1699
 IR Inten    --     23.6512                 3.4821                 2.6801

                     73                     74                     75
                      A                      A                      A
 Frequencies --   1480.2942              1517.2093              1519.6311
 Red. masses --      1.4118                 1.0626                 1.0489
 Frc consts  --      1.8227                 1.4412                 1.4272
 IR Inten    --      0.9696                 0.6354                 3.2254

                     76                     77                     78
                      A                      A                      A
 Frequencies --   1533.6712              1536.7822              1543.7640
 Red. masses --      1.1254                 2.1956                 1.0989
 Frc consts  --      1.5596                 3.0551                 1.5430
 IR Inten    --      5.9038                61.6968                 3.5186

                     79                     80                     81
                      A                      A                      A
 Frequencies --   1545.5545              1556.7055              1620.3797
 Red. masses --      1.0934                 3.5051                 6.5489
 Frc consts  --      1.5388                 5.0045                10.1310
 IR Inten    --      5.5512                81.2848                 3.4506

                     82                     83                     84
                      A                      A                      A
 Frequencies --   1666.8938              1686.3303              1716.3664
 Red. masses --      5.6372                 5.8788                 4.4230
 Frc consts  --      9.2285                 9.8496                 7.6770
 IR Inten    --     43.7470               149.8139                 7.4797

                     85                     86                     87
                      A                      A                      A
 Frequencies --   3002.5944              3044.4292              3055.1490
 Red. masses --      1.0699                 1.0610                 1.0417
 Frc consts  --      5.6829                 5.7941                 5.7288
 IR Inten    --     53.9303                20.2196                10.2624

                     88                     89                     90
                      A                      A                      A
 Frequencies --   3057.1060              3094.3402              3107.2945
 Red. masses --      1.0646                 1.0943                 1.0978
 Frc consts  --      5.8621                 6.1735                 6.2453
 IR Inten    --     63.1837                22.3273                20.7785

                     91                     92                     93
                      A                      A                      A
 Frequencies --   3121.6286              3135.7594              3138.4848
 Red. masses --      1.1009                 1.1032                 1.1018
 Frc consts  --      6.3204                 6.3915                 6.3940
 IR Inten    --     48.2531                24.0173                69.2830

                     94                     95                     96
                      A                      A                      A
 Frequencies --   3149.8120              3170.8901              3177.5986
 Red. masses --      1.0851                 1.0644                 1.0863
 Frc consts  --      6.3430                 6.3057                 6.4627
 IR Inten    --     23.4979                 2.9871                 9.5970

                     97                     98                     99
                      A                      A                      A
 Frequencies --   3183.9570              3188.6720              3196.2173
 Red. masses --      1.0889                 1.0883                 1.0950
 Frc consts  --      6.5040                 6.5195                 6.5908
 IR Inten    --      1.1011                24.5085                24.0532

                    100                    101                    102
                      A                      A                      A
 Frequencies --   3206.5599              3230.6639              3249.1426
 Red. masses --      1.0906                 1.0911                 1.1157
 Frc consts  --      6.6068                 6.7096                 6.9393
 IR Inten    --      9.4562                18.9025                17.4804

 - Thermochemistry -
 -------------------
 Temperature   298.150 Kelvin.  Pressure   1.00000 Atm.
 Atom     1 has atomic number  6 and mass  12.00000

 Molecular mass:   242.13068 amu.
 Principal axes and moments of inertia in atomic units:
                           1         2         3
     Eigenvalues --  1876.33653********************
           X            0.99998  -0.00679  -0.00031
           Y            0.00678   0.99994  -0.00830
           Z            0.00037   0.00830   0.99997
 This molecule is an asymmetric top.
 Rotational symmetry number  1.
 Warning -- assumption of classical behavior for rotation
           may cause significant error
 Rotational temperatures (Kelvin)      0.04616     0.00787     0.00697
 Rotational constants (GHZ):           0.96184     0.16395     0.14515
 Zero-point vibrational energy     798621.6 (Joules/Mol)
                                  190.87515 (Kcal/Mol)
 Warning -- explicit consideration of  26 degrees of freedom as
           vibrations may cause significant error
 Vibrational temperatures:     26.01    31.35    43.98    67.85   102.22
          (Kelvin)            149.39   171.94   234.50   276.50   290.99
                              327.72   352.82   405.41   419.57   503.05
                              517.02   578.80   591.76   640.27   662.43
                              689.60   742.81   767.53   776.99   841.57
                              863.10   921.85   993.43  1032.90  1103.84
                             1106.16  1163.29  1164.91  1169.80  1200.71
                             1213.02  1261.33  1276.74  1296.97  1317.16
                             1358.07  1365.07  1391.21  1412.97  1451.27
                             1488.97  1518.06  1552.27  1560.57  1589.12
                             1626.54  1689.90  1703.01  1715.20  1730.27
                             1737.80  1756.85  1822.00  1846.25  1878.24
                             1892.42  1912.92  1945.19  1950.83  1974.04
                             2006.75  2034.60  2044.43  2054.52  2074.60
                             2088.42  2102.03  2129.81  2182.93  2186.41
                             2206.61  2211.09  2221.13  2223.71  2239.75
                             2331.37  2398.29  2426.25  2469.47  4320.06
                             4380.25  4395.68  4398.49  4452.07  4470.70
                             4491.33  4511.66  4515.58  4531.88  4562.20
                             4571.86  4581.00  4587.79  4598.64  4613.52
                             4648.20  4674.79

 Zero-point correction=                           0.304179 (Hartree/Particle)
 Thermal correction to Energy=                    0.321165
 Thermal correction to Enthalpy=                  0.322109
 Thermal correction to Gibbs Free Energy=         0.256486
 Sum of electronic and zero-point Energies=           -770.722337
 Sum of electronic and thermal Energies=              -770.705351
 Sum of electronic and thermal Enthalpies=            -770.704407
 Sum of electronic and thermal Free Energies=         -770.770030

                     E (Thermal)             CV                S
                      KCal/Mol        Cal/Mol-Kelvin    Cal/Mol-Kelvin
 Total                  201.534             64.655            138.115
 Electronic               0.000              0.000              0.000
 Translational            0.889              2.981             42.354
 Rotational               0.889              2.981             33.906
 Vibrational            199.757             58.693             61.855
 Vibration     1          0.593              1.986              6.835
 Vibration     2          0.593              1.985              6.464
 Vibration     3          0.594              1.984              5.792
 Vibration     4          0.595              1.979              4.933
 Vibration     5          0.598              1.968              4.124
 Vibration     6          0.605              1.946              3.381
 Vibration     7          0.609              1.933              3.108
 Vibration     8          0.623              1.888              2.515
 Vibration     9          0.634              1.851              2.207
 Vibration    10          0.639              1.837              2.113
 Vibration    11          0.651              1.799              1.896
 Vibration    12          0.660              1.771              1.765
 Vibration    13          0.681              1.707              1.523
 Vibration    14          0.687              1.689              1.465
 Vibration    15          0.727              1.576              1.168
 Vibration    16          0.734              1.556              1.125
 Vibration    17          0.768              1.465              0.954
 Vibration    18          0.775              1.446              0.922
 Vibration    19          0.804              1.372              0.811
 Vibration    20          0.818              1.338              0.765
 Vibration    21          0.836              1.296              0.712
 Vibration    22          0.871              1.214              0.619
 Vibration    23          0.888              1.176              0.580
 Vibration    24          0.895              1.162              0.565
 Vibration    25          0.942              1.064              0.476
 Vibration    26          0.958              1.032              0.450

 Optimization completed.
    -- Stationary point found.
 Normal termination of Gaussian 16 at Fri Dec 11 21:14:04 2020.

 ----------------------------------------------------------------------
 # B3LYP/6-311++G(d,p) empiricaldispersion=gd3bj scf=xqc pop=npa geom=c
 heck
 ----------------------------------------------------------------------

 --------------------------------------
 CID_68832000_JID_8470_Energie_neutraal
 --------------------------------------
 Structure from the checkpoint file:  "JID_8470.chk"
 Charge =  0 Multiplicity = 1

 SCF Done:  E(RB3LYP) =  -771.232172960     A.U. after   15 cycles
 Normal termination of Gaussian 16 at Fri Dec 11 21:21:08 2020.

 ----------------------------------------------------------------------
 # B3LYP/6-311++G(d,p) empiricaldispersion=gd3bj scf=xqc pop=npa geom=c
 heck
 ----------------------------------------------------------------------

 ------------------------------------
 CID_68832000_JID_8470_Energie_kation
 ------------------------------------
 Structure from the checkpoint file:  "JID_8470.chk"
 Charge =  1 Multiplicity = 2

 SCF Done:  E(UB3LYP) =  -770.968262456     A.U. after   22 cycles
 Normal termination of Gaussian 16 at Fri Dec 11 21:35:42 2020.
 Gaussian 16:  ES64L-G16RevA.03 25-Dec-2016

 ----------------------------------------------------------------------
 # B3LYP/6-311++G(d,p) empiricaldispersion=gd3bj scf=xqc pop=npa geom=c
 heck
 ----------------------------------------------------------------------

 -----------------------------------
 CID_68832000_JID_8470_Energie_anion
 -----------------------------------
 Structure from the checkpoint file:  "JID_8470.chk"
 Charge = -1 Multiplicity = 2

                         Standard orientation:
 ---------------------------------------------------------------------
 Center     Atomic      Atomic             Coordinates (Angstroms)
 Number     Number       Type             X           Y           Z
 ---------------------------------------------------------------------
      1          6           0       -4.720926    2.451569    0.857212
      2          6           0       -4.890529    1.396599   -0.231090
      3          8           0       -4.966425    0.076169    0.299705
      4          6           0       -3.710040   -0.512305    0.589562
      5          6           0       -3.188010   -1.277519   -0.630558
      6          8           0       -1.936921   -1.904157   -0.362723
      7          6           0       -0.792589   -1.154786   -0.337226
      8          6           0        0.353118   -1.809078    0.074475
      9          6           0        1.596018   -1.140316    0.119606
     10          6           0        1.668747    0.239110   -0.265081
     11          6           0        0.474299    0.880786   -0.680357
     12          6           0       -0.727639    0.212063   -0.720678
     13          6           0        2.910724    0.912853   -0.216411
     14          6           0        4.070797    0.274055    0.190141
     15          6           0        3.981261   -1.095612    0.577163
     16          6           0        2.792353   -1.780332    0.542164
     17          6           0        5.382270    0.935128    0.245536
     18          6           0        5.699883    2.152436   -0.212297
     19          1           0       -5.542799    2.386181    1.576997
     20          1           0       -4.718350    3.456667    0.419555
     21          1           0       -3.779110    2.320274    1.401205
     22          1           0       -5.832250    1.551507   -0.767566
     23          1           0       -4.078434    1.472564   -0.971339
     24          1           0       -2.974867    0.234120    0.918377
     25          1           0       -3.858135   -1.213502    1.416645
     26          1           0       -3.874537   -2.092558   -0.869582
     27          1           0       -3.126528   -0.627255   -1.511783
     28          1           0        0.283278   -2.853219    0.363523
     29          1           0        0.516896    1.926756   -0.973406
     30          1           0       -1.616515    0.738113   -1.046629
     31          1           0        2.935993    1.961346   -0.501185
     32          1           0        4.885966   -1.603077    0.903042
     33          1           0        2.750773   -2.824748    0.839988
     34          1           0        6.169252    0.340562    0.709453
     35          1           0        6.708090    2.541617   -0.112040
     36          1           0        4.979612    2.800659   -0.704079
 ---------------------------------------------------------------------

 SCF Done:  E(UB3LYP) =  -771.239911765     A.U. after   32 cycles

 The electronic state is 2-A.
 Alpha  occ. eigenvalues --  -19.04474 -19.03890 -10.14148 -10.12937 -10.12873
 Alpha  occ. eigenvalues --  -10.10006 -10.08770 -10.04815 -10.04296 -10.04129
 Alpha  occ. eigenvalues --  -10.03846 -10.03828 -10.03370 -10.03143 -10.02996
 Alpha  occ. eigenvalues --  -10.02818 -10.02258 -10.01529  -0.96009  -0.95107
 Alpha  occ. eigenvalues --   -0.73807  -0.69845  -0.68786  -0.65447  -0.64780
 Alpha  occ. eigenvalues --   -0.62317  -0.59992  -0.58374  -0.55603  -0.51667
 Alpha  occ. eigenvalues --   -0.50258  -0.47896  -0.46540  -0.43853  -0.41937
 Alpha  occ. eigenvalues --   -0.41837  -0.40212  -0.38334  -0.37622  -0.36448
 Alpha  occ. eigenvalues --   -0.34390  -0.33943  -0.32800  -0.32012  -0.31613
 Alpha  occ. eigenvalues --   -0.30969  -0.30865  -0.29188  -0.28559  -0.27794
 Alpha  occ. eigenvalues --   -0.27452  -0.27016  -0.25417  -0.24544  -0.23848
 Alpha  occ. eigenvalues --   -0.23026  -0.21826  -0.20804  -0.19969  -0.19297
 Alpha  occ. eigenvalues --   -0.17840  -0.16477  -0.13133  -0.10514  -0.07333
 Alpha  occ. eigenvalues --    0.04030
 Alpha virt. eigenvalues --    0.05430   0.07457   0.08107   0.08542   0.08922
 Alpha virt. eigenvalues --    0.09615   0.09836   0.10119   0.10421   0.10848
 Alpha virt. eigenvalues --    0.11356   0.11697   0.12542   0.12642   0.13226

  Beta  occ. eigenvalues --  -19.04472 -19.03866 -10.14137 -10.12937 -10.12867
  Beta  occ. eigenvalues --  -10.09891 -10.08762 -10.04843 -10.04277 -10.04215
  Beta  occ. eigenvalues --  -10.03859 -10.03797 -10.03085 -10.03073 -10.02898
  Beta  occ. eigenvalues --  -10.02643 -10.02070 -10.01172  -0.95980  -0.95057
  Beta  occ. eigenvalues --   -0.73582  -0.69683  -0.68628  -0.65346  -0.64458
  Beta  occ. eigenvalues --   -0.62040  -0.59813  -0.58113  -0.55405  -0.51548
  Beta  occ. eigenvalues --   -0.49840  -0.47728  -0.46309  -0.43675  -0.41911
  Beta  occ. eigenvalues --   -0.41684  -0.40096  -0.38188  -0.37524  -0.36388
  Beta  occ. eigenvalues --   -0.34334  -0.33824  -0.32756  -0.31914  -0.31450
  Beta  occ. eigenvalues --   -0.30929  -0.30748  -0.29083  -0.28430  -0.27738
  Beta  occ. eigenvalues --   -0.27134  -0.26816  -0.25337  -0.24139  -0.23645
  Beta  occ. eigenvalues --   -0.22956  -0.21706  -0.20633  -0.19553  -0.19050
  Beta  occ. eigenvalues --   -0.17607  -0.15541  -0.12149  -0.09910  -0.05918
  Beta virt. eigenvalues --    0.05624   0.07446   0.08068   0.08522   0.08775
  Beta virt. eigenvalues --    0.08935   0.09577   0.10057   0.10263   0.10593
  Beta virt. eigenvalues --    0.10821   0.11308   0.11649   0.12521   0.12595

 Mulliken charges and spin densities:
               1          2
     1  C   -0.146180  -0.276246
     2  C   -0.083383  -0.074234
     3  O   -0.095192   0.011579
     4  C   -0.357160  -0.040777
     5  C   -0.213835  -0.099134
     6  O   -0.098071   0.008191
     7  C   -0.450990   0.095086
     8  C   -0.383287   0.070914
     9  C    0.368295  -0.003694
    10  C   -0.141362  -0.098055
    11  C   -0.091160   0.208914
    12  C    0.125314   0.004251
    13  C   -0.570613   0.295578
    14  C    1.169184   0.063062
    15  C   -0.570126  -0.018970
    16  C   -0.393461   0.131123
    17  C    0.094694  -0.011854
    18  C   -0.608610   0.213229
    19  H    0.118924   0.026006
    20  H   -0.014685   0.137453
    21  H    0.102043   0.039687
    22  H   -0.068431   0.231485
    23  H    0.063345   0.043915
    24  H    0.148278  -0.006685
    25  H    0.158994   0.001096
    26  H    0.180132  -0.002119
    27  H    0.061323   0.115451
    28  H    0.117242  -0.006545
    29  H    0.123964   0.021557
    30  H    0.063037  -0.018739
    31  H   -0.094124  -0.031211
    32  H    0.086552   0.001829
    33  H    0.083511  -0.010400
    34  H    0.101391  -0.006015
    35  H    0.107315  -0.007671
    36  H    0.107130  -0.008058
 Sum of Mulliken charges =  -1.00000   1.00000

 Dipole moment (field-independent basis, Debye):
    X=             -6.8436    Y=             -0.6822    Z=              0.6365  Tot=              6.9069
 Quadrupole moment (field-independent basis, Debye-Ang):
   XX=           -196.5984   YY=           -128.1678   ZZ=           -122.8225
   XY=             -9.7647   XZ=              1.3899   YZ=             -2.1392

 Summary of Natural Population Analysis:

                                       Natural Population
                Natural  -----------------------------------------------
    Atom  No    Charge         Core      Valence    Rydberg      Total
 -----------------------------------------------------------------------
      C    1   -0.30064      0.99966     2.29637    0.00460     3.30064
      C    2   -0.01313      0.99960     1.99987    0.01367     3.01313
      O    3   -0.30472      0.99989     3.29462    0.01021     4.30472
      C    4   -0.02446      0.99958     2.01343    0.01144     3.02446
      C    5   -0.01926      0.99958     2.00790    0.01178     3.01926
      O    6   -0.28013      0.99986     3.27085    0.00943     4.28013
      C    7    0.17047      0.99938     1.81675    0.01340     2.82953
      C    8   -0.11382      0.99951     2.10442    0.00988     3.11382
      C    9   -0.01989      0.99939     2.01164    0.00886     3.01989
      C   10   -0.05427      0.99942     2.04430    0.01056     3.05427
      C   11   -0.00090      0.99957     1.99693    0.00440     3.00090
      C   12   -0.16364      0.99956     2.15209    0.01199     3.16364
      C   13   -0.00600      0.99944     1.99736    0.00920     3.00600
      C   14   -0.04459      0.99950     2.03512    0.00997     3.04459
      C   15   -0.09593      0.99954     2.08806    0.00833     3.09593
      C   16   -0.08269      0.99955     2.07330    0.00983     3.08269
      C   17   -0.08410      0.99956     2.07491    0.00963     3.08410
      C   18   -0.16945      0.99959     2.16211    0.00775     3.16945
      H   19    0.09809      0.00000     0.40059    0.00132     0.40191
      H   20    0.09952      0.00000     0.39927    0.00121     0.40048
      H   21    0.10035      0.00000     0.39844    0.00121     0.39965
      H   22    0.08698      0.00000     0.41168    0.00134     0.41302
      H   23    0.08005      0.00000     0.41833    0.00162     0.41995
      H   24    0.08809      0.00000     0.41016    0.00175     0.41191
      H   25    0.08911      0.00000     0.40965    0.00124     0.41089
      H   26    0.08911      0.00000     0.40947    0.00141     0.41089
      H   27    0.08269      0.00000     0.41537    0.00194     0.41731
      H   28    0.09533      0.00000     0.40294    0.00173     0.40467
      H   29    0.08798      0.00000     0.41057    0.00145     0.41202
      H   30    0.09028      0.00000     0.40629    0.00343     0.40972
      H   31    0.08699      0.00000     0.41080    0.00221     0.41301
      H   32    0.08966      0.00000     0.40882    0.00152     0.41034
      H   33    0.09162      0.00000     0.40752    0.00087     0.40838
      H   34    0.08400      0.00000     0.41431    0.00169     0.41600
      H   35    0.08272      0.00000     0.41612    0.00116     0.41728
      H   36    0.08466      0.00000     0.41425    0.00110     0.41534
 =======================================================================
   * Total *    0.00008     17.99219    46.80458    0.20315    64.99992

 Normal termination of Gaussian 16 at Fri Dec 11 21:56:42 2020.
