 Gaussian 16, Revision A.03,

 -----------------------------------------------------------
 # opt freq B3LYP/6-31G(d) empiricaldispersion=gd3bj scf=xqc
 -----------------------------------------------------------

 --------------------------------
 CID_103231941_JID_10514_neutraal
 --------------------------------
 Symbolic Z-matrix:
 Charge =  0 Multiplicity = 1

 SCF Done:  E(RB3LYP) =  -937.532346592     A.U. after   15 cycles
 SCF Done:  E(RB3LYP) =  -937.537640481     A.U. after   13 cycles
 SCF Done:  E(RB3LYP) =  -937.538558063     A.U. after   12 cycles
 SCF Done:  E(RB3LYP) =  -937.538988953     A.U. after   12 cycles
 SCF Done:  E(RB3LYP) =  -937.536549559     A.U. after   13 cycles
 SCF Done:  E(RB3LYP) =  -937.538041425     A.U. after   13 cycles
 SCF Done:  E(RB3LYP) =  -937.539171566     A.U. after   10 cycles
 SCF Done:  E(RB3LYP) =  -937.539689005     A.U. after   12 cycles
 SCF Done:  E(RB3LYP) =  -937.541208147     A.U. after   13 cycles
 SCF Done:  E(RB3LYP) =  -937.541479937     A.U. after   13 cycles
 SCF Done:  E(RB3LYP) =  -937.543945453     A.U. after    9 cycles
 SCF Done:  E(RB3LYP) =  -937.543945437     A.U. after    9 cycles
 SCF Done:  E(RB3LYP) =  -937.543945434     A.U. after    7 cycles
 SCF Done:  E(RB3LYP) =  -937.543945413     A.U. after    7 cycles
 SCF Done:  E(RB3LYP) =  -937.543945416     A.U. after    6 cycles
 Optimization completed.
    -- Stationary point found.
 Normal termination of Gaussian 16 at Mon Dec 14 18:15:45 2020.

 --------------------------------------------------------------------
 #N Geom=AllCheck Guess=TCheck SCRF=Check GenChk RB3LYP/6-31G(d) Freq
 --------------------------------------------------------------------

 Structure from the checkpoint file:  "JID_10514.chk"
 --------------------------------
 CID_103231941_JID_10514_neutraal
 --------------------------------
 Charge =  0 Multiplicity = 1

 SCF Done:  E(RB3LYP) =  -937.543945416     A.U. after    1 cycles

  Exact polarizability: 196.649 -39.306 145.393   9.717   2.809 164.068
 Approx polarizability: 280.507 -77.136 227.171  23.235  -0.805 292.333

                      1                      2                      3
                      A                      A                      A
 Frequencies --     11.3020                20.5358                29.1530
 Red. masses --      2.2056                 1.5375                 4.6599
 Frc consts  --      0.0002                 0.0004                 0.0023
 IR Inten    --      0.4557                 0.8773                 0.2344

                      4                      5                      6
                      A                      A                      A
 Frequencies --     47.7716                66.2677                68.8166
 Red. masses --      5.9428                 3.9154                 4.5962
 Frc consts  --      0.0080                 0.0101                 0.0128
 IR Inten    --      0.0678                 1.8086                 1.6836

                      7                      8                      9
                      A                      A                      A
 Frequencies --     88.6854               108.4432               134.9075
 Red. masses --      5.1613                 5.0891                 2.3812
 Frc consts  --      0.0239                 0.0353                 0.0255
 IR Inten    --      4.2895                 1.5049                 0.0349

                     10                     11                     12
                      A                      A                      A
 Frequencies --    155.6141               165.5803               184.8405
 Red. masses --      3.4424                 4.5219                 4.1686
 Frc consts  --      0.0491                 0.0730                 0.0839
 IR Inten    --      0.2724                 1.1604                 1.8853

                     13                     14                     15
                      A                      A                      A
 Frequencies --    204.0923               257.9566               270.4116
 Red. masses --      3.8807                 2.8072                 1.6677
 Frc consts  --      0.0952                 0.1101                 0.0719
 IR Inten    --      0.1375                 0.7548                 3.1416

                     16                     17                     18
                      A                      A                      A
 Frequencies --    277.9716               322.7526               342.3271
 Red. masses --      1.8148                 4.2068                 4.4006
 Frc consts  --      0.0826                 0.2582                 0.3038
 IR Inten    --      1.4285                 1.1205                 2.5122

                     19                     20                     21
                      A                      A                      A
 Frequencies --    351.6541               365.6192               410.4575
 Red. masses --      3.5162                 2.9861                 6.4865
 Frc consts  --      0.2562                 0.2352                 0.6439
 IR Inten    --      0.2165                 0.8199                 4.8351

                     22                     23                     24
                      A                      A                      A
 Frequencies --    443.1666               494.7290               524.2320
 Red. masses --      4.7899                 3.5894                 3.5872
 Frc consts  --      0.5543                 0.5176                 0.5808
 IR Inten    --      6.7214                 4.6473                 6.7365

                     25                     26                     27
                      A                      A                      A
 Frequencies --    532.5428               551.9015               565.3243
 Red. masses --      5.1400                 4.4568                 1.3442
 Frc consts  --      0.8589                 0.7998                 0.2531
 IR Inten    --      2.1611                 1.9055                52.3474

                     28                     29                     30
                      A                      A                      A
 Frequencies --    585.9932               613.2631               615.3754
 Red. masses --      4.3384                 4.4161                 6.2949
 Frc consts  --      0.8777                 0.9785                 1.4045
 IR Inten    --      0.7386                 6.1031                 1.9914

                     31                     32                     33
                      A                      A                      A
 Frequencies --    652.8010               678.7953               723.7447
 Red. masses --      3.0693                 4.2079                 4.4369
 Frc consts  --      0.7706                 1.1423                 1.3693
 IR Inten    --     49.7456                40.7106                 2.2376

                     34                     35                     36
                      A                      A                      A
 Frequencies --    753.1017               760.8447               767.2422
 Red. masses --      3.3009                 1.3705                 7.1714
 Frc consts  --      1.1030                 0.4674                 2.4873
 IR Inten    --     14.8410                35.0354                21.0713

                     37                     38                     39
                      A                      A                      A
 Frequencies --    776.8630               800.7884               827.4044
 Red. masses --      4.0692                 3.3522                 3.7599
 Frc consts  --      1.4469                 1.2665                 1.5166
 IR Inten    --     25.5078                22.3515                 5.2760

                     40                     41                     42
                      A                      A                      A
 Frequencies --    833.6815               844.5535               862.5743
 Red. masses --      1.4657                 1.1672                 1.3528
 Frc consts  --      0.6002                 0.4905                 0.5930
 IR Inten    --     11.2828                 0.7586                12.3176

                     43                     44                     45
                      A                      A                      A
 Frequencies --    874.8766               924.5838               950.8611
 Red. masses --      1.7729                 1.3695                 2.4376
 Frc consts  --      0.7995                 0.6898                 1.2985
 IR Inten    --    129.3600                12.6667                13.3780

                     46                     47                     48
                      A                      A                      A
 Frequencies --    960.6699               985.2003              1006.0673
 Red. masses --      1.2259                 2.5912                 2.0445
 Frc consts  --      0.6666                 1.4818                 1.2192
 IR Inten    --      0.5512                 5.9636                16.5141

                     49                     50                     51
                      A                      A                      A
 Frequencies --   1015.8212              1065.4470              1072.8443
 Red. masses --      3.3545                 2.8157                 1.4860
 Frc consts  --      2.0395                 1.8832                 1.0077
 IR Inten    --      2.7876                26.4039                 5.0529

                     52                     53                     54
                      A                      A                      A
 Frequencies --   1076.1528              1085.1801              1125.4953
 Red. masses --      2.0071                 2.9879                 4.4155
 Frc consts  --      1.3695                 2.0731                 3.2955
 IR Inten    --     15.1640                22.5414               210.3451

                     55                     56                     57
                      A                      A                      A
 Frequencies --   1139.5836              1158.4021              1165.4088
 Red. masses --      1.8901                 2.1114                 3.5266
 Frc consts  --      1.4462                 1.6693                 2.8220
 IR Inten    --     12.0548                21.9886               185.6903

                     58                     59                     60
                      A                      A                      A
 Frequencies --   1186.4076              1193.7476              1198.2501
 Red. masses --      1.5000                 1.0957                 1.4973
 Frc consts  --      1.2440                 0.9200                 1.2667
 IR Inten    --     20.2555                 3.3745                 3.3898

                     61                     62                     63
                      A                      A                      A
 Frequencies --   1228.9941              1240.7661              1266.4795
 Red. masses --      1.9465                 2.2855                 2.1657
 Frc consts  --      1.7322                 2.0730                 2.0467
 IR Inten    --     38.2022                18.5768                61.3215

                     64                     65                     66
                      A                      A                      A
 Frequencies --   1297.4678              1314.8914              1321.1812
 Red. masses --      4.3538                 1.1773                 2.2141
 Frc consts  --      4.3183                 1.1993                 2.2771
 IR Inten    --    208.0839                 0.0948                13.1671

                     67                     68                     69
                      A                      A                      A
 Frequencies --   1335.1020              1368.7065              1377.9253
 Red. masses --      1.8433                 3.0171                 1.6374
 Frc consts  --      1.9358                 3.3301                 1.8317
 IR Inten    --      6.3776                25.9595                 3.3341

                     70                     71                     72
                      A                      A                      A
 Frequencies --   1386.6104              1423.5012              1445.7332
 Red. masses --      2.4374                 1.2761                 1.2277
 Frc consts  --      2.7611                 1.5235                 1.5119
 IR Inten    --     22.1668                10.9403                 1.4598

                     73                     74                     75
                      A                      A                      A
 Frequencies --   1454.4623              1476.5429              1491.0072
 Red. masses --      1.3408                 4.0778                 1.4532
 Frc consts  --      1.6712                 5.2380                 1.9034
 IR Inten    --     33.2847               123.5953                 6.5913

                     76                     77                     78
                      A                      A                      A
 Frequencies --   1502.2460              1511.9836              1517.1069
 Red. masses --      1.3195                 1.0589                 1.0401
 Frc consts  --      1.7545                 1.4262                 1.4104
 IR Inten    --     20.5964                 5.3086                 6.3239

                     79                     80                     81
                      A                      A                      A
 Frequencies --   1522.8868              1530.8110              1539.2342
 Red. masses --      1.1414                 1.7447                 1.1042
 Frc consts  --      1.5597                 2.4089                 1.5414
 IR Inten    --      3.8444                12.7353                 3.3755

                     82                     83                     84
                      A                      A                      A
 Frequencies --   1550.5980              1558.7304              1570.5632
 Red. masses --      1.5015                 1.4234                 7.4686
 Frc consts  --      2.1271                 2.0376                10.8542
 IR Inten    --     95.0539                31.7699                70.8305

                     85                     86                     87
                      A                      A                      A
 Frequencies --   1643.3322              1651.6620              1665.1139
 Red. masses --      7.1471                 5.5894                 5.4428
 Frc consts  --     11.3719                 8.9838                 8.8912
 IR Inten    --      4.9379                 5.3180                16.0295

                     88                     89                     90
                      A                      A                      A
 Frequencies --   1813.4819              3018.4520              3056.8447
 Red. masses --      9.3748                 1.0552                 1.1053
 Frc consts  --     18.1652                 5.6644                 6.0851
 IR Inten    --    434.7077                29.6279                37.1905

                     91                     92                     93
                      A                      A                      A
 Frequencies --   3060.0695              3065.7322              3086.8563
 Red. masses --      1.0398                 1.0403                 1.0598
 Frc consts  --      5.7364                 5.7609                 5.9501
 IR Inten    --     16.2937                31.4042                30.4976

                     94                     95                     96
                      A                      A                      A
 Frequencies --   3120.1830              3131.3119              3137.5628
 Red. masses --      1.0969                 1.1022                 1.1063
 Frc consts  --      6.2920                 6.3672                 6.4169
 IR Inten    --     12.2863                23.6847                 8.8317

                     97                     98                     99
                      A                      A                      A
 Frequencies --   3149.4689              3159.8367              3186.0262
 Red. masses --      1.1027                 1.1023                 1.0853
 Frc consts  --      6.4444                 6.4845                 6.4905
 IR Inten    --     10.2833                 5.3193                 0.3647

                    100                    101                    102
                      A                      A                      A
 Frequencies --   3195.1354              3209.7641              3225.1553
 Red. masses --      1.0900                 1.0952                 1.0927
 Frc consts  --      6.5565                 6.6478                 6.6968
 IR Inten    --     16.5123                29.6738                 9.9172

                    103                    104                    105
                      A                      A                      A
 Frequencies --   3268.8141              3520.5535              3698.3724
 Red. masses --      1.0971                 1.0731                 1.0641
 Frc consts  --      6.9067                 7.8367                 8.5753
 IR Inten    --      1.6083                10.9386                85.8603

 - Thermochemistry -
 -------------------
 Temperature   298.150 Kelvin.  Pressure   1.00000 Atm.
 Atom     1 has atomic number  6 and mass  12.00000

 Molecular mass:   275.11576 amu.
 Principal axes and moments of inertia in atomic units:
                           1         2         3
     Eigenvalues --  3374.314726978.336077494.26716
           X            0.99988  -0.01470  -0.00568
           Y            0.01460   0.99975  -0.01672
           Z            0.00593   0.01663   0.99984
 This molecule is an asymmetric top.
 Rotational symmetry number  1.
 Warning -- assumption of classical behavior for rotation
           may cause significant error
 Rotational temperatures (Kelvin)      0.02567     0.01241     0.01156
 Rotational constants (GHZ):           0.53485     0.25862     0.24082
 Zero-point vibrational energy     792982.6 (Joules/Mol)
                                  189.52740 (Kcal/Mol)
 Warning -- explicit consideration of  30 degrees of freedom as
           vibrations may cause significant error
 Vibrational temperatures:     16.26    29.55    41.94    68.73    95.34
          (Kelvin)             99.01   127.60   156.03   194.10   223.89
                              238.23   265.94   293.64   371.14   389.06
                              399.94   464.37   492.53   505.95   526.04
                              590.56   637.62   711.80   754.25   766.21
                              794.06   813.38   843.11   882.35   885.39
                              939.24   976.64  1041.31  1083.55  1094.69
                             1103.89  1117.73  1152.16  1190.45  1199.48
                             1215.12  1241.05  1258.75  1330.27  1368.08
                             1382.19  1417.48  1447.51  1461.54  1532.94
                             1543.58  1548.34  1561.33  1619.34  1639.61
                             1666.68  1676.76  1706.98  1717.54  1724.01
                             1768.25  1785.19  1822.18  1866.77  1891.84
                             1900.89  1920.91  1969.26  1982.53  1995.02
                             2048.10  2080.09  2092.65  2124.42  2145.23
                             2161.40  2175.41  2182.78  2191.09  2202.50
                             2214.61  2230.96  2242.67  2259.69  2364.39
                             2376.37  2395.73  2609.20  4342.88  4398.12
                             4402.76  4410.90  4441.30  4489.25  4505.26
                             4514.25  4531.38  4546.30  4583.98  4597.09
                             4618.13  4640.28  4703.09  5065.29  5321.13

 Zero-point correction=                           0.302031 (Hartree/Particle)
 Thermal correction to Energy=                    0.321223
 Thermal correction to Enthalpy=                  0.322168
 Thermal correction to Gibbs Free Energy=         0.251178
 Sum of electronic and zero-point Energies=           -937.241914
 Sum of electronic and thermal Energies=              -937.222722
 Sum of electronic and thermal Enthalpies=            -937.221778
 Sum of electronic and thermal Free Energies=         -937.292767

                     E (Thermal)             CV                S
                      KCal/Mol        Cal/Mol-Kelvin    Cal/Mol-Kelvin
 Total                  201.571             71.245            149.410
 Electronic               0.000              0.000              0.000
 Translational            0.889              2.981             42.735
 Rotational               0.889              2.981             33.534
 Vibrational            199.793             65.284             73.141
 Vibration     1          0.593              1.987              7.768
 Vibration     2          0.593              1.986              6.582
 Vibration     3          0.593              1.984              5.886
 Vibration     4          0.595              1.978              4.908
 Vibration     5          0.598              1.970              4.261
 Vibration     6          0.598              1.969              4.187
 Vibration     7          0.602              1.957              3.689
 Vibration     8          0.606              1.942              3.297
 Vibration     9          0.613              1.918              2.875
 Vibration    10          0.620              1.896              2.602
 Vibration    11          0.624              1.885              2.485
 Vibration    12          0.631              1.861              2.279
 Vibration    13          0.640              1.834              2.096
 Vibration    14          0.667              1.749              1.676
 Vibration    15          0.674              1.728              1.594
 Vibration    16          0.679              1.714              1.546
 Vibration    17          0.708              1.630              1.296
 Vibration    18          0.721              1.591              1.201
 Vibration    19          0.728              1.572              1.159
 Vibration    20          0.739              1.543              1.098
 Vibration    21          0.775              1.448              0.925
 Vibration    22          0.803              1.376              0.817
 Vibration    23          0.850              1.262              0.671
 Vibration    24          0.879              1.196              0.600
 Vibration    25          0.888              1.178              0.582
 Vibration    26          0.907              1.136              0.540
 Vibration    27          0.921              1.106              0.513
 Vibration    28          0.943              1.062              0.474
 Vibration    29          0.973              1.004              0.427
 Vibration    30          0.975              0.999              0.424

 Optimization completed on the basis of negligible forces.
    -- Stationary point found.
 Normal termination of Gaussian 16 at Mon Dec 14 18:36:30 2020.

 ----------------------------------------------------------------------
 # B3LYP/6-311++G(d,p) empiricaldispersion=gd3bj scf=xqc pop=npa geom=c
 heck
 ----------------------------------------------------------------------

 ----------------------------------------
 CID_103231941_JID_10514_Energie_neutraal
 ----------------------------------------
 Structure from the checkpoint file:  "JID_10514.chk"
 Charge =  0 Multiplicity = 1

 SCF Done:  E(RB3LYP) =  -937.811809668     A.U. after   16 cycles
 Normal termination of Gaussian 16 at Mon Dec 14 18:44:22 2020.

 ----------------------------------------------------------------------
 # B3LYP/6-311++G(d,p) empiricaldispersion=gd3bj scf=xqc pop=npa geom=c
 heck
 ----------------------------------------------------------------------

 --------------------------------------
 CID_103231941_JID_10514_Energie_kation
 --------------------------------------
 Structure from the checkpoint file:  "JID_10514.chk"
 Charge =  1 Multiplicity = 2

 SCF Done:  E(UB3LYP) =  -937.535297225     A.U. after   25 cycles
 Normal termination of Gaussian 16 at Mon Dec 14 19:01:19 2020.
 Gaussian 16:  ES64L-G16RevA.03 25-Dec-2016

 ----------------------------------------------------------------------
 # B3LYP/6-311++G(d,p) empiricaldispersion=gd3bj scf=xqc pop=npa geom=c
 heck
 ----------------------------------------------------------------------

 -------------------------------------
 CID_103231941_JID_10514_Energie_anion
 -------------------------------------
 Structure from the checkpoint file:  "JID_10514.chk"
 Charge = -1 Multiplicity = 2

                         Standard orientation:
 ---------------------------------------------------------------------
 Center     Atomic      Atomic             Coordinates (Angstroms)
 Number     Number       Type             X           Y           Z
 ---------------------------------------------------------------------
      1          6           0       -1.120229    3.096806   -0.421751
      2          6           0        0.009186    2.512812    0.406097
      3          8           0        0.753844    1.642782   -0.445250
      4          6           0        1.815561    0.954991    0.071623
      5          6           0        2.379914    1.178067    1.327343
      6          6           0        3.454091    0.389954    1.753279
      7          6           0        3.966562   -0.607794    0.928286
      8          6           0        3.405145   -0.819064   -0.333759
      9          6           0        2.329150   -0.051829   -0.774025
     10          7           0        1.712159   -0.304738   -2.029884
     11          6           0        0.878395   -1.528785   -2.038942
     12          6           0       -0.175099   -1.512725   -0.978742
     13          6           0       -0.188562   -1.955998    0.317651
     14          6           0       -1.382924   -1.463362    0.922778
     15          6           0       -2.021482   -0.740820   -0.065410
     16          8           0       -1.285326   -0.771134   -1.224501
     17          6           0       -3.261056    0.014333   -0.121588
     18          8           0       -3.657092    0.665930   -1.069528
     19          8           0       -3.959953   -0.071873    1.046931
     20          6           0       -1.824038   -1.700466    2.334756
     21          1           0       -0.717416    3.682194   -1.254471
     22          1           0       -1.735118    3.758117    0.198349
     23          1           0       -1.757470    2.307940   -0.829428
     24          1           0        0.663954    3.306251    0.792076
     25          1           0       -0.371968    1.937844    1.261699
     26          1           0        1.980886    1.944970    1.981127
     27          1           0        3.886267    0.566102    2.734062
     28          1           0        4.805021   -1.214707    1.256495
     29          1           0        3.799652   -1.584623   -0.996139
     30          1           0        1.111035    0.484766   -2.255018
     31          1           0        0.424598   -1.618550   -3.030485
     32          1           0        1.526962   -2.394804   -1.885112
     33          1           0        0.584209   -2.540005    0.797711
     34          1           0       -4.754279    0.475800    0.906480
     35          1           0       -0.989206   -2.069428    2.937362
     36          1           0       -2.213322   -0.786819    2.790401
     37          1           0       -2.628389   -2.444239    2.377299
 ---------------------------------------------------------------------

 SCF Done:  E(UB3LYP) =  -937.811142847     A.U. after   33 cycles
 SCF Done:  E(UB3LYP) =  -937.811142848     a.u. after    1 cycles

 The electronic state is 2-A.
 Alpha  occ. eigenvalues --  -19.04959 -19.03781 -19.02763 -18.95231 -14.20142
 Alpha  occ. eigenvalues --  -10.13882 -10.12969 -10.12526 -10.09999 -10.09626
 Alpha  occ. eigenvalues --  -10.08300 -10.07536 -10.07323 -10.07271 -10.07090
 Alpha  occ. eigenvalues --  -10.07028 -10.05815 -10.04990 -10.04085 -10.03673
 Alpha  occ. eigenvalues --   -0.97501  -0.96667  -0.95917  -0.86766  -0.81834
 Alpha  occ. eigenvalues --   -0.74360  -0.68379  -0.67651  -0.65544  -0.63647
 Alpha  occ. eigenvalues --   -0.61880  -0.58355  -0.57223  -0.54458  -0.50421
 Alpha  occ. eigenvalues --   -0.49179  -0.48319  -0.46015  -0.44090  -0.41458
 Alpha  occ. eigenvalues --   -0.40624  -0.38781  -0.38510  -0.37468  -0.35796
 Alpha  occ. eigenvalues --   -0.34832  -0.34591  -0.33811  -0.32877  -0.32475
 Alpha  occ. eigenvalues --   -0.30619  -0.30390  -0.29692  -0.29264  -0.29178
 Alpha  occ. eigenvalues --   -0.28653  -0.28422  -0.27759  -0.27103  -0.26416
 Alpha  occ. eigenvalues --   -0.25767  -0.25395  -0.24940  -0.23072  -0.22458
 Alpha  occ. eigenvalues --   -0.21661  -0.18772  -0.17754  -0.14658  -0.13886
 Alpha  occ. eigenvalues --   -0.13776  -0.10962  -0.09798   0.04750
 Alpha virt. eigenvalues --    0.06225   0.07249   0.08051   0.08438   0.08855
 Alpha virt. eigenvalues --    0.09207   0.09755   0.09976   0.10095   0.11052
 Alpha virt. eigenvalues --    0.11459   0.11532   0.12089   0.13074   0.13181

  Beta  occ. eigenvalues --  -19.04957 -19.03530 -19.02669 -18.94939 -14.20097
  Beta  occ. eigenvalues --  -10.13589 -10.12965 -10.12517 -10.09998 -10.09645
  Beta  occ. eigenvalues --  -10.08013 -10.07491 -10.07316 -10.07264 -10.07086
  Beta  occ. eigenvalues --  -10.07023 -10.05814 -10.05011 -10.03832 -10.03768
  Beta  occ. eigenvalues --   -0.97102  -0.96648  -0.95583  -0.86310  -0.81756
  Beta  occ. eigenvalues --   -0.74333  -0.68032  -0.67631  -0.65326  -0.63530
  Beta  occ. eigenvalues --   -0.61778  -0.58252  -0.56953  -0.54426  -0.50167
  Beta  occ. eigenvalues --   -0.49121  -0.48230  -0.45912  -0.44067  -0.41171
  Beta  occ. eigenvalues --   -0.40555  -0.38627  -0.38460  -0.37362  -0.35710
  Beta  occ. eigenvalues --   -0.34444  -0.34264  -0.33737  -0.32511  -0.31825
  Beta  occ. eigenvalues --   -0.30575  -0.30235  -0.29471  -0.29247  -0.28880
  Beta  occ. eigenvalues --   -0.28498  -0.27740  -0.27495  -0.27042  -0.26352
  Beta  occ. eigenvalues --   -0.25651  -0.25353  -0.24771  -0.23048  -0.22281
  Beta  occ. eigenvalues --   -0.21640  -0.17737  -0.17474  -0.14005  -0.13614
  Beta  occ. eigenvalues --   -0.13508  -0.10730  -0.08537
  Beta virt. eigenvalues --    0.06670   0.07445   0.08193   0.08380   0.08845
  Beta virt. eigenvalues --    0.09250   0.09796   0.09937   0.09973   0.10313
  Beta virt. eigenvalues --    0.11019   0.11440   0.11625   0.12091   0.13030

 Mulliken charges and spin densities:
               1          2
     1  C   -0.680003  -0.067409
     2  C    0.302088  -0.257171
     3  O   -0.034629  -0.009499
     4  C   -0.028400   0.169868
     5  C    0.539557  -0.568457
     6  C    0.160342  -0.435369
     7  C    0.387367  -0.645961
     8  C   -0.464279   0.144005
     9  C   -0.812123   0.668224
    10  N    0.188124  -0.039994
    11  C   -0.856381  -0.008123
    12  C    0.074769   0.195398
    13  C    0.113611  -0.171515
    14  C    0.209492   0.247251
    15  C   -0.609643   0.110938
    16  O    0.041895   0.047572
    17  C   -0.103151   0.180046
    18  O   -0.360701   0.099197
    19  O   -0.172660   0.015389
    20  C   -0.218823  -0.178042
    21  H    0.098289   0.032629
    22  H    0.116765   0.008632
    23  H    0.209189  -0.012344
    24  H   -0.057390   0.183895
    25  H    0.163125  -0.006882
    26  H   -0.069405   0.234609
    27  H   -0.374827   0.541808
    28  H   -0.102170   0.252571
    29  H    0.035381   0.104568
    30  H    0.276939  -0.008563
    31  H    0.131048   0.057996
    32  H    0.147368  -0.000087
    33  H    0.127191   0.016964
    34  H    0.258712   0.006151
    35  H    0.077962   0.043804
    36  H    0.121973   0.045412
    37  H    0.163398   0.002490
 Sum of Mulliken charges =  -1.00000   1.00000

 Dipole moment (field-independent basis, Debye):
    X=              0.5659    Y=              0.1547    Z=              0.6607  Tot=              0.8836
 Quadrupole moment (field-independent basis, Debye-Ang):
   XX=           -177.7191   YY=           -135.7024   ZZ=           -147.3999
   XY=             -4.9225   XZ=            -14.0772   YZ=              1.7958

 Summary of Natural Population Analysis:

                                       Natural Population
                Natural  -----------------------------------------------
    Atom  No    Charge         Core      Valence    Rydberg      Total
 -----------------------------------------------------------------------
      C    1   -0.29699      0.99965     2.29245    0.00489     3.29699
      C    2   -0.01225      0.99959     2.00020    0.01245     3.01225
      O    3   -0.28177      0.99985     3.27144    0.01048     4.28177
      C    4    0.15423      0.99933     1.83339    0.01305     2.84577
      C    5   -0.13928      0.99952     2.13019    0.00957     3.13928
      C    6   -0.10556      0.99958     2.09557    0.01041     3.10556
      C    7   -0.11614      0.99957     2.10613    0.01044     3.11614
      C    8   -0.10976      0.99952     2.09988    0.01037     3.10976
      C    9    0.06730      0.99944     1.92057    0.01269     2.93270
      N   10   -0.32565      0.99972     2.81356    0.01237     3.82565
      C   11   -0.10786      0.99957     2.09732    0.01097     3.10786
      C   12    0.20029      0.99947     1.78663    0.01361     2.79971
      C   13   -0.17764      0.99946     2.16942    0.00876     3.17764
      C   14    0.00895      0.99950     1.98166    0.00988     2.99105
      C   15    0.08272      0.99934     1.90253    0.01542     2.91728
      O   16   -0.20777      0.99985     3.19965    0.00828     4.20777
      C   17    0.40579      0.99964     1.57097    0.02359     2.59421
      O   18   -0.30250      0.99987     3.29633    0.00629     4.30250
      O   19   -0.35258      0.99988     3.34631    0.00639     4.35258
      C   20   -0.29303      0.99964     2.28885    0.00454     3.29303
      H   21    0.09481      0.00000     0.40421    0.00098     0.40519
      H   22    0.09643      0.00000     0.40280    0.00077     0.40357
      H   23    0.12273      0.00000     0.37576    0.00152     0.37727
      H   24    0.07747      0.00000     0.42098    0.00154     0.42253
      H   25    0.08904      0.00000     0.40943    0.00153     0.41096
      H   26    0.10408      0.00000     0.39457    0.00135     0.39592
      H   27    0.09958      0.00000     0.39927    0.00114     0.40042
      H   28    0.09860      0.00000     0.40057    0.00084     0.40140
      H   29    0.10119      0.00000     0.39770    0.00111     0.39881
      H   30    0.18642      0.00000     0.31061    0.00297     0.31358
      H   31    0.10245      0.00000     0.39631    0.00124     0.39755
      H   32    0.09707      0.00000     0.40192    0.00102     0.40293
      H   33    0.10291      0.00000     0.39604    0.00105     0.39709
      H   34    0.22851      0.00000     0.26667    0.00483     0.27149
      H   35    0.09571      0.00000     0.40340    0.00090     0.40429
      H   36    0.10923      0.00000     0.38954    0.00123     0.39077
      H   37    0.10328      0.00000     0.39580    0.00092     0.39672
 =======================================================================
   * Total *   -0.00000     19.99199    52.76863    0.23938    73.00000

 Normal termination of Gaussian 16 at Mon Dec 14 19:23:43 2020.
