 Gaussian 16, Revision A.03,

 -----------------------------------------------------------
 # opt freq B3LYP/6-31G(d) empiricaldispersion=gd3bj scf=xqc
 -----------------------------------------------------------

 ------------------------------
 CID_15598790_JID_3924_neutraal
 ------------------------------
 Symbolic Z-matrix:
 Charge =  0 Multiplicity = 1

 SCF Done:  E(RB3LYP) =  -574.082320750     A.U. after   16 cycles
 SCF Done:  E(RB3LYP) =  -574.104525209     A.U. after   13 cycles
 SCF Done:  E(RB3LYP) =  -574.106722255     A.U. after   12 cycles
 SCF Done:  E(RB3LYP) =  -574.106746177     A.U. after   12 cycles
 SCF Done:  E(RB3LYP) =  -574.106463358     A.U. after   12 cycles
 SCF Done:  E(RB3LYP) =  -574.107337664     A.U. after   12 cycles
 SCF Done:  E(RB3LYP) =  -574.107197267     A.U. after   12 cycles
 SCF Done:  E(RB3LYP) =  -574.107445376     A.U. after   12 cycles
 SCF Done:  E(RB3LYP) =  -574.107463997     A.U. after   11 cycles
 SCF Done:  E(RB3LYP) =  -574.107476915     A.U. after   10 cycles
 SCF Done:  E(RB3LYP) =  -574.107477535     A.U. after    8 cycles
 SCF Done:  E(RB3LYP) =  -574.107477706     A.U. after    8 cycles
 SCF Done:  E(RB3LYP) =  -574.107477756     A.U. after    7 cycles
 Optimization completed.
    -- Stationary point found.
 Normal termination of Gaussian 16 at Sun Dec 13 20:03:51 2020.

 --------------------------------------------------------------------
 #N Geom=AllCheck Guess=TCheck SCRF=Check GenChk RB3LYP/6-31G(d) Freq
 --------------------------------------------------------------------

 Structure from the checkpoint file:  "JID_3924.chk"
 ------------------------------
 CID_15598790_JID_3924_neutraal
 ------------------------------
 Charge =  0 Multiplicity = 1

 SCF Done:  E(RB3LYP) =  -574.107477756     A.U. after    1 cycles

  Exact polarizability: 130.028  16.931 131.618  -6.442   1.643  91.820
 Approx polarizability: 169.349  40.036 225.782 -13.428   2.320 143.288

                      1                      2                      3
                      A                      A                      A
 Frequencies --     33.3958                50.4350                71.3540
 Red. masses --      4.3397                 4.0506                 3.3580
 Frc consts  --      0.0029                 0.0061                 0.0101
 IR Inten    --      0.1082                 0.1986                 0.1629

                      4                      5                      6
                      A                      A                      A
 Frequencies --    123.7361               170.3256               186.3521
 Red. masses --      3.9954                 3.3465                 4.0294
 Frc consts  --      0.0360                 0.0572                 0.0824
 IR Inten    --      0.6300                 1.1214                 0.9641

                      7                      8                      9
                      A                      A                      A
 Frequencies --    216.7716               242.1764               294.2468
 Red. masses --      1.8417                 1.3890                 4.1082
 Frc consts  --      0.0510                 0.0480                 0.2096
 IR Inten    --      0.4629                 0.3113                 3.7122

                     10                     11                     12
                      A                      A                      A
 Frequencies --    303.5494               332.2741               364.4957
 Red. masses --      3.1579                 4.1100                 2.6211
 Frc consts  --      0.1714                 0.2674                 0.2052
 IR Inten    --      4.2267                 0.4269                 0.6918

                     13                     14                     15
                      A                      A                      A
 Frequencies --    379.6267               407.0444               418.9840
 Red. masses --      1.8733                 3.4940                 1.7980
 Frc consts  --      0.1591                 0.3411                 0.1860
 IR Inten    --     45.0820                12.3216                15.1094

                     16                     17                     18
                      A                      A                      A
 Frequencies --    442.3317               466.5511               500.6369
 Red. masses --      2.2790                 2.0731                 4.1254
 Frc consts  --      0.2627                 0.2659                 0.6092
 IR Inten    --      9.3967                32.8763                 6.0511

                     19                     20                     21
                      A                      A                      A
 Frequencies --    541.0548               580.9929               596.8338
 Red. masses --      4.4229                 3.0594                 1.2023
 Frc consts  --      0.7628                 0.6084                 0.2523
 IR Inten    --      8.3833                 0.9800                42.7507

                     22                     23                     24
                      A                      A                      A
 Frequencies --    611.6256               653.7038               729.8454
 Red. masses --      1.2128                 4.4856                 3.2495
 Frc consts  --      0.2673                 1.1294                 1.0198
 IR Inten    --     43.8854                 9.1954                41.1290

                     25                     26                     27
                      A                      A                      A
 Frequencies --    786.2680               827.9163               873.3985
 Red. masses --      2.0306                 3.5240                 1.6561
 Frc consts  --      0.7396                 1.4232                 0.7443
 IR Inten    --      2.4909                 5.7926                15.3233

                     28                     29                     30
                      A                      A                      A
 Frequencies --    909.9158               922.6121               951.1253
 Red. masses --      2.8202                 3.0664                 2.5802
 Frc consts  --      1.3757                 1.5379                 1.3752
 IR Inten    --     22.0579                18.6397                 1.9897

                     31                     32                     33
                      A                      A                      A
 Frequencies --    980.5179               986.7199              1005.1588
 Red. masses --      2.6328                 3.1038                 2.6454
 Frc consts  --      1.4913                 1.7805                 1.5748
 IR Inten    --     25.9636                63.8404                76.5792

                     34                     35                     36
                      A                      A                      A
 Frequencies --   1044.0807              1058.2820              1082.6643
 Red. masses --      2.1501                 2.7096                 2.2622
 Frc consts  --      1.3809                 1.7879                 1.5623
 IR Inten    --     17.5008                18.5277                34.2040

                     37                     38                     39
                      A                      A                      A
 Frequencies --   1087.6876              1153.8861              1172.9133
 Red. masses --      2.1525                 1.8458                 1.3780
 Frc consts  --      1.5004                 1.4480                 1.1169
 IR Inten    --     10.0418                21.8549                 5.7991

                     40                     41                     42
                      A                      A                      A
 Frequencies --   1214.9057              1228.1074              1247.1306
 Red. masses --      1.3687                 1.2439                 1.3067
 Frc consts  --      1.1902                 1.1054                 1.1975
 IR Inten    --     12.9217                 1.2491                 4.6060

                     43                     44                     45
                      A                      A                      A
 Frequencies --   1309.6150              1327.1159              1343.8731
 Red. masses --      1.8768                 1.7165                 1.4185
 Frc consts  --      1.8965                 1.7812                 1.5093
 IR Inten    --     68.8239                18.4354                 3.0534

                     46                     47                     48
                      A                      A                      A
 Frequencies --   1352.1702              1378.6303              1397.1027
 Red. masses --      1.4211                 1.4752                 1.4984
 Frc consts  --      1.5309                 1.6520                 1.7232
 IR Inten    --      4.2220                 1.6070                 7.2280

                     49                     50                     51
                      A                      A                      A
 Frequencies --   1407.8608              1411.2743              1432.5480
 Red. masses --      1.4090                 1.4947                 1.8493
 Frc consts  --      1.6454                 1.7540                 2.2361
 IR Inten    --     24.0444                 9.8748                24.9974

                     52                     53                     54
                      A                      A                      A
 Frequencies --   1479.3221              1499.0257              1502.5809
 Red. masses --      1.1559                 1.0870                 1.0861
 Frc consts  --      1.4904                 1.4391                 1.4448
 IR Inten    --      0.9106                 2.7840                 6.7094

                     55                     56                     57
                      A                      A                      A
 Frequencies --   1503.3492              1516.0480              1520.4533
 Red. masses --      1.0827                 1.0514                 1.1070
 Frc consts  --      1.4417                 1.4237                 1.5078
 IR Inten    --     17.1045                10.7059                 3.1415

                     58                     59                     60
                      A                      A                      A
 Frequencies --   1547.4345              1690.6534              1712.2738
 Red. masses --      1.0502                 6.7653                 6.4200
 Frc consts  --      1.4816                11.3933                11.0900
 IR Inten    --      2.3799                 4.6448                10.6615

                     61                     62                     63
                      A                      A                      A
 Frequencies --   2244.9783              2974.8373              3015.3849
 Red. masses --      5.9707                 1.0567                 1.0665
 Frc consts  --     17.7297                 5.5097                 5.7134
 IR Inten    --      3.4425                56.8822                31.6756

                     64                     65                     66
                      A                      A                      A
 Frequencies --   3027.7348              3039.1942              3052.9770
 Red. masses --      1.0719                 1.0736                 1.0814
 Frc consts  --      5.7894                 5.8429                 5.9387
 IR Inten    --     27.3595                19.5241                73.1846

                     67                     68                     69
                      A                      A                      A
 Frequencies --   3055.5554              3076.0446              3090.8855
 Red. masses --      1.0677                 1.0759                 1.1052
 Frc consts  --      5.8731                 5.9978                 6.2211
 IR Inten    --      7.9539                45.2076                43.7642

                     70                     71                     72
                      A                      A                      A
 Frequencies --   3115.8266              3120.6360              3126.7604
 Red. masses --      1.0982                 1.0964                 1.0926
 Frc consts  --      6.2815                 6.2908                 6.2938
 IR Inten    --      8.8623                30.7478                 1.2225

                     73                     74                     75
                      A                      A                      A
 Frequencies --   3189.9995              3497.6968              3761.4776
 Red. masses --      1.0891                 1.1603                 1.0677
 Frc consts  --      6.5299                 8.3633                 8.9002
 IR Inten    --     14.4966                56.9665                97.8347

 - Thermochemistry -
 -------------------
 Temperature   298.150 Kelvin.  Pressure   1.00000 Atm.
 Atom     1 has atomic number  6 and mass  12.00000

 Molecular mass:   178.11061 amu.
 Principal axes and moments of inertia in atomic units:
                           1         2         3
     Eigenvalues --  1509.360803414.667514171.62887
           X            0.99996   0.00547   0.00706
           Y           -0.00540   0.99993  -0.01060
           Z           -0.00712   0.01056   0.99992
 This molecule is an asymmetric top.
 Rotational symmetry number  1.
 Warning -- assumption of classical behavior for rotation
           may cause significant error
 Rotational temperatures (Kelvin)      0.05738     0.02537     0.02076
 Rotational constants (GHZ):           1.19570     0.52853     0.43262
 Zero-point vibrational energy     597971.1 (Joules/Mol)
                                  142.91851 (Kcal/Mol)
 Warning -- explicit consideration of  22 degrees of freedom as
           vibrations may cause significant error
 Vibrational temperatures:     48.05    72.56   102.66   178.03   245.06
          (Kelvin)            268.12   311.89   348.44   423.36   436.74
                              478.07   524.43   546.20   585.65   602.82
                              636.42   671.26   720.30   778.46   835.92
                              858.71   879.99   940.53  1050.08  1131.26
                             1191.19  1256.63  1309.17  1327.43  1368.46
                             1410.75  1419.67  1446.20  1502.20  1522.63
                             1557.71  1564.94  1660.18  1687.56  1747.98
                             1766.97  1794.34  1884.24  1909.42  1933.53
                             1945.47  1983.54  2010.12  2025.60  2030.51
                             2061.12  2128.41  2156.76  2161.88  2162.98
                             2181.25  2187.59  2226.41  2432.47  2463.58
                             3230.02  4280.13  4338.47  4356.24  4372.72
                             4392.55  4396.26  4425.74  4447.09  4482.98
                             4489.90  4498.71  4589.70  5032.41  5411.93

 Zero-point correction=                           0.227755 (Hartree/Particle)
 Thermal correction to Energy=                    0.240933
 Thermal correction to Enthalpy=                  0.241877
 Thermal correction to Gibbs Free Energy=         0.187817
 Sum of electronic and zero-point Energies=           -573.879723
 Sum of electronic and thermal Energies=              -573.866545
 Sum of electronic and thermal Enthalpies=            -573.865600
 Sum of electronic and thermal Free Energies=         -573.919660

                     E (Thermal)             CV                S
                      KCal/Mol        Cal/Mol-Kelvin    Cal/Mol-Kelvin
 Total                  151.188             50.237            113.779
 Electronic               0.000              0.000              0.000
 Translational            0.889              2.981             41.439
 Rotational               0.889              2.981             31.442
 Vibrational            149.410             44.275             40.898
 Vibration     1          0.594              1.983              5.617
 Vibration     2          0.595              1.977              4.800
 Vibration     3          0.598              1.968              4.116
 Vibration     4          0.610              1.929              3.041
 Vibration     5          0.625              1.879              2.432
 Vibration     6          0.632              1.859              2.264
 Vibration     7          0.646              1.815              1.986
 Vibration     8          0.658              1.776              1.787
 Vibration     9          0.689              1.684              1.449
 Vibration    10          0.695              1.667              1.397
 Vibration    11          0.714              1.611              1.249
 Vibration    12          0.738              1.545              1.103
 Vibration    13          0.750              1.514              1.041
 Vibration    14          0.772              1.455              0.937
 Vibration    15          0.782              1.429              0.895
 Vibration    16          0.802              1.378              0.819
 Vibration    17          0.824              1.324              0.747
 Vibration    18          0.856              1.249              0.657
 Vibration    19          0.896              1.159              0.563
 Vibration    20          0.938              1.072              0.484
 Vibration    21          0.955              1.039              0.455
 Vibration    22          0.971              1.007              0.430

 Optimization completed.
    -- Stationary point found.
 Normal termination of Gaussian 16 at Sun Dec 13 20:10:33 2020.

 ----------------------------------------------------------------------
 # B3LYP/6-311++G(d,p) empiricaldispersion=gd3bj scf=xqc pop=npa geom=c
 heck
 ----------------------------------------------------------------------

 --------------------------------------
 CID_15598790_JID_3924_Energie_neutraal
 --------------------------------------
 Structure from the checkpoint file:  "JID_3924.chk"
 Charge =  0 Multiplicity = 1

 SCF Done:  E(RB3LYP) =  -574.276605141     A.U. after   16 cycles
 Normal termination of Gaussian 16 at Sun Dec 13 20:13:47 2020.

 ----------------------------------------------------------------------
 # B3LYP/6-311++G(d,p) empiricaldispersion=gd3bj scf=xqc pop=npa geom=c
 heck
 ----------------------------------------------------------------------

 ------------------------------------
 CID_15598790_JID_3924_Energie_kation
 ------------------------------------
 Structure from the checkpoint file:  "JID_3924.chk"
 Charge =  1 Multiplicity = 2

 SCF Done:  E(UB3LYP) =  -573.989933829     A.U. after   27 cycles
 Normal termination of Gaussian 16 at Sun Dec 13 20:21:33 2020.
 Gaussian 16:  ES64L-G16RevA.03 25-Dec-2016

 ----------------------------------------------------------------------
 # B3LYP/6-311++G(d,p) empiricaldispersion=gd3bj scf=xqc pop=npa geom=c
 heck
 ----------------------------------------------------------------------

 -----------------------------------
 CID_15598790_JID_3924_Energie_anion
 -----------------------------------
 Structure from the checkpoint file:  "JID_3924.chk"
 Charge = -1 Multiplicity = 2

                         Standard orientation:
 ---------------------------------------------------------------------
 Center     Atomic      Atomic             Coordinates (Angstroms)
 Number     Number       Type             X           Y           Z
 ---------------------------------------------------------------------
      1          6           0        2.634457   -0.316444    1.641711
      2          7           0        2.529270   -0.781695    0.263355
      3          6           0        2.962346    0.218765   -0.709254
      4          6           0        2.059965    1.464864   -0.736244
      5          6           0        0.606736    1.088290   -0.664708
      6          6           0        0.184027   -0.154010   -0.364610
      7          6           0        1.189044   -1.261038   -0.063630
      8          6           0       -1.244222   -0.500546   -0.336298
      9          7           0       -1.528802   -1.709722    0.008234
     10          8           0       -2.907627   -1.966339    0.018137
     11          6           0       -2.302612    0.525688   -0.721602
     12          6           0       -2.494255    1.549292    0.305797
     13          6           0       -2.641995    2.393829    1.155108
     14          1           0        3.660235    0.019720    1.829418
     15          1           0        2.422567   -1.150435    2.319170
     16          1           0        1.948455    0.509342    1.900333
     17          1           0        4.000389    0.497724   -0.494969
     18          1           0        2.949975   -0.258123   -1.697737
     19          1           0        2.300770    2.136727    0.101865
     20          1           0        2.250552    2.052299   -1.645150
     21          1           0       -0.111726    1.884826   -0.838275
     22          1           0        1.253244   -1.932138   -0.932194
     23          1           0        0.821624   -1.874680    0.762723
     24          1           0       -2.934698   -2.902210    0.269765
     25          1           0       -2.003715    0.999403   -1.664963
     26          1           0       -3.244371    0.002912   -0.904913
     27          1           0       -2.776514    3.133121    1.911084
 ---------------------------------------------------------------------

 SCF Done:  E(UB3LYP) =  -574.266123136     A.U. after   33 cycles
 SCF Done:  E(UB3LYP) =  -574.266123136     a.u. after    1 cycles

 The electronic state is 2-A.
 Alpha  occ. eigenvalues --  -19.03986 -14.21429 -14.18511 -10.07980 -10.07698
 Alpha  occ. eigenvalues --  -10.07467 -10.07297 -10.06797 -10.06796 -10.05042
 Alpha  occ. eigenvalues --  -10.04927 -10.04296 -10.03323  -0.95883  -0.81192
 Alpha  occ. eigenvalues --   -0.75051  -0.67148  -0.66602  -0.63009  -0.60020
 Alpha  occ. eigenvalues --   -0.58317  -0.52302  -0.49440  -0.44822  -0.42819
 Alpha  occ. eigenvalues --   -0.39146  -0.38603  -0.37520  -0.35810  -0.35203
 Alpha  occ. eigenvalues --   -0.34574  -0.32806  -0.31120  -0.29594  -0.29108
 Alpha  occ. eigenvalues --   -0.28347  -0.27648  -0.26267  -0.25638  -0.23951
 Alpha  occ. eigenvalues --   -0.23165  -0.21750  -0.17881  -0.17011  -0.15946
 Alpha  occ. eigenvalues --   -0.14334  -0.10500  -0.09505   0.05099
 Alpha virt. eigenvalues --    0.07402   0.07728   0.08041   0.08817   0.09833
 Alpha virt. eigenvalues --    0.09878   0.10579   0.11705   0.12044   0.12367
 Alpha virt. eigenvalues --    0.12990   0.13380   0.13758   0.14445   0.15165

  Beta  occ. eigenvalues --  -19.03918 -14.21046 -14.18512 -10.07974 -10.07614
  Beta  occ. eigenvalues --  -10.07448 -10.07280 -10.06796 -10.06786 -10.05032
  Beta  occ. eigenvalues --  -10.04927 -10.04253 -10.03132  -0.95597  -0.81177
  Beta  occ. eigenvalues --   -0.74715  -0.66950  -0.66459  -0.62895  -0.59939
  Beta  occ. eigenvalues --   -0.58237  -0.52181  -0.49227  -0.44654  -0.42756
  Beta  occ. eigenvalues --   -0.39012  -0.38400  -0.37391  -0.35717  -0.35003
  Beta  occ. eigenvalues --   -0.34508  -0.32697  -0.31028  -0.29497  -0.28993
  Beta  occ. eigenvalues --   -0.27854  -0.27257  -0.26196  -0.25509  -0.23887
  Beta  occ. eigenvalues --   -0.23090  -0.21629  -0.17669  -0.16710  -0.15593
  Beta  occ. eigenvalues --   -0.14004  -0.09526  -0.09268
  Beta virt. eigenvalues --    0.07381   0.08016   0.08221   0.08974   0.09892
  Beta virt. eigenvalues --    0.10076   0.10363   0.10892   0.11905   0.12175
  Beta virt. eigenvalues --    0.12513   0.13071   0.13453   0.13895   0.14485

 Mulliken charges and spin densities:
               1          2
     1  C    0.174649  -0.537558
     2  N    0.081764   0.075171
     3  C   -0.180255  -0.281100
     4  C    0.094841  -0.632341
     5  C    0.099749  -1.461575
     6  C    0.768086   1.064027
     7  C   -0.066482  -0.543088
     8  C   -1.663662   0.973707
     9  N   -0.387528   0.134773
    10  O   -0.021988   0.039667
    11  C    0.519840  -0.192804
    12  C    2.132197  -1.195099
    13  C   -2.189493   0.887528
    14  H   -0.141769   0.283275
    15  H    0.061026   0.055959
    16  H    0.119256   0.012057
    17  H   -0.144491   0.305272
    18  H    0.029253   0.112264
    19  H   -0.059175   0.214866
    20  H   -0.330392   0.472876
    21  H    0.296472  -0.182112
    22  H   -0.120329   0.311154
    23  H    0.234779  -0.040018
    24  H    0.118344   0.147967
    25  H   -0.416976   0.607630
    26  H    0.157241   0.066082
    27  H   -0.164958   0.301419
 Sum of Mulliken charges =  -1.00000   1.00000

 Dipole moment (field-independent basis, Debye):
    X=             -0.4485    Y=             -1.0195    Z=              1.8691  Tot=              2.1758
 Quadrupole moment (field-independent basis, Debye-Ang):
   XX=           -130.5751   YY=           -107.6089   ZZ=           -102.0231
   XY=              0.6195   XZ=             -1.3260   YZ=              1.9059

 Summary of Natural Population Analysis:

                                       Natural Population
                Natural  -----------------------------------------------
    Atom  No    Charge         Core      Valence    Rydberg      Total
 -----------------------------------------------------------------------
      C    1   -0.17740      0.99964     2.17061    0.00715     3.17740
      N    2   -0.28010      0.99975     2.76622    0.01414     3.78010
      C    3   -0.08176      0.99962     2.07003    0.01211     3.08176
      C    4   -0.21893      0.99962     2.20999    0.00931     3.21893
      C    5   -0.04861      0.99948     2.03962    0.00951     3.04861
      C    6   -0.04169      0.99943     2.03134    0.01092     3.04169
      C    7   -0.09324      0.99958     2.08142    0.01225     3.09324
      C    8    0.11020      0.99954     1.87163    0.01863     2.88980
      N    9   -0.04008      0.99959     2.52624    0.01425     3.54008
      O   10   -0.29070      0.99989     3.28426    0.00654     4.29070
      C   11   -0.26051      0.99953     2.25106    0.00992     3.26051
      C   12    0.02015      0.99935     1.97277    0.00772     2.97985
      C   13   -0.14194      0.99925     2.13901    0.00368     3.14194
      H   14    0.09151      0.00000     0.40734    0.00116     0.40849
      H   15    0.09122      0.00000     0.40765    0.00113     0.40878
      H   16    0.08427      0.00000     0.41408    0.00165     0.41573
      H   17    0.09220      0.00000     0.40673    0.00108     0.40780
      H   18    0.09314      0.00000     0.40550    0.00136     0.40686
      H   19    0.10063      0.00000     0.39778    0.00160     0.39937
      H   20    0.10123      0.00000     0.39755    0.00121     0.39877
      H   21    0.09665      0.00000     0.40194    0.00141     0.40335
      H   22    0.09924      0.00000     0.39922    0.00154     0.40076
      H   23    0.10497      0.00000     0.39326    0.00177     0.39503
      H   24    0.23060      0.00000     0.26577    0.00363     0.26940
      H   25    0.12339      0.00000     0.37392    0.00269     0.37661
      H   26    0.12815      0.00000     0.37009    0.00176     0.37185
      H   27    0.10741      0.00000     0.39152    0.00107     0.39259
 =======================================================================
   * Total *   -0.00000     12.99428    34.84654    0.15918    48.00000

 Normal termination of Gaussian 16 at Sun Dec 13 20:30:59 2020.
