 Gaussian 16, Revision A.03,

 -----------------------------------------------------------
 # opt freq B3LYP/6-31G(d) empiricaldispersion=gd3bj scf=xqc
 -----------------------------------------------------------

 -------------------------------
 CID_135733729_JID_7256_neutraal
 -------------------------------
 Symbolic Z-matrix:
 Charge =  0 Multiplicity = 1

 SCF Done:  E(RB3LYP) =  -850.077874148     A.U. after   15 cycles
 SCF Done:  E(RB3LYP) =  -850.091334889     A.U. after   14 cycles
 SCF Done:  E(RB3LYP) =  -850.092257396     A.U. after   14 cycles
 SCF Done:  E(RB3LYP) =  -850.095091210     A.U. after   14 cycles
 SCF Done:  E(RB3LYP) =  -850.096189976     A.U. after   13 cycles
 SCF Done:  E(RB3LYP) =  -850.098015489     A.U. after   14 cycles
 SCF Done:  E(RB3LYP) =  -850.099967207     A.U. after   14 cycles
 SCF Done:  E(RB3LYP) =  -850.101597012     A.U. after   14 cycles
 SCF Done:  E(RB3LYP) =  -850.102348316     A.U. after   14 cycles
 SCF Done:  E(RB3LYP) =  -850.102614091     A.U. after   13 cycles
 SCF Done:  E(RB3LYP) =  -850.102903183     A.U. after   11 cycles
 SCF Done:  E(RB3LYP) =  -850.102911208     A.U. after   10 cycles
 SCF Done:  E(RB3LYP) =  -850.102916588     A.U. after   10 cycles
 SCF Done:  E(RB3LYP) =  -850.102918152     A.U. after    9 cycles
 SCF Done:  E(RB3LYP) =  -850.102918635     A.U. after    8 cycles
 Optimization completed.
    -- Stationary point found.
 Normal termination of Gaussian 16 at Sun Dec 13 16:14:31 2020.

 --------------------------------------------------------------------
 #N Geom=AllCheck Guess=TCheck SCRF=Check GenChk RB3LYP/6-31G(d) Freq
 --------------------------------------------------------------------

 Structure from the checkpoint file:  "JID_7256.chk"
 -------------------------------
 CID_135733729_JID_7256_neutraal
 -------------------------------
 Charge =  0 Multiplicity = 1

 SCF Done:  E(RB3LYP) =  -850.102918635     A.U. after    1 cycles

  Exact polarizability: 154.162   2.962 139.841  -5.114  -0.747 101.253
 Approx polarizability: 219.557  -5.758 218.556 -12.086   7.541 172.640

                      1                      2                      3
                      A                      A                      A
 Frequencies --     27.8444                49.8515                52.5437
 Red. masses --      5.7583                 5.0784                 4.0836
 Frc consts  --      0.0026                 0.0074                 0.0066
 IR Inten    --      2.2817                 1.0532                 0.8778

                      4                      5                      6
                      A                      A                      A
 Frequencies --     57.8564                78.2799               123.2741
 Red. masses --      4.9626                 6.5426                 6.6220
 Frc consts  --      0.0098                 0.0236                 0.0593
 IR Inten    --      0.7704                 1.5215                 2.0630

                      7                      8                      9
                      A                      A                      A
 Frequencies --    129.9388               162.0520               185.5457
 Red. masses --      4.7027                 5.2900                 4.6870
 Frc consts  --      0.0468                 0.0818                 0.0951
 IR Inten    --      3.1195                 3.6240                 1.1530

                     10                     11                     12
                      A                      A                      A
 Frequencies --    217.8144               240.2092               278.8770
 Red. masses --      1.0856                 4.6891                 5.2810
 Frc consts  --      0.0303                 0.1594                 0.2420
 IR Inten    --      0.7330                10.0327                 3.7351

                     13                     14                     15
                      A                      A                      A
 Frequencies --    294.8221               372.7483               407.5008
 Red. masses --      4.8481                 2.1770                 2.8486
 Frc consts  --      0.2483                 0.1782                 0.2787
 IR Inten    --      7.5565                 1.2103                 0.2501

                     16                     17                     18
                      A                      A                      A
 Frequencies --    415.3403               454.0820               496.7431
 Red. masses --      3.1448                 2.0197                 4.9499
 Frc consts  --      0.3196                 0.2454                 0.7196
 IR Inten    --      3.2226                 5.8696                12.9949

                     19                     20                     21
                      A                      A                      A
 Frequencies --    512.0677               582.0509               622.5968
 Red. masses --      1.1858                 4.6650                 4.1022
 Frc consts  --      0.1832                 0.9312                 0.9369
 IR Inten    --     71.3035                 5.4088                 8.8380

                     22                     23                     24
                      A                      A                      A
 Frequencies --    631.3555               638.9625               664.4812
 Red. masses --      3.9982                 6.5322                 6.9554
 Frc consts  --      0.9390                 1.5713                 1.8094
 IR Inten    --     10.6026                 7.0977                 1.0909

                     25                     26                     27
                      A                      A                      A
 Frequencies --    726.4420               741.5619               750.4883
 Red. masses --      1.5704                 2.8607                 9.4578
 Frc consts  --      0.4883                 0.9269                 3.1385
 IR Inten    --      1.0568                 7.2299                20.1809

                     28                     29                     30
                      A                      A                      A
 Frequencies --    763.3240               787.4951               800.8222
 Red. masses --      3.1687                 3.2802                 2.5258
 Frc consts  --      1.0878                 1.1985                 0.9544
 IR Inten    --     57.8367                 0.7340                24.1769

                     31                     32                     33
                      A                      A                      A
 Frequencies --    846.4986               882.6197               895.7945
 Red. masses --      5.1140                 1.3127                 5.4621
 Frc consts  --      2.1591                 0.6025                 2.5824
 IR Inten    --     20.7349                 4.5793                31.2995

                     34                     35                     36
                      A                      A                      A
 Frequencies --    896.9934               947.6021               980.3927
 Red. masses --      4.8107                 2.0203                 6.4006
 Frc consts  --      2.2805                 1.0688                 3.6247
 IR Inten    --      3.5704                17.6684               114.0172

                     37                     38                     39
                      A                      A                      A
 Frequencies --    986.1062              1014.2860              1027.8734
 Red. masses --      3.2526                 2.7712                 1.8224
 Frc consts  --      1.8635                 1.6797                 1.1344
 IR Inten    --      5.3246                15.3719                23.3745

                     40                     41                     42
                      A                      A                      A
 Frequencies --   1056.8472              1059.0116              1083.2811
 Red. masses --      2.2856                 2.2138                 2.4206
 Frc consts  --      1.5041                 1.4628                 1.6736
 IR Inten    --      6.1890                43.8628                18.5765

                     43                     44                     45
                      A                      A                      A
 Frequencies --   1113.4119              1141.1091              1169.0414
 Red. masses --      1.7388                 2.4155                 2.2093
 Frc consts  --      1.2700                 1.8531                 1.7789
 IR Inten    --      5.9336                34.1913                45.0616

                     46                     47                     48
                      A                      A                      A
 Frequencies --   1177.7920              1205.5058              1224.7632
 Red. masses --      1.4628                 3.5869                 1.7849
 Frc consts  --      1.1955                 3.0712                 1.5775
 IR Inten    --      6.9809                35.6209                24.1170

                     49                     50                     51
                      A                      A                      A
 Frequencies --   1259.3365              1273.5128              1301.4260
 Red. masses --      1.6355                 1.6234                 2.3637
 Frc consts  --      1.5282                 1.5513                 2.3587
 IR Inten    --     40.8257                85.0930                 8.8009

                     52                     53                     54
                      A                      A                      A
 Frequencies --   1315.5384              1326.8481              1340.1522
 Red. masses --      1.5906                 1.5743                 4.9660
 Frc consts  --      1.6218                 1.6330                 5.2549
 IR Inten    --     20.1131               126.5397               486.2196

                     55                     56                     57
                      A                      A                      A
 Frequencies --   1357.4825              1387.2342              1398.5776
 Red. masses --      1.3291                 1.7673                 1.4757
 Frc consts  --      1.4431                 2.0038                 1.7007
 IR Inten    --     61.8757                39.2016                10.3771

                     58                     59                     60
                      A                      A                      A
 Frequencies --   1412.9986              1430.4636              1438.6978
 Red. masses --      1.6462                 2.0007                 1.9346
 Frc consts  --      1.9365                 2.4120                 2.3593
 IR Inten    --     33.2055                60.7903                59.1886

                     61                     62                     63
                      A                      A                      A
 Frequencies --   1485.8640              1518.3580              1519.5902
 Red. masses --      1.1821                 1.1289                 1.0541
 Frc consts  --      1.5377                 1.5334                 1.4341
 IR Inten    --     23.1669                 5.3892                 9.3360

                     64                     65                     66
                      A                      A                      A
 Frequencies --   1530.2652              1541.5569              1547.0465
 Red. masses --      1.1404                 1.0540                 1.1141
 Frc consts  --      1.5734                 1.4757                 1.5710
 IR Inten    --     15.8469                 4.4820                 5.7008

                     67                     68                     69
                      A                      A                      A
 Frequencies --   1553.2294              1580.6960              1605.9583
 Red. masses --      3.9658                 3.8326                 5.4580
 Frc consts  --      5.6370                 5.6420                 8.2938
 IR Inten    --     37.3255               319.6879               604.5084

                     70                     71                     72
                      A                      A                      A
 Frequencies --   1629.8663              1648.4025              3014.9379
 Red. masses --      4.3131                 5.5005                 1.0499
 Frc consts  --      6.7506                 8.8060                 5.6227
 IR Inten    --    178.0118                 8.4708                32.6790

                     73                     74                     75
                      A                      A                      A
 Frequencies --   3030.5516              3044.9872              3083.7138
 Red. masses --      1.0743                 1.0661                 1.0662
 Frc consts  --      5.8130                 5.8241                 5.9733
 IR Inten    --     38.4357                57.6283                25.6119

                     76                     77                     78
                      A                      A                      A
 Frequencies --   3102.9002              3107.0279              3141.4683
 Red. masses --      1.0859                 1.1004                 1.1043
 Frc consts  --      6.1597                 6.2589                 6.4212
 IR Inten    --     26.1054                28.3890                20.9471

                     79                     80                     81
                      A                      A                      A
 Frequencies --   3155.1560              3176.0953              3283.4820
 Red. masses --      1.1024                 1.0893                 1.0973
 Frc consts  --      6.4661                 6.4741                 6.9700
 IR Inten    --      9.8402                 1.5308                 0.7407

                     82                     83                     84
                      A                      A                      A
 Frequencies --   3291.9989              3310.6419              3623.9849
 Red. masses --      1.0906                 1.1074                 1.0771
 Frc consts  --      6.9639                 7.1514                 8.3349
 IR Inten    --      4.5577                 8.4283                62.5295

 - Thermochemistry -
 -------------------
 Temperature   298.150 Kelvin.  Pressure   1.00000 Atm.
 Atom     1 has atomic number  6 and mass  12.00000

 Molecular mass:   239.10184 amu.
 Principal axes and moments of inertia in atomic units:
                           1         2         3
     Eigenvalues --  3001.991144493.839636631.50787
           X            0.99877   0.04937  -0.00333
           Y           -0.04942   0.99866  -0.01557
           Z            0.00256   0.01572   0.99987
 This molecule is an asymmetric top.
 Rotational symmetry number  1.
 Warning -- assumption of classical behavior for rotation
           may cause significant error
 Rotational temperatures (Kelvin)      0.02885     0.01927     0.01306
 Rotational constants (GHZ):           0.60118     0.40160     0.27215
 Zero-point vibrational energy     632501.2 (Joules/Mol)
                                  151.17142 (Kcal/Mol)
 Warning -- explicit consideration of  20 degrees of freedom as
           vibrations may cause significant error
 Vibrational temperatures:     40.06    71.73    75.60    83.24   112.63
          (Kelvin)            177.36   186.95   233.16   266.96   313.39
                              345.61   401.24   424.18   536.30   586.30
                              597.58   653.32   714.70   736.75   837.44
                              895.78   908.38   919.32   956.04  1045.19
                             1066.94  1079.79  1098.25  1133.03  1152.20
                             1217.92  1269.89  1288.85  1290.57  1363.39
                             1410.57  1418.79  1459.33  1478.88  1520.57
                             1523.68  1558.60  1601.95  1641.80  1681.99
                             1694.58  1734.45  1762.16  1811.90  1832.30
                             1872.46  1892.77  1909.04  1928.18  1953.11
                             1995.92  2012.24  2032.99  2058.12  2069.97
                             2137.83  2184.58  2186.35  2201.71  2217.96
                             2225.85  2234.75  2274.27  2310.62  2345.01
                             2371.68  4337.82  4360.29  4381.06  4436.78
                             4464.38  4470.32  4519.87  4539.57  4569.69
                             4724.20  4736.45  4763.28  5214.11

 Zero-point correction=                           0.240907 (Hartree/Particle)
 Thermal correction to Energy=                    0.256052
 Thermal correction to Enthalpy=                  0.256996
 Thermal correction to Gibbs Free Energy=         0.196583
 Sum of electronic and zero-point Energies=           -849.862012
 Sum of electronic and thermal Energies=              -849.846867
 Sum of electronic and thermal Enthalpies=            -849.845922
 Sum of electronic and thermal Free Energies=         -849.906336

                     E (Thermal)             CV                S
                      KCal/Mol        Cal/Mol-Kelvin    Cal/Mol-Kelvin
 Total                  160.675             56.373            127.151
 Electronic               0.000              0.000              0.000
 Translational            0.889              2.981             42.316
 Rotational               0.889              2.981             32.859
 Vibrational            158.898             50.411             51.976
 Vibration     1          0.593              1.984              5.977
 Vibration     2          0.595              1.978              4.823
 Vibration     3          0.596              1.977              4.719
 Vibration     4          0.596              1.974              4.529
 Vibration     5          0.600              1.964              3.934
 Vibration     6          0.610              1.930              3.048
 Vibration     7          0.612              1.923              2.947
 Vibration     8          0.622              1.889              2.526
 Vibration     9          0.632              1.860              2.272
 Vibration    10          0.646              1.814              1.977
 Vibration    11          0.657              1.779              1.801
 Vibration    12          0.679              1.713              1.541
 Vibration    13          0.689              1.683              1.446
 Vibration    14          0.744              1.528              1.068
 Vibration    15          0.772              1.454              0.935
 Vibration    16          0.779              1.437              0.908
 Vibration    17          0.813              1.352              0.784
 Vibration    18          0.852              1.257              0.666
 Vibration    19          0.867              1.223              0.629
 Vibration    20          0.939              1.070              0.482

                           ! Non-Optimized Parameters !
 Normal termination of Gaussian 16 at Sun Dec 13 16:25:53 2020.

 ----------------------------------------------------------------------
 # B3LYP/6-311++G(d,p) empiricaldispersion=gd3bj scf=xqc pop=npa geom=c
 heck
 ----------------------------------------------------------------------

 ---------------------------------------
 CID_135733729_JID_7256_Energie_neutraal
 ---------------------------------------
 Structure from the checkpoint file:  "JID_7256.chk"
 Charge =  0 Multiplicity = 1

 SCF Done:  E(RB3LYP) =  -850.347754134     A.U. after   16 cycles
 Normal termination of Gaussian 16 at Sun Dec 13 16:31:11 2020.

 ----------------------------------------------------------------------
 # B3LYP/6-311++G(d,p) empiricaldispersion=gd3bj scf=xqc pop=npa geom=c
 heck
 ----------------------------------------------------------------------

 -------------------------------------
 CID_135733729_JID_7256_Energie_kation
 -------------------------------------
 Structure from the checkpoint file:  "JID_7256.chk"
 Charge =  1 Multiplicity = 2

 SCF Done:  E(UB3LYP) =  -850.043504671     A.U. after   28 cycles
 Normal termination of Gaussian 16 at Sun Dec 13 16:44:45 2020.
 Gaussian 16:  ES64L-G16RevA.03 25-Dec-2016

 ----------------------------------------------------------------------
 # B3LYP/6-311++G(d,p) empiricaldispersion=gd3bj scf=xqc pop=npa geom=c
 heck
 ----------------------------------------------------------------------

 ------------------------------------
 CID_135733729_JID_7256_Energie_anion
 ------------------------------------
 Structure from the checkpoint file:  "JID_7256.chk"
 Charge = -1 Multiplicity = 2

                         Standard orientation:
 ---------------------------------------------------------------------
 Center     Atomic      Atomic             Coordinates (Angstroms)
 Number     Number       Type             X           Y           Z
 ---------------------------------------------------------------------
      1          6           0       -2.336027   -2.253028    1.166210
      2          7           0       -2.079468   -2.083560   -0.266825
      3          6           0       -3.012710   -1.197477   -0.921124
      4          7           0       -2.669200    0.211030   -0.670342
      5          6           0       -1.503127    0.649837   -0.134826
      6          7           0       -1.518473    1.908724    0.305712
      7          7           0       -0.358872    2.628544    0.142769
      8          8           0        0.383626    2.387998   -0.828562
      9          8           0       -0.164764    3.538857    0.946300
     10          7           0       -0.503980   -0.259017   -0.001193
     11          6           0       -0.738370   -1.608636   -0.546866
     12          6           0        0.592812   -0.099673    0.970412
     13          6           0        1.933986   -0.412197    0.383896
     14          6           0        2.709732   -1.491452    0.694058
     15          8           0        3.866059   -1.475980   -0.023032
     16          6           0        3.821099   -0.358003   -0.813398
     17          6           0        2.667489    0.329317   -0.609619
     18          1           0       -1.609306   -2.964398    1.569875
     19          1           0       -3.335137   -2.676166    1.301672
     20          1           0       -2.270840   -1.320173    1.747073
     21          1           0       -2.990855   -1.385002   -2.002096
     22          1           0       -4.026076   -1.392387   -0.557584
     23          1           0       -3.345472    0.943364   -0.839410
     24          1           0        0.004094   -2.274860   -0.105864
     25          1           0       -0.587570   -1.597042   -1.631137
     26          1           0        0.558068    0.910582    1.374162
     27          1           0        0.399182   -0.781183    1.810534
     28          1           0        2.593344   -2.311785    1.387029
     29          1           0        4.681550   -0.203105   -1.445706
     30          1           0        2.350297    1.252988   -1.069493
 ---------------------------------------------------------------------

 SCF Done:  E(UB3LYP) =  -850.349410689     A.U. after   33 cycles
 SCF Done:  E(UB3LYP) =  -850.349410689     a.u. after    1 cycles

 The electronic state is 2-A.
 Alpha  occ. eigenvalues --  -19.10631 -18.98558 -18.98523 -14.39171 -14.24768
 Alpha  occ. eigenvalues --  -14.23866 -14.23011 -14.19416 -10.18024 -10.14333
 Alpha  occ. eigenvalues --  -10.14249 -10.13738 -10.13612 -10.12724 -10.10223
 Alpha  occ. eigenvalues --  -10.09379 -10.07974  -1.07476  -1.02956  -0.92420
 Alpha  occ. eigenvalues --   -0.89007  -0.84200  -0.82486  -0.77475  -0.72697
 Alpha  occ. eigenvalues --   -0.67106  -0.63886  -0.63568  -0.60685  -0.57082
 Alpha  occ. eigenvalues --   -0.51419  -0.50502  -0.48921  -0.46672  -0.44712
 Alpha  occ. eigenvalues --   -0.43710  -0.42130  -0.40651  -0.39234  -0.38649
 Alpha  occ. eigenvalues --   -0.37957  -0.37287  -0.36686  -0.36318  -0.36116
 Alpha  occ. eigenvalues --   -0.34384  -0.33654  -0.31761  -0.31039  -0.30630
 Alpha  occ. eigenvalues --   -0.29615  -0.28489  -0.27770  -0.26977  -0.20204
 Alpha  occ. eigenvalues --   -0.19458  -0.17035  -0.16389  -0.15985  -0.15217
 Alpha  occ. eigenvalues --   -0.14962  -0.13567  -0.11524   0.03783
 Alpha virt. eigenvalues --    0.05537   0.06512   0.07448   0.07696   0.08188
 Alpha virt. eigenvalues --    0.08775   0.09666   0.10566   0.10790   0.11466
 Alpha virt. eigenvalues --    0.12028   0.12482   0.12585   0.13257   0.13662

  Beta  occ. eigenvalues --  -19.10626 -18.98365 -18.98336 -14.38736 -14.24753
  Beta  occ. eigenvalues --  -14.23810 -14.23012 -14.19496 -10.17872 -10.14292
  Beta  occ. eigenvalues --  -10.14229 -10.13733 -10.13607 -10.12719 -10.10189
  Beta  occ. eigenvalues --  -10.09376 -10.07973  -1.06910  -1.02947  -0.92308
  Beta  occ. eigenvalues --   -0.88644  -0.84135  -0.82403  -0.77386  -0.72682
  Beta  occ. eigenvalues --   -0.67089  -0.63825  -0.63454  -0.60606  -0.56841
  Beta  occ. eigenvalues --   -0.51235  -0.50409  -0.48897  -0.46613  -0.44588
  Beta  occ. eigenvalues --   -0.43638  -0.41879  -0.40312  -0.38701  -0.38423
  Beta  occ. eigenvalues --   -0.37855  -0.36950  -0.36477  -0.36085  -0.35810
  Beta  occ. eigenvalues --   -0.34276  -0.33602  -0.31695  -0.30952  -0.30581
  Beta  occ. eigenvalues --   -0.29573  -0.28434  -0.27742  -0.26724  -0.20060
  Beta  occ. eigenvalues --   -0.19431  -0.16842  -0.15900  -0.15325  -0.15135
  Beta  occ. eigenvalues --   -0.14659  -0.13443  -0.11435
  Beta virt. eigenvalues --    0.06191   0.07205   0.07457   0.07730   0.08452
  Beta virt. eigenvalues --    0.08920   0.09375   0.09928   0.10916   0.11112
  Beta virt. eigenvalues --    0.11677   0.12117   0.12619   0.13075   0.13337

 Mulliken charges and spin densities:
               1          2
     1  C    0.453401  -0.798854
     2  N   -0.084544   0.227619
     3  C    1.215392  -1.498255
     4  N   -0.469544   0.279117
     5  C   -0.081065  -0.032233
     6  N   -0.073130  -0.009155
     7  N   -0.381070   0.121716
     8  O   -0.074378   0.056429
     9  O   -0.057315   0.084521
    10  N    0.188516   0.044810
    11  C   -0.257712  -0.363759
    12  C   -1.575569  -0.110568
    13  C    0.916683  -0.098044
    14  C   -0.188382  -0.026556
    15  O   -0.016462   0.000871
    16  C   -0.439251  -0.110625
    17  C    0.364135   0.126108
    18  H   -0.242663   0.391575
    19  H   -0.296579   0.443226
    20  H    0.072231   0.099240
    21  H   -0.452223   0.661351
    22  H   -0.422232   0.608511
    23  H    0.022716   0.315759
    24  H    0.042535   0.186286
    25  H   -0.019263   0.228013
    26  H    0.246280  -0.010338
    27  H    0.214381  -0.036316
    28  H   -0.030144   0.202109
    29  H    0.164046  -0.000710
    30  H    0.261210   0.018153
 Sum of Mulliken charges =  -1.00000   1.00000

 Dipole moment (field-independent basis, Debye):
    X=              5.5842    Y=             -3.6836    Z=              0.6584  Tot=              6.7221
 Quadrupole moment (field-independent basis, Debye-Ang):
   XX=           -147.9501   YY=           -163.6328   ZZ=           -122.7990
   XY=             -7.5597   XZ=             -3.1882   YZ=             -6.5427

 Summary of Natural Population Analysis:

                                       Natural Population
                Natural  -----------------------------------------------
    Atom  No    Charge         Core      Valence    Rydberg      Total
 -----------------------------------------------------------------------
      C    1   -0.18069      0.99963     2.17276    0.00830     3.18069
      N    2   -0.27525      0.99973     2.76045    0.01506     3.77525
      C    3    0.01831      0.99961     1.96836    0.01372     2.98169
      N    4   -0.30824      0.99966     2.79871    0.00987     3.80824
      C    5    0.35719      0.99957     1.62573    0.01751     2.64281
      N    6   -0.25817      0.99963     2.74683    0.01171     3.75817
      N    7    0.33756      0.99979     2.13556    0.02709     3.16244
      O    8   -0.24655      0.99990     3.23859    0.00807     4.24655
      O    9   -0.20408      0.99989     3.19686    0.00732     4.20408
      N   10   -0.25410      0.99961     2.74404    0.01044     3.75410
      C   11    0.01269      0.99960     1.97377    0.01394     2.98731
      C   12   -0.08939      0.99956     2.07833    0.01150     3.08939
      C   13   -0.06684      0.99951     2.05736    0.00998     3.06684
      C   14    0.05641      0.99944     1.92848    0.01567     2.94359
      O   15   -0.23575      0.99987     3.22842    0.00746     4.23575
      C   16    0.05519      0.99953     1.93249    0.01279     2.94481
      C   17   -0.13756      0.99952     2.12988    0.00816     3.13756
      H   18    0.09652      0.00000     0.40216    0.00131     0.40348
      H   19    0.10000      0.00000     0.39875    0.00125     0.40000
      H   20    0.08677      0.00000     0.41163    0.00160     0.41323
      H   21    0.09486      0.00000     0.40234    0.00280     0.40514
      H   22    0.09824      0.00000     0.39997    0.00179     0.40176
      H   23    0.20421      0.00000     0.29334    0.00245     0.29579
      H   24    0.10166      0.00000     0.39689    0.00145     0.39834
      H   25    0.10171      0.00000     0.39707    0.00122     0.39829
      H   26    0.12051      0.00000     0.37819    0.00130     0.37949
      H   27    0.09463      0.00000     0.40429    0.00107     0.40537
      H   28    0.09582      0.00000     0.40294    0.00124     0.40418
      H   29    0.09276      0.00000     0.40639    0.00086     0.40724
      H   30    0.13158      0.00000     0.36734    0.00108     0.36842
 =======================================================================
   * Total *    0.00000     16.99405    45.77792    0.22803    63.00000

 Normal termination of Gaussian 16 at Sun Dec 13 17:01:15 2020.
