 Gaussian 16, Revision A.03,

 -----------------------------------------------------------
 # opt freq B3LYP/6-31G(d) empiricaldispersion=gd3bj scf=xqc
 -----------------------------------------------------------

 -----------------------------
 CID_91447503_JID_911_neutraal
 -----------------------------
 Symbolic Z-matrix:
 Charge =  0 Multiplicity = 1

 SCF Done:  E(RB3LYP) =  -426.579792393     A.U. after   13 cycles
 SCF Done:  E(RB3LYP) =  -426.584207763     A.U. after   11 cycles
 SCF Done:  E(RB3LYP) =  -426.584707395     A.U. after   11 cycles
 SCF Done:  E(RB3LYP) =  -426.584888283     A.U. after   10 cycles
 SCF Done:  E(RB3LYP) =  -426.584943754     A.U. after   10 cycles
 SCF Done:  E(RB3LYP) =  -426.585028171     A.U. after   10 cycles
 SCF Done:  E(RB3LYP) =  -426.585350998     A.U. after   13 cycles
 SCF Done:  E(RB3LYP) =  -426.585784168     A.U. after   11 cycles
 SCF Done:  E(RB3LYP) =  -426.587079954     A.U. after   12 cycles
 SCF Done:  E(RB3LYP) =  -426.588205051     A.U. after   13 cycles
 SCF Done:  E(RB3LYP) =  -426.588440600     A.U. after    9 cycles
 SCF Done:  E(RB3LYP) =  -426.588441481     A.U. after    9 cycles
 SCF Done:  E(RB3LYP) =  -426.588441854     A.U. after    8 cycles
 SCF Done:  E(RB3LYP) =  -426.588441860     A.U. after    7 cycles
 SCF Done:  E(RB3LYP) =  -426.588441901     A.U. after    7 cycles
 Optimization completed.
    -- Stationary point found.

 1\1\GINC-NODE304\FOpt\RB3LYP\6-31G(d)\C9H14O1\VSC10255\08-Dec-2020\0\\
 # opt freq B3LYP/6-31G(d) empiricaldispersion=gd3bj scf=xqc\\CID_91447
 503_JID_911_neutraal\\0,1\C,0.9901772844,0.3874418516,0.4915969056\C,0
 .2088141956,0.8579243518,-0.4844835608\C,-1.2635157652,0.9102791426,-0
 .4292543036\C,-2.0084825551,2.0891068719,-1.0675289226\C,-2.0765669852
 ,0.741948735,-1.707025609\C,-3.4541518295,0.0999050709,-1.6706122938\C
 ,-4.4877679961,1.0858292015,-2.2467725356\C,-4.45968933,2.4683029609,-
 1.5281801994\C,-3.3216794949,2.5918996781,-0.4902182734\O,-1.386867489

 Normal termination of Gaussian 16 at Tue Dec  8 13:42:16 2020.

 --------------------------------------------------------------------
 #N Geom=AllCheck Guess=TCheck SCRF=Check GenChk RB3LYP/6-31G(d) Freq
 --------------------------------------------------------------------

 Structure from the checkpoint file:  "JID_911.chk"
 -----------------------------
 CID_91447503_JID_911_neutraal
 -----------------------------
 Charge =  0 Multiplicity = 1

 SCF Done:  E(RB3LYP) =  -426.588441901     A.U. after    1 cycles

  Exact polarizability: 124.927  -1.805  80.489  -5.145   2.856  78.593
 Approx polarizability: 156.399  -4.183 114.818 -12.426   8.394 122.730

                      1                      2                      3
                      A                      A                      A
 Frequencies --     76.7604                88.5670               124.1735
 Red. masses --      2.1207                 2.2728                 3.0278
 Frc consts  --      0.0074                 0.0105                 0.0275
 IR Inten    --      0.1053                 0.8668                 0.0403

                      4                      5                      6
                      A                      A                      A
 Frequencies --    195.2468               212.3446               265.6182
 Red. masses --      2.8000                 2.1206                 2.1570
 Frc consts  --      0.0629                 0.0563                 0.0897
 IR Inten    --      4.1958                 1.6446                 3.5835

                      7                      8                      9
                      A                      A                      A
 Frequencies --    342.5190               370.8737               376.7040
 Red. masses --      1.4127                 2.3744                 2.6121
 Frc consts  --      0.0977                 0.1924                 0.2184
 IR Inten    --     79.6606                36.3536                 4.5976

                     10                     11                     12
                      A                      A                      A
 Frequencies --    414.6382               443.4903               480.8937
 Red. masses --      3.3638                 2.4708                 3.7132
 Frc consts  --      0.3407                 0.2863                 0.5059
 IR Inten    --     14.3304                 3.0412                 1.4659

                     13                     14                     15
                      A                      A                      A
 Frequencies --    557.0626               579.7365               695.1222
 Red. masses --      2.5069                 2.0697                 2.0895
 Frc consts  --      0.4584                 0.4098                 0.5949
 IR Inten    --      7.9464                 2.0877                 2.2992

                     16                     17                     18
                      A                      A                      A
 Frequencies --    751.2073               779.9230               833.6461
 Red. masses --      2.4356                 1.5444                 2.4226
 Frc consts  --      0.8098                 0.5535                 0.9920
 IR Inten    --     11.1964                 3.5745                 2.3076

                     19                     20                     21
                      A                      A                      A
 Frequencies --    874.5519               909.3937               913.2130
 Red. masses --      2.7104                 2.0694                 1.4006
 Frc consts  --      1.2214                 1.0083                 0.6882
 IR Inten    --     16.6757                 5.5654                34.1219

                     22                     23                     24
                      A                      A                      A
 Frequencies --    938.5970               951.5929               983.0035
 Red. masses --      2.0539                 2.3593                 1.6417
 Frc consts  --      1.0661                 1.2587                 0.9347
 IR Inten    --      5.5212                 1.5720                 1.0238

                     25                     26                     27
                      A                      A                      A
 Frequencies --   1009.6803              1025.3139              1031.8426
 Red. masses --      1.6688                 1.9050                 1.2044
 Frc consts  --      1.0024                 1.1799                 0.7555
 IR Inten    --     13.0631                17.8717                 6.1584

                     28                     29                     30
                      A                      A                      A
 Frequencies --   1056.5016              1066.6244              1093.5956
 Red. masses --      1.4575                 1.7966                 1.9436
 Frc consts  --      0.9585                 1.2043                 1.3696
 IR Inten    --      9.3788                11.3397                 0.6503

                     31                     32                     33
                      A                      A                      A
 Frequencies --   1115.4347              1167.1733              1194.6638
 Red. masses --      2.2881                 1.6221                 1.6905
 Frc consts  --      1.6773                 1.3020                 1.4215
 IR Inten    --     10.0612                 7.4252                 9.2933

                     34                     35                     36
                      A                      A                      A
 Frequencies --   1224.2119              1243.3611              1247.2466
 Red. masses --      1.3467                 1.4406                 1.7631
 Frc consts  --      1.1891                 1.3122                 1.6160
 IR Inten    --     29.8090                46.1096                14.5598

                     37                     38                     39
                      A                      A                      A
 Frequencies --   1292.3426              1296.5137              1316.5752
 Red. masses --      1.4574                 1.2006                 1.3479
 Frc consts  --      1.4341                 1.1891                 1.3766
 IR Inten    --     34.2771                 1.9917                11.4724

                     40                     41                     42
                      A                      A                      A
 Frequencies --   1341.8067              1362.6880              1378.6227
 Red. masses --      1.2628                 1.4101                 1.2411
 Frc consts  --      1.3395                 1.5428                 1.3898
 IR Inten    --      5.3567                11.8415                 1.2093

                     43                     44                     45
                      A                      A                      A
 Frequencies --   1383.6486              1389.6294              1399.9609
 Red. masses --      1.4987                 1.4978                 1.4995
 Frc consts  --      1.6905                 1.7042                 1.7315
 IR Inten    --      4.2557                 2.2504                 1.2939

                     46                     47                     48
                      A                      A                      A
 Frequencies --   1460.5605              1497.4707              1508.2155
 Red. masses --      1.8713                 1.6663                 1.0892
 Frc consts  --      2.3520                 2.2016                 1.4597
 IR Inten    --      2.7960                 3.6564                 0.9521

                     49                     50                     51
                      A                      A                      A
 Frequencies --   1518.0654              1530.5199              1541.8524
 Red. masses --      1.0839                 1.0883                 1.0962
 Frc consts  --      1.4717                 1.5020                 1.5354
 IR Inten    --      0.5584                 7.7949                 1.0454

                     52                     53                     54
                      A                      A                      A
 Frequencies --   1724.0839              3042.1969              3046.7834
 Red. masses --      4.4776                 1.0661                 1.0613
 Frc consts  --      7.8417                 5.8136                 5.8048
 IR Inten    --     33.1179                13.9666                25.1641

                     55                     56                     57
                      A                      A                      A
 Frequencies --   3050.3821              3062.9591              3076.2208
 Red. masses --      1.0613                 1.0628                 1.1011
 Frc consts  --      5.8183                 5.8746                 6.1390
 IR Inten    --     30.0036                53.0972                28.7903

                     58                     59                     60
                      A                      A                      A
 Frequencies --   3087.2460              3091.9573              3106.9298
 Red. masses --      1.1033                 1.1000                 1.1047
 Frc consts  --      6.1959                 6.1963                 6.2827
 IR Inten    --     27.0811                32.1409                65.8159

                     61                     62                     63
                      A                      A                      A
 Frequencies --   3138.1597              3157.1174              3168.0573
 Red. masses --      1.0881                 1.0591                 1.0899
 Frc consts  --      6.3133                 6.2195                 6.4451
 IR Inten    --     10.6393                12.0912                 3.2914

                     64                     65                     66
                      A                      A                      A
 Frequencies --   3172.7397              3238.7966              3710.2559
 Red. masses --      1.0898                 1.1154                 1.0660
 Frc consts  --      6.4633                 6.8935                 8.6459
 IR Inten    --     15.7580                21.7831                 9.1844

 - Thermochemistry -
 -------------------
 Temperature   298.150 Kelvin.  Pressure   1.00000 Atm.
 Atom     1 has atomic number  6 and mass  12.00000

 Molecular mass:   138.10447 amu.
 Principal axes and moments of inertia in atomic units:
                           1         2         3
     Eigenvalues --   698.097362011.158892330.24617
           X            1.00000   0.00191  -0.00031
           Y           -0.00192   0.99982  -0.01898
           Z            0.00027   0.01898   0.99982
 This molecule is an asymmetric top.
 Rotational symmetry number  1.
 Warning -- assumption of classical behavior for rotation
           may cause significant error
 Rotational temperatures (Kelvin)      0.12407     0.04307     0.03717
 Rotational constants (GHZ):           2.58523     0.89736     0.77449
 Zero-point vibrational energy     560611.3 (Joules/Mol)
                                  133.98931 (Kcal/Mol)
 Warning -- explicit consideration of  14 degrees of freedom as
           vibrations may cause significant error
 Vibrational temperatures:    110.44   127.43   178.66   280.92   305.52
          (Kelvin)            382.17   492.81   533.60   541.99   596.57
                              638.08   691.90   801.49   834.11  1000.13
                             1080.82  1122.14  1199.43  1258.29  1308.41
                             1313.91  1350.43  1369.13  1414.32  1452.70
                             1475.20  1484.59  1520.07  1534.63  1573.44
                             1604.86  1679.30  1718.85  1761.37  1788.92
                             1794.51  1859.39  1865.39  1894.26  1930.56
                             1960.60  1983.53  1990.76  1999.37  2014.23
                             2101.42  2154.53  2169.99  2184.16  2202.08
                             2218.38  2480.57  4377.04  4383.64  4388.82
                             4406.92  4426.00  4441.86  4448.64  4470.18
                             4515.11  4542.39  4558.13  4564.86  4659.91
                             5338.23

 Zero-point correction=                           0.213526 (Hartree/Particle)
 Thermal correction to Energy=                    0.223417
 Thermal correction to Enthalpy=                  0.224361
 Thermal correction to Gibbs Free Energy=         0.178619
 Sum of electronic and zero-point Energies=           -426.374916
 Sum of electronic and thermal Energies=              -426.365025
 Sum of electronic and thermal Enthalpies=            -426.364081
 Sum of electronic and thermal Free Energies=         -426.409823

                     E (Thermal)             CV                S
                      KCal/Mol        Cal/Mol-Kelvin    Cal/Mol-Kelvin
 Total                  140.196             38.629             96.271
 Electronic               0.000              0.000              0.000
 Translational            0.889              2.981             40.680
 Rotational               0.889              2.981             29.571
 Vibrational            138.419             32.667             26.020
 Vibration     1          0.599              1.965              3.972
 Vibration     2          0.601              1.957              3.691
 Vibration     3          0.610              1.929              3.034
 Vibration     4          0.636              1.846              2.177
 Vibration     5          0.643              1.822              2.023
 Vibration     6          0.671              1.736              1.625
 Vibration     7          0.722              1.590              1.200
 Vibration     8          0.743              1.532              1.076
 Vibration     9          0.747              1.520              1.052
 Vibration    10          0.778              1.438              0.910
 Vibration    11          0.803              1.375              0.816
 Vibration    12          0.837              1.292              0.708
 Vibration    13          0.913              1.124              0.530
 Vibration    14          0.936              1.075              0.486

 Optimization completed on the basis of negligible forces.
    -- Stationary point found.

 1\1\GINC-NODE304\Freq\RB3LYP\6-31G(d)\C9H14O1\VSC10255\08-Dec-2020\0\\
 #N Geom=AllCheck Guess=TCheck SCRF=Check GenChk RB3LYP/6-31G(d) Freq\\
 CID_91447503_JID_911_neutraal\\0,1\C,0.9901772844,0.3874418516,0.49159
 69056\C,0.2088141956,0.8579243518,-0.4844835608\C,-1.2635157652,0.9102
 791426,-0.4292543036\C,-2.0084825551,2.0891068719,-1.0675289226\C,-2.0
 765669852,0.741948735,-1.707025609\C,-3.4541518295,0.0999050709,-1.670
 6122938\C,-4.4877679961,1.0858292015,-2.2467725356\C,-4.45968933,2.468
 3029609,-1.5281801994\C,-3.3216794949,2.5918996781,-0.4902182734\O,-1.

 Normal termination of Gaussian 16 at Tue Dec  8 13:49:58 2020.

 ----------------------------------------------------------------------
 # B3LYP/6-311++G(d,p) empiricaldispersion=gd3bj scf=xqc pop=npa geom=c
 heck
 ----------------------------------------------------------------------

 -------------------------------------
 CID_91447503_JID_911_Energie_neutraal
 -------------------------------------
 Structure from the checkpoint file:  "JID_911.chk"
 Charge =  0 Multiplicity = 1

 SCF Done:  E(RB3LYP) =  -426.715298900     A.U. after   14 cycles
 Normal termination of Gaussian 16 at Tue Dec  8 13:51:38 2020.

 ----------------------------------------------------------------------
 # B3LYP/6-311++G(d,p) empiricaldispersion=gd3bj scf=xqc pop=npa geom=c
 heck
 ----------------------------------------------------------------------

 -----------------------------------
 CID_91447503_JID_911_Energie_kation
 -----------------------------------
 Structure from the checkpoint file:  "JID_911.chk"
 Charge =  1 Multiplicity = 2

 SCF Done:  E(UB3LYP) =  -426.410895952     A.U. after   20 cycles
 Normal termination of Gaussian 16 at Tue Dec  8 13:55:40 2020.
 Gaussian 16:  ES64L-G16RevA.03 25-Dec-2016

 ----------------------------------
 CID_91447503_JID_911_Energie_anion
 ----------------------------------
 Structure from the checkpoint file:  "JID_911.chk"
 Charge = -1 Multiplicity = 2

                         Standard orientation:
 ---------------------------------------------------------------------
 Center     Atomic      Atomic             Coordinates (Angstroms)
 Number     Number       Type             X           Y           Z
 ---------------------------------------------------------------------
      1          6           0        3.627802   -0.457505   -0.417110
      2          6           0        2.497922   -0.115111    0.207991
      3          6           0        1.142396   -0.333040   -0.329228
      4          6           0       -0.002680   -0.705949    0.620374
      5          6           0        0.028192    0.652348    0.001905
      6          6           0       -1.094283    0.915291   -0.989153
      7          6           0       -2.444815    0.595316   -0.321285
      8          6           0       -2.495669   -0.849113    0.261326
      9          6           0       -1.146153   -1.594770    0.158810
     10          8           0        0.310633    1.710114    0.887796
     11          1           0        3.619064   -0.939796   -1.392297
     12          1           0        4.601935   -0.272051    0.025799
     13          1           0        2.546630    0.368901    1.182163
     14          1           0        1.104595   -0.785323   -1.319808
     15          1           0        0.261763   -0.749774    1.674392
     16          1           0       -1.065106    1.961050   -1.318503
     17          1           0       -0.957659    0.299526   -1.886069
     18          1           0       -2.594306    1.320985    0.485527
     19          1           0       -3.260460    0.750467   -1.036418
     20          1           0       -2.790498   -0.802456    1.316053
     21          1           0       -3.267720   -1.439532   -0.245920
     22          1           0       -1.181619   -2.518867    0.745941
     23          1           0       -0.977022   -1.902082   -0.880920
     24          1           0        0.799063    2.383240    0.385914
 ---------------------------------------------------------------------

 SCF Done:  E(UB3LYP) =  -426.696779829     A.U. after   33 cycles
 SCF Done:  E(UB3LYP) =  -426.696779829     a.u. after    1 cycles

 The electronic state is 2-A.
 Alpha  occ. eigenvalues --  -19.01886 -10.11838 -10.07442 -10.07381 -10.06803
 Alpha  occ. eigenvalues --  -10.06245 -10.05881 -10.05657 -10.05630 -10.05316
 Alpha  occ. eigenvalues --   -0.92529  -0.76508  -0.68918  -0.65400  -0.63022
 Alpha  occ. eigenvalues --   -0.55035  -0.50642  -0.48985  -0.46203  -0.42426
 Alpha  occ. eigenvalues --   -0.40027  -0.38167  -0.36000  -0.33373  -0.32536
 Alpha  occ. eigenvalues --   -0.31201  -0.30515  -0.28381  -0.28084  -0.26685
 Alpha  occ. eigenvalues --   -0.24818  -0.24090  -0.22346  -0.22120  -0.20373
 Alpha  occ. eigenvalues --   -0.18321  -0.16137  -0.12865   0.05040
 Alpha virt. eigenvalues --    0.07169   0.07763   0.08132   0.09011   0.09742
 Alpha virt. eigenvalues --    0.10027   0.10379   0.10966   0.11515   0.11864
 Alpha virt. eigenvalues --    0.13106   0.13396   0.14391   0.14683   0.16525

  Beta  occ. eigenvalues --  -19.01845 -10.11837 -10.07436 -10.07371 -10.06793
  Beta  occ. eigenvalues --  -10.06223 -10.05865 -10.05638 -10.05595 -10.05297
  Beta  occ. eigenvalues --   -0.92445  -0.76477  -0.68885  -0.65373  -0.62973
  Beta  occ. eigenvalues --   -0.54982  -0.50581  -0.48937  -0.46147  -0.42347
  Beta  occ. eigenvalues --   -0.39987  -0.38109  -0.35961  -0.33328  -0.32491
  Beta  occ. eigenvalues --   -0.31166  -0.30482  -0.28335  -0.28040  -0.26645
  Beta  occ. eigenvalues --   -0.24779  -0.24055  -0.22302  -0.22079  -0.20337
  Beta  occ. eigenvalues --   -0.18284  -0.16088  -0.12842
  Beta virt. eigenvalues --    0.07378   0.07894   0.08724   0.08835   0.09719
  Beta virt. eigenvalues --    0.09801   0.10382   0.10925   0.11535   0.11995
  Beta virt. eigenvalues --    0.12331   0.13541   0.14007   0.14822   0.14971

 Mulliken charges and spin densities:
               1          2
     1  C    0.553993  -1.092540
     2  C    0.260568  -0.431728
     3  C    0.663837  -0.524235
     4  C    0.497415  -0.529685
     5  C   -0.081548  -0.232204
     6  C    0.211539  -0.333946
     7  C   -0.627754   0.383813
     8  C    0.979761  -1.458094
     9  C   -0.464045   0.085760
    10  O   -0.233200   0.022009
    11  H   -0.157009   0.258946
    12  H   -0.040802   0.158862
    13  H   -0.136098   0.336250
    14  H   -0.307017   0.529755
    15  H   -0.062926   0.280510
    16  H   -0.438162   0.610295
    17  H   -0.360081   0.510105
    18  H    0.021195   0.139247
    19  H   -0.451042   0.619216
    20  H   -0.000982   0.124072
    21  H   -0.335254   0.488828
    22  H   -0.061070   0.216143
    23  H   -0.148999   0.295600
    24  H   -0.282318   0.543023
 Sum of Mulliken charges =  -1.00000   1.00000

 Dipole moment (field-independent basis, Debye):
    X=              1.5314    Y=             -1.8318    Z=              2.7985  Tot=              3.6786
 Quadrupole moment (field-independent basis, Debye-Ang):
   XX=           -116.0192   YY=           -104.3033   ZZ=            -95.9824
   XY=             -3.2407   XZ=             -5.1859   YZ=              0.1633

 Summary of Natural Population Analysis:

                                       Natural Population
                Natural  -----------------------------------------------
    Atom  No    Charge         Core      Valence    Rydberg      Total
 -----------------------------------------------------------------------
      C    1   -0.20060      0.99957     2.19449    0.00654     3.20060
      C    2   -0.07963      0.99954     2.06930    0.01079     3.07963
      C    3   -0.13261      0.99951     2.12015    0.01296     3.13261
      C    4   -0.10545      0.99952     2.09582    0.01011     3.10545
      C    5    0.13602      0.99939     1.84763    0.01697     2.86398
      C    6   -0.20014      0.99958     2.19079    0.00977     3.20014
      C    7   -0.18964      0.99963     2.18176    0.00825     3.18964
      C    8   -0.18695      0.99964     2.17941    0.00790     3.18695
      C    9   -0.19283      0.99962     2.18450    0.00871     3.19283
      O   10   -0.36826      0.99988     3.36169    0.00669     4.36826
      H   11    0.08951      0.00000     0.40915    0.00134     0.41049
      H   12    0.09108      0.00000     0.40785    0.00106     0.40892
      H   13    0.09936      0.00000     0.39913    0.00151     0.40064
      H   14    0.10437      0.00000     0.39312    0.00251     0.39563
      H   15    0.10680      0.00000     0.39194    0.00126     0.39320
      H   16    0.10760      0.00000     0.39000    0.00240     0.39240
      H   17    0.10120      0.00000     0.39631    0.00250     0.39880
      H   18    0.09716      0.00000     0.40137    0.00148     0.40284
      H   19    0.09924      0.00000     0.39927    0.00149     0.40076
      H   20    0.09288      0.00000     0.40596    0.00116     0.40712
      H   21    0.09838      0.00000     0.40011    0.00151     0.40162
      H   22    0.10151      0.00000     0.39748    0.00101     0.39849
      H   23    0.09805      0.00000     0.40009    0.00186     0.40195
      H   24    0.23297      0.00000     0.26100    0.00603     0.26703
 =======================================================================
   * Total *    0.00000      9.99588    27.87831    0.12581    38.00000

 Normal termination of Gaussian 16 at Tue Dec  8 14:02:26 2020.
