 Gaussian 16, Revision A.03,

 -----------------------------------------------------------
 # opt freq B3LYP/6-31G(d) empiricaldispersion=gd3bj scf=xqc
 -----------------------------------------------------------

 -------------------------------
 CID_141738307_JID_9289_neutraal
 -------------------------------
 Symbolic Z-matrix:
 Charge =  0 Multiplicity = 1

 SCF Done:  E(RB3LYP) =  -1111.09577329     A.U. after   16 cycles
 SCF Done:  E(RB3LYP) =  -1111.10007702     A.U. after   12 cycles
 SCF Done:  E(RB3LYP) =  -1111.10062813     A.U. after   12 cycles
 SCF Done:  E(RB3LYP) =  -1111.10072565     A.U. after   11 cycles
 SCF Done:  E(RB3LYP) =  -1111.10074921     A.U. after   11 cycles
 SCF Done:  E(RB3LYP) =  -1111.10075760     A.U. after   10 cycles
 SCF Done:  E(RB3LYP) =  -1111.10076720     A.U. after   10 cycles
 SCF Done:  E(RB3LYP) =  -1111.10077175     A.U. after   10 cycles
 SCF Done:  E(RB3LYP) =  -1111.10077495     A.U. after   10 cycles
 SCF Done:  E(RB3LYP) =  -1111.10077571     A.U. after    9 cycles
 SCF Done:  E(RB3LYP) =  -1111.10077578     A.U. after    7 cycles
 Optimization completed.
    -- Stationary point found.
 Normal termination of Gaussian 16 at Sun Dec 13 12:32:44 2020.

 --------------------------------------------------------------------
 #N Geom=AllCheck Guess=TCheck SCRF=Check GenChk RB3LYP/6-31G(d) Freq
 --------------------------------------------------------------------

 Structure from the checkpoint file:  "JID_9289.chk"
 -------------------------------
 CID_141738307_JID_9289_neutraal
 -------------------------------
 Charge =  0 Multiplicity = 1

 SCF Done:  E(RB3LYP) =  -1111.10077578     A.U. after    1 cycles

  Exact polarizability: 335.830  21.024 202.264 -16.898  22.304 101.476
 Approx polarizability: 481.887  25.034 355.152 -35.097  57.879 166.091

                      1                      2                      3
                      A                      A                      A
 Frequencies --     12.3665                20.2889                45.1099
 Red. masses --      4.5076                 4.6329                 3.2953
 Frc consts  --      0.0004                 0.0011                 0.0040
 IR Inten    --      0.0840                 0.0024                 0.1035

                      4                      5                      6
                      A                      A                      A
 Frequencies --     63.9141                90.5847               107.6213
 Red. masses --      5.2865                 4.6934                 2.3066
 Frc consts  --      0.0127                 0.0227                 0.0157
 IR Inten    --      0.9024                 0.4653                 0.0177

                      7                      8                      9
                      A                      A                      A
 Frequencies --    159.9301               173.9279               195.7350
 Red. masses --      2.2805                 4.1125                 5.7830
 Frc consts  --      0.0344                 0.0733                 0.1305
 IR Inten    --      0.2842                 0.1619                 0.9597

                     10                     11                     12
                      A                      A                      A
 Frequencies --    205.3980               248.7933               271.3541
 Red. masses --      1.9310                 3.6059                 2.1631
 Frc consts  --      0.0480                 0.1315                 0.0938
 IR Inten    --      0.3103                 0.3200                 0.2046

                     13                     14                     15
                      A                      A                      A
 Frequencies --    291.9991               312.3556               358.7465
 Red. masses --      4.2691                 5.5368                 2.1284
 Frc consts  --      0.2145                 0.3183                 0.1614
 IR Inten    --      1.8634                 0.0400                 0.1682

                     16                     17                     18
                      A                      A                      A
 Frequencies --    383.7830               433.6455               436.2523
 Red. masses --      3.6561                 3.2654                 3.3198
 Frc consts  --      0.3173                 0.3618                 0.3722
 IR Inten    --      1.9822                 0.7219                 0.7835

                     19                     20                     21
                      A                      A                      A
 Frequencies --    442.0644               462.5014               510.9757
 Red. masses --      2.7664                 3.3234                 5.1989
 Frc consts  --      0.3185                 0.4189                 0.7998
 IR Inten    --      2.1595                 1.8065                 1.0931

                     22                     23                     24
                      A                      A                      A
 Frequencies --    513.6782               556.3949               578.4590
 Red. masses --      8.5133                 4.1257                 7.9756
 Frc consts  --      1.3235                 0.7525                 1.5724
 IR Inten    --      0.3191                 1.5654                 3.0648

                     25                     26                     27
                      A                      A                      A
 Frequencies --    601.8283               664.5191               683.9765
 Red. masses --      4.3244                 5.3621                 8.5325
 Frc consts  --      0.9228                 1.3951                 2.3518
 IR Inten    --      1.4119                 0.7492                 6.8075

                     28                     29                     30
                      A                      A                      A
 Frequencies --    689.9010               709.4665               721.8857
 Red. masses --      6.5364                 2.0082                 6.9148
 Frc consts  --      1.8330                 0.5956                 2.1231
 IR Inten    --     16.7688                18.0401                 2.2437

                     31                     32                     33
                      A                      A                      A
 Frequencies --    738.6867               752.3935               772.3624
 Red. masses --      2.5390                 1.3437                 1.6519
 Frc consts  --      0.8163                 0.4482                 0.5806
 IR Inten    --     14.1146                 9.7225                41.0231

                     34                     35                     36
                      A                      A                      A
 Frequencies --    807.8421               819.6393               827.5155
 Red. masses --      2.0408                 2.8056                 1.7636
 Frc consts  --      0.7847                 1.1105                 0.7116
 IR Inten    --     13.1030                 5.8129                 7.8432

                     37                     38                     39
                      A                      A                      A
 Frequencies --    868.3661               881.3740               899.0714
 Red. masses --      1.3688                 1.8866                 2.1739
 Frc consts  --      0.6081                 0.8635                 1.0354
 IR Inten    --      0.5482                 1.6181                 9.6069

                     40                     41                     42
                      A                      A                      A
 Frequencies --    924.7840               937.6569               942.1552
 Red. masses --      2.0084                 1.4311                 1.3529
 Frc consts  --      1.0120                 0.7413                 0.7075
 IR Inten    --     16.4378                 2.0571                 1.5684

                     43                     44                     45
                      A                      A                      A
 Frequencies --    955.8184               979.6916               982.7438
 Red. masses --      1.9467                 1.8354                 1.2569
 Frc consts  --      1.0479                 1.0379                 0.7152
 IR Inten    --      1.1153                 7.8549                 0.0040

                     46                     47                     48
                      A                      A                      A
 Frequencies --    990.2479              1014.0549              1022.4811
 Red. masses --      1.2992                 2.9285                 6.0177
 Frc consts  --      0.7506                 1.7743                 3.7068
 IR Inten    --      0.8906                28.2154                 0.2283

                     49                     50                     51
                      A                      A                      A
 Frequencies --   1049.4491              1076.6337              1089.9525
 Red. masses --      2.1053                 2.0220                 4.8356
 Frc consts  --      1.3661                 1.3809                 3.3846
 IR Inten    --      3.7670                 0.9295                 6.0549

                     52                     53                     54
                      A                      A                      A
 Frequencies --   1106.2648              1128.3883              1139.0794
 Red. masses --      1.5464                 1.7101                 1.6877
 Frc consts  --      1.1150                 1.2829                 1.2902
 IR Inten    --      2.6089                 1.7937                 4.6863

                     55                     56                     57
                      A                      A                      A
 Frequencies --   1155.1024              1195.0003              1203.9980
 Red. masses --      1.4462                 1.1648                 1.1805
 Frc consts  --      1.1369                 0.9800                 1.0082
 IR Inten    --      3.0017                 1.6314                 1.0766

                     58                     59                     60
                      A                      A                      A
 Frequencies --   1213.4791              1222.1077              1272.7504
 Red. masses --      1.5004                 1.4967                 2.2674
 Frc consts  --      1.3017                 1.3171                 2.1640
 IR Inten    --      4.8588                10.2361                21.9241

                     61                     62                     63
                      A                      A                      A
 Frequencies --   1276.2313              1292.7734              1329.5975
 Red. masses --      1.7166                 2.1520                 2.7348
 Frc consts  --      1.6473                 2.1190                 2.8485
 IR Inten    --      6.8459                14.9218                 2.7083

                     64                     65                     66
                      A                      A                      A
 Frequencies --   1333.4078              1351.8763              1367.0823
 Red. masses --      1.2252                 1.5490                 4.0664
 Frc consts  --      1.2835                 1.6680                 4.4776
 IR Inten    --      3.1734                 0.9957                 6.9485

                     67                     68                     69
                      A                      A                      A
 Frequencies --   1372.6919              1375.2616              1397.8921
 Red. masses --      2.9039                 1.7016                 1.3403
 Frc consts  --      3.2239                 1.8962                 1.5431
 IR Inten    --     12.1997                 3.8287                 7.6292

                     70                     71                     72
                      A                      A                      A
 Frequencies --   1411.4196              1443.2348              1474.4455
 Red. masses --      1.4686                 1.2613                 2.9457
 Frc consts  --      1.7237                 1.5480                 3.7731
 IR Inten    --      7.4284                 7.9018                33.5210

                     73                     74                     75
                      A                      A                      A
 Frequencies --   1484.0155              1506.8129              1510.5042
 Red. masses --      2.5241                 2.5433                 1.0869
 Frc consts  --      3.2751                 3.4022                 1.4611
 IR Inten    --      5.6847                 5.2053                 1.2304

                     76                     77                     78
                      A                      A                      A
 Frequencies --   1521.1766              1524.0977              1532.3349
 Red. masses --      1.0633                 1.1072                 1.1641
 Frc consts  --      1.4497                 1.5154                 1.6105
 IR Inten    --      1.3022                 4.2726                 6.2994

                     79                     80                     81
                      A                      A                      A
 Frequencies --   1538.5009              1540.4904              1572.6469
 Red. masses --      1.4797                 1.3193                 8.7732
 Frc consts  --      2.0635                 1.8447                12.7842
 IR Inten    --      7.2003                17.8081                56.0138

                     82                     83                     84
                      A                      A                      A
 Frequencies --   1616.6147              1640.3070              1656.2508
 Red. masses --      5.5221                 5.5673                 6.2239
 Frc consts  --      8.5029                 8.8256                10.0593
 IR Inten    --      3.2194                 2.0704                 9.2462

                     85                     86                     87
                      A                      A                      A
 Frequencies --   1668.4165              3029.5397              3042.8510
 Red. masses --      5.7524                 1.0610                 1.0617
 Frc consts  --      9.4342                 5.7373                 5.7917
 IR Inten    --      4.7365                27.4105                24.4913

                     88                     89                     90
                      A                      A                      A
 Frequencies --   3045.8478              3052.0615              3066.9463
 Red. masses --      1.0409                 1.0607                 1.1010
 Frc consts  --      5.6898                 5.8212                 6.1015
 IR Inten    --     24.3245                29.4815                27.5236

                     91                     92                     93
                      A                      A                      A
 Frequencies --   3078.4281              3093.6882              3111.3056
 Red. masses --      1.1006                 1.1014                 1.1011
 Frc consts  --      6.1454                 6.2110                 6.2803
 IR Inten    --     32.9855                40.7502                62.7484

                     94                     95                     96
                      A                      A                      A
 Frequencies --   3118.5027              3179.6453              3184.8291
 Red. masses --      1.1014                 1.0875                 1.0892
 Frc consts  --      6.3109                 6.4780                 6.5094
 IR Inten    --     53.6378                 8.7032                10.9030

                     97                     98                     99
                      A                      A                      A
 Frequencies --   3191.6532              3200.7853              3203.6934
 Red. masses --      1.0858                 1.0929                 1.0897
 Frc consts  --      6.5166                 6.5970                 6.5897
 IR Inten    --      1.4238                25.8426                10.1010

                    100                    101                    102
                      A                      A                      A
 Frequencies --   3214.3076              3222.6020              3234.4339
 Red. masses --      1.0946                 1.0957                 1.0928
 Frc consts  --      6.6630                 6.7043                 6.7356
 IR Inten    --     23.8541                17.1544                 3.8712

 - Thermochemistry -
 -------------------
 Temperature   298.150 Kelvin.  Pressure   1.00000 Atm.
 Atom     1 has atomic number  6 and mass  12.00000

 Molecular mass:   267.10817 amu.
 Principal axes and moments of inertia in atomic units:
                           1         2         3
     Eigenvalues --  2405.89650********************
           X            0.99993  -0.01212   0.00101
           Y            0.01212   0.99993  -0.00119
           Z           -0.00100   0.00120   1.00000
 This molecule is an asymmetric top.
 Rotational symmetry number  1.
 Warning -- assumption of classical behavior for rotation
           may cause significant error
 Rotational temperatures (Kelvin)      0.03600     0.00826     0.00702
 Rotational constants (GHZ):           0.75013     0.17217     0.14626
 Zero-point vibrational energy     783109.9 (Joules/Mol)
                                  187.16776 (Kcal/Mol)
 Warning -- explicit consideration of  25 degrees of freedom as
           vibrations may cause significant error
 Vibrational temperatures:     17.79    29.19    64.90    91.96   130.33
          (Kelvin)            154.84   230.10   250.24   281.62   295.52
                              357.96   390.42   420.12   449.41   516.16
                              552.18   623.92   627.67   636.03   665.44
                              735.18   739.07   800.53   832.27   865.90
                              956.09   984.09   992.61  1020.76  1038.63
                             1062.81  1082.53  1111.26  1162.30  1179.28
                             1190.61  1249.39  1268.10  1293.56  1330.56
                             1349.08  1355.55  1375.21  1409.56  1413.95
                             1424.75  1459.00  1471.12  1509.92  1549.04
                             1568.20  1591.67  1623.50  1638.88  1661.93
                             1719.34  1732.28  1745.93  1758.34  1831.20
                             1836.21  1860.01  1912.99  1918.48  1945.05
                             1966.93  1975.00  1978.69  2011.26  2030.72
                             2076.49  2121.40  2135.17  2167.97  2173.28
                             2188.63  2192.84  2204.69  2213.56  2216.42
                             2262.69  2325.95  2360.04  2382.98  2400.48
                             4358.83  4377.98  4382.30  4391.24  4412.65
                             4429.17  4451.13  4476.47  4486.83  4574.80
                             4582.26  4592.08  4605.22  4609.40  4624.67
                             4636.61  4653.63

 Zero-point correction=                           0.298271 (Hartree/Particle)
 Thermal correction to Energy=                    0.314897
 Thermal correction to Enthalpy=                  0.315841
 Thermal correction to Gibbs Free Energy=         0.251217
 Sum of electronic and zero-point Energies=          -1110.802505
 Sum of electronic and thermal Energies=             -1110.785879
 Sum of electronic and thermal Enthalpies=           -1110.784935
 Sum of electronic and thermal Free Energies=        -1110.849559

                     E (Thermal)             CV                S
                      KCal/Mol        Cal/Mol-Kelvin    Cal/Mol-Kelvin
 Total                  197.601             64.939            136.013
 Electronic               0.000              0.000              0.000
 Translational            0.889              2.981             42.647
 Rotational               0.889              2.981             34.097
 Vibrational            195.823             58.977             59.269
 Vibration     1          0.593              1.987              7.589
 Vibration     2          0.593              1.986              6.606
 Vibration     3          0.595              1.979              5.021
 Vibration     4          0.597              1.972              4.333
 Vibration     5          0.602              1.956              3.647
 Vibration     6          0.606              1.943              3.311
 Vibration     7          0.622              1.891              2.551
 Vibration     8          0.627              1.875              2.393
 Vibration     9          0.636              1.846              2.173
 Vibration    10          0.640              1.832              2.084
 Vibration    11          0.662              1.765              1.739
 Vibration    12          0.675              1.726              1.588
 Vibration    13          0.687              1.689              1.462
 Vibration    14          0.701              1.650              1.350
 Vibration    15          0.734              1.557              1.128
 Vibration    16          0.753              1.505              1.024
 Vibration    17          0.794              1.397              0.847
 Vibration    18          0.797              1.391              0.838
 Vibration    19          0.802              1.378              0.820
 Vibration    20          0.820              1.333              0.759
 Vibration    21          0.866              1.226              0.631
 Vibration    22          0.869              1.220              0.625
 Vibration    23          0.912              1.126              0.531
 Vibration    24          0.935              1.078              0.488
 Vibration    25          0.960              1.028              0.447

 Optimization completed.
    -- Stationary point found.
 Normal termination of Gaussian 16 at Sun Dec 13 12:49:02 2020.

 ----------------------------------------------------------------------
 # B3LYP/6-311++G(d,p) empiricaldispersion=gd3bj scf=xqc pop=npa geom=c
 heck
 ----------------------------------------------------------------------

 ---------------------------------------
 CID_141738307_JID_9289_Energie_neutraal
 ---------------------------------------
 Structure from the checkpoint file:  "JID_9289.chk"
 Charge =  0 Multiplicity = 1

 SCF Done:  E(RB3LYP) =  -1111.30420685     A.U. after   15 cycles
 Normal termination of Gaussian 16 at Sun Dec 13 12:56:57 2020.

 ----------------------------------------------------------------------
 # B3LYP/6-311++G(d,p) empiricaldispersion=gd3bj scf=xqc pop=npa geom=c
 heck
 ----------------------------------------------------------------------

 -------------------------------------
 CID_141738307_JID_9289_Energie_kation
 -------------------------------------
 Structure from the checkpoint file:  "JID_9289.chk"
 Charge =  1 Multiplicity = 2

 SCF Done:  E(UB3LYP) =  -1111.01987229     A.U. after   28 cycles
 Normal termination of Gaussian 16 at Sun Dec 13 13:17:35 2020.
 Gaussian 16:  ES64L-G16RevA.03 25-Dec-2016

 ----------------------------------------------------------------------
 # B3LYP/6-311++G(d,p) empiricaldispersion=gd3bj scf=xqc pop=npa geom=c
 heck
 ----------------------------------------------------------------------

 ------------------------------------
 CID_141738307_JID_9289_Energie_anion
 ------------------------------------
 Structure from the checkpoint file:  "JID_9289.chk"
 Charge = -1 Multiplicity = 2

                         Standard orientation:
 ---------------------------------------------------------------------
 Center     Atomic      Atomic             Coordinates (Angstroms)
 Number     Number       Type             X           Y           Z
 ---------------------------------------------------------------------
      1          6           0        3.470563   -2.874497    0.572461
      2          6           0        4.011008   -1.580958    1.189154
      3          6           0        4.835776   -0.722757    0.220407
      4          6           0        4.047252   -0.173358   -0.987960
      5          6           0        2.900963    0.722183   -0.578938
      6          6           0        1.588432    0.247534   -0.559407
      7          6           0        0.523985    1.053868   -0.131369
      8          6           0        0.783944    2.371275    0.278022
      9          6           0        2.087610    2.855574    0.257156
     10          6           0        3.137825    2.039520   -0.164755
     11          6           0       -0.854346    0.557498   -0.098103
     12          7           0       -1.880327    1.280629    0.236166
     13          6           0       -3.058282    0.559843    0.187974
     14          6           0       -4.329373    1.066991    0.491990
     15          6           0       -5.430247    0.224889    0.399676
     16          6           0       -5.281912   -1.116607    0.007969
     17          6           0       -4.028715   -1.640622   -0.298907
     18          6           0       -2.922729   -0.795193   -0.206062
     19         16           0       -1.235328   -1.142255   -0.516946
     20          1           0        2.758893   -2.675959   -0.236403
     21          1           0        2.949689   -3.479796    1.322262
     22          1           0        4.282748   -3.482963    0.155397
     23          1           0        3.177282   -0.985689    1.582170
     24          1           0        4.642246   -1.832018    2.051327
     25          1           0        5.264031    0.125342    0.770795
     26          1           0        5.683817   -1.311094   -0.156453
     27          1           0        4.739012    0.386489   -1.629565
     28          1           0        3.667730   -1.004793   -1.592442
     29          1           0        1.396527   -0.770343   -0.888564
     30          1           0       -0.044228    2.989817    0.604085
     31          1           0        2.287577    3.876456    0.570130
     32          1           0        4.153707    2.427243   -0.177461
     33          1           0       -4.427303    2.104948    0.792472
     34          1           0       -6.419688    0.606734    0.632901
     35          1           0       -6.156825   -1.756655   -0.057294
     36          1           0       -3.918213   -2.677146   -0.601227
 ---------------------------------------------------------------------

 SCF Done:  E(UB3LYP) =  -1111.32280947     A.U. after   23 cycles

 The electronic state is 2-A.
 Alpha  occ. eigenvalues --  -88.72956 -14.15174 -10.07710 -10.07261 -10.07133
 Alpha  occ. eigenvalues --  -10.07017 -10.06980 -10.06833 -10.06544 -10.05523
 Alpha  occ. eigenvalues --  -10.05273 -10.05062 -10.04655 -10.04281 -10.04187
 Alpha  occ. eigenvalues --  -10.03948 -10.03536 -10.03123 -10.02974  -7.81641
 Alpha  occ. eigenvalues --   -5.77940  -5.77606  -5.77194  -0.81708  -0.73350
 Alpha  occ. eigenvalues --   -0.72034  -0.69998  -0.66195  -0.65083  -0.62966
 Alpha  occ. eigenvalues --   -0.61134  -0.59921  -0.58469  -0.54542  -0.50718
 Alpha  occ. eigenvalues --   -0.48487  -0.47236  -0.46420  -0.45489  -0.41829
 Alpha  occ. eigenvalues --   -0.38100  -0.36793  -0.36382  -0.36030  -0.34900
 Alpha  occ. eigenvalues --   -0.34543  -0.32280  -0.32180  -0.30939  -0.30522
 Alpha  occ. eigenvalues --   -0.29560  -0.28887  -0.27837  -0.27495  -0.27121
 Alpha  occ. eigenvalues --   -0.26527  -0.24777  -0.24224  -0.23939  -0.23330
 Alpha  occ. eigenvalues --   -0.23264  -0.21773  -0.21004  -0.20832  -0.20164
 Alpha  occ. eigenvalues --   -0.17100  -0.14486  -0.13047  -0.12368  -0.10748
 Alpha  occ. eigenvalues --   -0.09198   0.03283
 Alpha virt. eigenvalues --    0.06715   0.08006   0.08326   0.08725   0.09266
 Alpha virt. eigenvalues --    0.09615   0.10426   0.10598   0.10754   0.11238
 Alpha virt. eigenvalues --    0.11642   0.11864   0.12368   0.12605   0.12766

  Beta  occ. eigenvalues --  -88.72927 -14.14935 -10.07328 -10.07213 -10.07136
  Beta  occ. eigenvalues --  -10.07025 -10.06978 -10.06831 -10.06539 -10.05509
  Beta  occ. eigenvalues --  -10.05334 -10.05134 -10.04500 -10.04246 -10.04140
  Beta  occ. eigenvalues --  -10.03858 -10.03379 -10.02828 -10.02814  -7.81614
  Beta  occ. eigenvalues --   -5.77930  -5.77598  -5.77087  -0.81253  -0.73126
  Beta  occ. eigenvalues --   -0.71829  -0.69910  -0.65956  -0.64953  -0.62595
  Beta  occ. eigenvalues --   -0.60908  -0.59748  -0.58250  -0.54437  -0.50115
  Beta  occ. eigenvalues --   -0.48414  -0.47114  -0.46233  -0.45344  -0.41639
  Beta  occ. eigenvalues --   -0.37989  -0.36750  -0.36315  -0.35856  -0.34758
  Beta  occ. eigenvalues --   -0.34296  -0.32205  -0.32100  -0.30865  -0.30463
  Beta  occ. eigenvalues --   -0.29509  -0.28024  -0.27763  -0.27405  -0.26968
  Beta  occ. eigenvalues --   -0.26399  -0.24392  -0.24109  -0.23885  -0.23251
  Beta  occ. eigenvalues --   -0.22759  -0.21645  -0.20751  -0.20147  -0.20045
  Beta  occ. eigenvalues --   -0.16433  -0.13251  -0.12750  -0.11614  -0.10094
  Beta  occ. eigenvalues --   -0.07918
  Beta virt. eigenvalues --    0.06662   0.07988   0.08288   0.08496   0.08675
  Beta virt. eigenvalues --    0.09229   0.09589   0.10550   0.10648   0.10797
  Beta virt. eigenvalues --    0.11236   0.11799   0.12042   0.12457   0.12731

 Mulliken charges and spin densities:
               1          2
     1  C   -0.553539  -0.021508
     2  C   -0.274671   0.035561
     3  C   -0.275367  -0.028060
     4  C   -0.126812   0.011819
     5  C    0.543083  -0.044036
     6  C   -0.537256   0.112236
     7  C    0.487037   0.012235
     8  C   -0.291801   0.165389
     9  C   -0.424381  -0.030873
    10  C   -0.523671   0.237093
    11  C   -0.275514   0.178395
    12  N    0.147275   0.115506
    13  C   -0.172094  -0.019995
    14  C   -0.477972   0.112819
    15  C   -0.322050  -0.046264
    16  C   -0.190309   0.129686
    17  C   -0.273043   0.000203
    18  C    1.248010   0.041797
    19  S   -0.803913   0.057497
    20  H    0.145421   0.009150
    21  H    0.115593   0.003450
    22  H    0.108516   0.003482
    23  H    0.150417  -0.001470
    24  H    0.127431   0.010659
    25  H    0.136911  -0.001208
    26  H    0.105845  -0.001881
    27  H    0.142322   0.012934
    28  H    0.141764  -0.001656
    29  H    0.022487  -0.013589
    30  H    0.169161  -0.008204
    31  H    0.131832   0.002286
    32  H    0.089113  -0.017658
    33  H    0.137240  -0.007651
    34  H    0.121748   0.003134
    35  H    0.110861  -0.009494
    36  H    0.140327  -0.001783
 Sum of Mulliken charges =  -1.00000   1.00000

 Dipole moment (field-independent basis, Debye):
    X=              3.8062    Y=             -2.8825    Z=              0.1678  Tot=              4.7775
 Quadrupole moment (field-independent basis, Debye-Ang):
   XX=           -171.7793   YY=           -138.2555   ZZ=           -134.0991
   XY=             -3.1785   XZ=              0.5621   YZ=              2.1256

 Summary of Natural Population Analysis:

                                       Natural Population
                Natural  -----------------------------------------------
    Atom  No    Charge         Core      Valence    Rydberg      Total
 -----------------------------------------------------------------------
      C    1   -0.28728      0.99967     2.28289    0.00472     3.28728
      C    2   -0.19458      0.99964     2.18812    0.00682     3.19458
      C    3   -0.18259      0.99963     2.17605    0.00691     3.18259
      C    4   -0.19350      0.99960     2.18542    0.00848     3.19350
      C    5   -0.04367      0.99951     2.03442    0.00973     3.04367
      C    6   -0.05998      0.99944     2.05272    0.00782     3.05998
      C    7   -0.03374      0.99937     2.02383    0.01054     3.03374
      C    8   -0.05410      0.99955     2.04570    0.00886     3.05410
      C    9   -0.12106      0.99958     2.11240    0.00909     3.12106
      C   10   -0.05211      0.99951     2.04351    0.00909     3.05211
      C   11    0.12834      0.99955     1.85596    0.01615     2.87166
      N   12   -0.22072      0.99962     2.70928    0.01182     3.72072
      C   13    0.05900      0.99944     1.92904    0.01251     2.94100
      C   14   -0.07620      0.99952     2.06755    0.00912     3.07620
      C   15   -0.12911      0.99958     2.12013    0.00940     3.12911
      C   16   -0.08748      0.99958     2.07807    0.00983     3.08748
      C   17   -0.11628      0.99951     2.10677    0.01000     3.11628
      C   18   -0.09364      0.99941     2.08435    0.00989     3.09364
      S   19    0.15174      4.99946     2.82963    0.01917     7.84826
      H   20    0.10009      0.00000     0.39896    0.00095     0.39991
      H   21    0.09722      0.00000     0.40191    0.00086     0.40278
      H   22    0.08888      0.00000     0.41011    0.00101     0.41112
      H   23    0.10623      0.00000     0.39258    0.00118     0.39377
      H   24    0.08862      0.00000     0.41015    0.00123     0.41138
      H   25    0.09607      0.00000     0.40275    0.00117     0.40393
      H   26    0.08648      0.00000     0.41223    0.00129     0.41352
      H   27    0.09666      0.00000     0.40213    0.00121     0.40334
      H   28    0.09565      0.00000     0.40321    0.00114     0.40435
      H   29    0.09361      0.00000     0.40526    0.00113     0.40639
      H   30    0.10556      0.00000     0.39319    0.00126     0.39444
      H   31    0.09095      0.00000     0.40792    0.00113     0.40905
      H   32    0.08568      0.00000     0.41284    0.00148     0.41432
      H   33    0.09798      0.00000     0.40051    0.00151     0.40202
      H   34    0.09209      0.00000     0.40686    0.00105     0.40791
      H   35    0.08986      0.00000     0.40910    0.00104     0.41014
      H   36    0.09534      0.00000     0.40304    0.00162     0.40466
 =======================================================================
   * Total *    0.00002     22.99118    47.79859    0.21021    70.99998

 Normal termination of Gaussian 16 at Sun Dec 13 13:34:44 2020.
