 Gaussian 16, Revision A.03,

 -----------------------------------------------------------
 # opt freq B3LYP/6-31G(d) empiricaldispersion=gd3bj scf=xqc
 -----------------------------------------------------------

 ------------------------------
 CID_66710166_JID_5631_neutraal
 ------------------------------
 Symbolic Z-matrix:
 Charge =  0 Multiplicity = 1

 SCF Done:  E(RB3LYP) =  -727.295157910     A.U. after   14 cycles
 SCF Done:  E(RB3LYP) =  -727.293484402     A.U. after   14 cycles
 SCF Done:  E(RB3LYP) =  -727.299329618     A.U. after   13 cycles
 SCF Done:  E(RB3LYP) =  -727.298783105     A.U. after   13 cycles
 SCF Done:  E(RB3LYP) =  -727.301563305     A.U. after   12 cycles
 SCF Done:  E(RB3LYP) =  -727.301659666     A.U. after   12 cycles
 SCF Done:  E(RB3LYP) =  -727.301941236     A.U. after   12 cycles
 SCF Done:  E(RB3LYP) =  -727.302170064     A.U. after   11 cycles
 SCF Done:  E(RB3LYP) =  -727.302218703     A.U. after   12 cycles
 SCF Done:  E(RB3LYP) =  -727.302233917     A.U. after   10 cycles
 SCF Done:  E(RB3LYP) =  -727.302237372     A.U. after    9 cycles
 SCF Done:  E(RB3LYP) =  -727.302237940     A.U. after    8 cycles
 SCF Done:  E(RB3LYP) =  -727.302238019     A.U. after    7 cycles
 Optimization completed.
    -- Stationary point found.
 Normal termination of Gaussian 16 at Thu Dec 10 15:46:51 2020.

 --------------------------------------------------------------------
 #N Geom=AllCheck Guess=TCheck SCRF=Check GenChk RB3LYP/6-31G(d) Freq
 --------------------------------------------------------------------

 Structure from the checkpoint file:  "JID_5631.chk"
 ------------------------------
 CID_66710166_JID_5631_neutraal
 ------------------------------
 Charge =  0 Multiplicity = 1

 SCF Done:  E(RB3LYP) =  -727.302238019     A.U. after    1 cycles

  Exact polarizability: 136.097  25.009 131.734  18.927  -0.130 102.280
 Approx polarizability: 180.247  45.683 202.660  39.308   3.417 179.687

                      1                      2                      3
                      A                      A                      A
 Frequencies --     27.1354                35.6835                38.9972
 Red. masses --      5.2573                 4.5435                 4.0426
 Frc consts  --      0.0023                 0.0034                 0.0036
 IR Inten    --      0.5773                 1.6715                 1.2288

                      4                      5                      6
                      A                      A                      A
 Frequencies --     76.6455               100.5260               128.7836
 Red. masses --      5.5191                 3.5477                 5.1789
 Frc consts  --      0.0191                 0.0211                 0.0506
 IR Inten    --      1.2331                 0.5167                 0.2905

                      7                      8                      9
                      A                      A                      A
 Frequencies --    155.2284               210.5173               228.3775
 Red. masses --      5.4230                 3.7014                 5.2206
 Frc consts  --      0.0770                 0.0966                 0.1604
 IR Inten    --      2.7349                 4.4105                 0.6514

                     10                     11                     12
                      A                      A                      A
 Frequencies --    289.2762               328.9867               356.0726
 Red. masses --      3.2724                 4.4513                 4.7727
 Frc consts  --      0.1613                 0.2839                 0.3565
 IR Inten    --      8.6447                 4.2103                 5.9256

                     13                     14                     15
                      A                      A                      A
 Frequencies --    400.1277               423.8108               441.2239
 Red. masses --      4.6802                 3.1274                 3.6442
 Frc consts  --      0.4415                 0.3310                 0.4180
 IR Inten    --      1.3927                 0.2447                 0.8673

                     16                     17                     18
                      A                      A                      A
 Frequencies --    494.4736               502.0619               550.9195
 Red. masses --      3.1919                 3.0203                 3.5530
 Frc consts  --      0.4598                 0.4485                 0.6354
 IR Inten    --      1.6937                10.5812                 7.0297

                     19                     20                     21
                      A                      A                      A
 Frequencies --    562.8761               580.8823               631.5659
 Red. masses --      1.3242                 2.5133                 6.3672
 Frc consts  --      0.2472                 0.4997                 1.4964
 IR Inten    --     63.5144                41.7521                 0.5907

                     22                     23                     24
                      A                      A                      A
 Frequencies --    653.8374               702.6815               752.7994
 Red. masses --      4.7615                 2.3976                 1.7185
 Frc consts  --      1.1993                 0.6975                 0.5738
 IR Inten    --      7.6059                 9.3549                10.4460

                     25                     26                     27
                      A                      A                      A
 Frequencies --    768.2269               795.7016               812.0008
 Red. masses --      1.6337                 2.9654                 3.3660
 Frc consts  --      0.5681                 1.1062                 1.3076
 IR Inten    --     50.3160                24.8373                 8.2604

                     28                     29                     30
                      A                      A                      A
 Frequencies --    833.1982               840.6358               881.8821
 Red. masses --      2.6172                 1.4771                 2.9361
 Frc consts  --      1.0705                 0.6150                 1.3454
 IR Inten    --      5.3504                 1.2392                 4.2045

                     31                     32                     33
                      A                      A                      A
 Frequencies --    907.1993               931.3964               953.3558
 Red. masses --      1.4476                 1.3878                 3.2247
 Frc consts  --      0.7019                 0.7093                 1.7268
 IR Inten    --      9.0630                39.4492                19.3418

                     34                     35                     36
                      A                      A                      A
 Frequencies --    959.9807               986.2685              1006.1662
 Red. masses --      1.3277                 1.2364                 2.3345
 Frc consts  --      0.7209                 0.7086                 1.3925
 IR Inten    --      0.1974                 0.3832                24.0242

                     37                     38                     39
                      A                      A                      A
 Frequencies --   1022.1488              1042.3223              1056.4439
 Red. masses --      6.0388                 2.7217                 1.9901
 Frc consts  --      3.7173                 1.7422                 1.3086
 IR Inten    --      1.2239                18.8760                 5.9981

                     40                     41                     42
                      A                      A                      A
 Frequencies --   1096.6689              1111.7618              1137.9711
 Red. masses --      2.4363                 1.4868                 3.5700
 Frc consts  --      1.7264                 1.0828                 2.7239
 IR Inten    --      8.5414                 5.1904                55.6178

                     43                     44                     45
                      A                      A                      A
 Frequencies --   1191.0282              1200.9533              1214.2197
 Red. masses --      1.1130                 1.1809                 4.1575
 Frc consts  --      0.9302                 1.0035                 3.6114
 IR Inten    --      3.4759                16.3243               448.2811

                     46                     47                     48
                      A                      A                      A
 Frequencies --   1256.0952              1261.6911              1317.3057
 Red. masses --      1.0817                 4.1194                 1.1736
 Frc consts  --      1.0056                 3.8636                 1.1998
 IR Inten    --     13.9406               255.4941                39.2650

                     49                     50                     51
                      A                      A                      A
 Frequencies --   1346.5636              1357.9302              1371.3597
 Red. masses --      1.8356                 4.0111                 2.6086
 Frc consts  --      1.9610                 4.3578                 2.8904
 IR Inten    --     18.4955                85.9833                20.8374

                     52                     53                     54
                      A                      A                      A
 Frequencies --   1414.0194              1419.6697              1435.0333
 Red. masses --      1.3588                 1.3656                 1.2721
 Frc consts  --      1.6007                 1.6217                 1.5435
 IR Inten    --     28.3523                 4.2800                41.9234

                     55                     56                     57
                      A                      A                      A
 Frequencies --   1486.5417              1507.7924              1508.0519
 Red. masses --      1.2220                 1.3883                 1.6454
 Frc consts  --      1.5910                 1.8596                 2.2048
 IR Inten    --     98.8479                 4.6809                 2.0550

                     58                     59                     60
                      A                      A                      A
 Frequencies --   1526.2679              1543.8456              1654.6442
 Red. masses --      1.0871                 2.2720                 6.0712
 Frc consts  --      1.4921                 3.1905                 9.7934
 IR Inten    --      2.1906                95.5563                11.5010

                     61                     62                     63
                      A                      A                      A
 Frequencies --   1662.2701              1717.0199              1791.7153
 Red. masses --      5.7804                 5.9221                11.1242
 Frc consts  --      9.4104                10.2866                21.0405
 IR Inten    --     84.3376                84.5204               197.9199

                     64                     65                     66
                      A                      A                      A
 Frequencies --   2980.2815              3079.0855              3093.5345
 Red. masses --      1.0722                 1.0828                 1.0672
 Frc consts  --      5.6111                 6.0484                 6.0173
 IR Inten    --     54.0880                19.6919                50.2325

                     67                     68                     69
                      A                      A                      A
 Frequencies --   3153.1631              3188.8674              3197.0517
 Red. masses --      1.1087                 1.0851                 1.0888
 Frc consts  --      6.4949                 6.5014                 6.5571
 IR Inten    --     18.0075                 1.9114                10.5540

                     70                     71                     72
                      A                      A                      A
 Frequencies --   3203.7419              3208.1147              3215.7453
 Red. masses --      1.0606                 1.0918                 1.0959
 Frc consts  --      6.4139                 6.6205                 6.6769
 IR Inten    --      1.5020                24.1793                15.2575

                     73                     74                     75
                      A                      A                      A
 Frequencies --   3224.3783              3302.3521              3657.7949
 Red. masses --      1.0951                 1.1176                 1.0652
 Frc consts  --      6.7083                 7.1813                 8.3968
 IR Inten    --      5.1403                 0.7491               215.5107

 - Thermochemistry -
 -------------------
 Temperature   298.150 Kelvin.  Pressure   1.00000 Atm.
 Atom     1 has atomic number  6 and mass  12.00000

 Molecular mass:   208.07356 amu.
 Principal axes and moments of inertia in atomic units:
                           1         2         3
     Eigenvalues --  1994.097054362.239595494.63928
           X            0.99994   0.00816   0.00705
           Y           -0.00814   0.99996  -0.00277
           Z           -0.00707   0.00272   0.99997
 This molecule is an asymmetric top.
 Rotational symmetry number  1.
 Warning -- assumption of classical behavior for rotation
           may cause significant error
 Rotational temperatures (Kelvin)      0.04344     0.01986     0.01576
 Rotational constants (GHZ):           0.90504     0.41372     0.32845
 Zero-point vibrational energy     565265.1 (Joules/Mol)
                                  135.10161 (Kcal/Mol)
 Warning -- explicit consideration of  20 degrees of freedom as
           vibrations may cause significant error
 Vibrational temperatures:     39.04    51.34    56.11   110.28   144.63
          (Kelvin)            185.29   223.34   302.89   328.58   416.20
                              473.34   512.31   575.69   609.77   634.82
                              711.44   722.36   792.65   809.85   835.76
                              908.68   940.73  1011.00  1083.11  1105.31
                             1144.84  1168.29  1198.79  1209.49  1268.83
                             1305.26  1340.07  1371.67  1381.20  1419.02
                             1447.65  1470.64  1499.67  1519.99  1577.86
                             1599.58  1637.29  1713.62  1727.90  1746.99
                             1807.24  1815.29  1895.31  1937.40  1953.76
                             1973.08  2034.46  2042.59  2064.69  2138.80
                             2169.38  2169.75  2195.96  2221.25  2380.66
                             2391.64  2470.41  2577.88  4287.96  4430.12
                             4450.91  4536.70  4588.07  4599.84  4609.47
                             4615.76  4626.74  4639.16  4751.35  5262.75

 Zero-point correction=                           0.215298 (Hartree/Particle)
 Thermal correction to Energy=                    0.229173
 Thermal correction to Enthalpy=                  0.230117
 Thermal correction to Gibbs Free Energy=         0.172505
 Sum of electronic and zero-point Energies=           -727.086940
 Sum of electronic and thermal Energies=              -727.073065
 Sum of electronic and thermal Enthalpies=            -727.072121
 Sum of electronic and thermal Free Energies=         -727.129733

                     E (Thermal)             CV                S
                      KCal/Mol        Cal/Mol-Kelvin    Cal/Mol-Kelvin
 Total                  143.808             52.009            121.255
 Electronic               0.000              0.000              0.000
 Translational            0.889              2.981             41.902
 Rotational               0.889              2.981             32.236
 Vibrational            142.031             46.048             47.117
 Vibration     1          0.593              1.984              6.029
 Vibration     2          0.594              1.982              5.485
 Vibration     3          0.594              1.981              5.309
 Vibration     4          0.599              1.965              3.975
 Vibration     5          0.604              1.949              3.444
 Vibration     6          0.611              1.924              2.964
 Vibration     7          0.620              1.897              2.607
 Vibration     8          0.643              1.825              2.039
 Vibration     9          0.651              1.798              1.892
 Vibration    10          0.686              1.694              1.478
 Vibration    11          0.712              1.618              1.265
 Vibration    12          0.732              1.563              1.139
 Vibration    13          0.766              1.470              0.962
 Vibration    14          0.786              1.418              0.879
 Vibration    15          0.801              1.380              0.823
 Vibration    16          0.850              1.262              0.672
 Vibration    17          0.857              1.245              0.653
 Vibration    18          0.906              1.138              0.542
 Vibration    19          0.919              1.112              0.518
 Vibration    20          0.938              1.073              0.484

                           ! Non-Optimized Parameters !
 Normal termination of Gaussian 16 at Thu Dec 10 15:54:40 2020.

 ----------------------------------------------------------------------
 # B3LYP/6-311++G(d,p) empiricaldispersion=gd3bj scf=xqc pop=npa geom=c
 heck
 ----------------------------------------------------------------------

 --------------------------------------
 CID_66710166_JID_5631_Energie_neutraal
 --------------------------------------
 Structure from the checkpoint file:  "JID_5631.chk"
 Charge =  0 Multiplicity = 1

 SCF Done:  E(RB3LYP) =  -727.518021190     A.U. after   14 cycles
 Normal termination of Gaussian 16 at Thu Dec 10 15:57:23 2020.

 ----------------------------------------------------------------------
 # B3LYP/6-311++G(d,p) empiricaldispersion=gd3bj scf=xqc pop=npa geom=c
 heck
 ----------------------------------------------------------------------

 ------------------------------------
 CID_66710166_JID_5631_Energie_kation
 ------------------------------------
 Structure from the checkpoint file:  "JID_5631.chk"
 Charge =  1 Multiplicity = 2

 SCF Done:  E(UB3LYP) =  -727.210518112     A.U. after   26 cycles
 Normal termination of Gaussian 16 at Thu Dec 10 16:03:54 2020.
 Gaussian 16:  ES64L-G16RevA.03 25-Dec-2016

 ----------------------------------------------------------------------
 # B3LYP/6-311++G(d,p) empiricaldispersion=gd3bj scf=xqc pop=npa geom=c
 heck
 ----------------------------------------------------------------------

 -----------------------------------
 CID_66710166_JID_5631_Energie_anion
 -----------------------------------
 Structure from the checkpoint file:  "JID_5631.chk"
 Charge = -1 Multiplicity = 2

                         Standard orientation:
 ---------------------------------------------------------------------
 Center     Atomic      Atomic             Coordinates (Angstroms)
 Number     Number       Type             X           Y           Z
 ---------------------------------------------------------------------
      1          6           0        0.664239    2.939291    0.623535
      2          6           0        0.267433    1.825260    0.003135
      3          6           0        1.185929    0.691211   -0.333398
      4          8           0        0.911004   -0.158539   -1.160883
      5          8           0        2.321804    0.735826    0.375132
      6          6           0        3.371464   -0.215278    0.041414
      7          6           0        3.048303   -1.661538    0.425302
      8          8           0        2.441388   -2.414303   -0.596457
      9          8           0       -1.003440    1.711978   -0.493696
     10          6           0       -1.747514    0.597994   -0.135473
     11          6           0       -2.748873    0.207018   -1.022093
     12          6           0       -3.558282   -0.878416   -0.696880
     13          6           0       -3.367003   -1.572566    0.500696
     14          6           0       -2.362850   -1.166058    1.378652
     15          6           0       -1.551327   -0.073071    1.071120
     16          1           0        1.695831    3.063659    0.924561
     17          1           0       -0.040174    3.742612    0.808277
     18          1           0        3.587453   -0.151716   -1.029398
     19          1           0        4.223540    0.159344    0.611900
     20          1           0        3.993672   -2.165570    0.658094
     21          1           0        2.453274   -1.643201    1.355323
     22          1           0        1.706609   -1.873120   -0.940713
     23          1           0       -2.869402    0.751556   -1.952429
     24          1           0       -4.337293   -1.188254   -1.387513
     25          1           0       -3.996230   -2.422514    0.746191
     26          1           0       -2.209393   -1.695043    2.314909
     27          1           0       -0.783050    0.259469    1.761983
 ---------------------------------------------------------------------

 SCF Done:  E(UB3LYP) =  -727.527910117     A.U. after   28 cycles

 The electronic state is 2-A.
 Alpha  occ. eigenvalues --  -19.01975 -19.01653 -18.98800 -18.94059 -10.11881
 Alpha  occ. eigenvalues --  -10.11150 -10.10860 -10.10304 -10.06366 -10.06365
 Alpha  occ. eigenvalues --  -10.06040 -10.05684 -10.05179 -10.05165  -9.99526
 Alpha  occ. eigenvalues --   -0.95811  -0.93707  -0.89513  -0.86183  -0.73815
 Alpha  occ. eigenvalues --   -0.65248  -0.63485  -0.63152  -0.59659  -0.53285
 Alpha  occ. eigenvalues --   -0.50372  -0.49034  -0.46323  -0.43442  -0.40672
 Alpha  occ. eigenvalues --   -0.39357  -0.38084  -0.35354  -0.35013  -0.33095
 Alpha  occ. eigenvalues --   -0.32428  -0.31819  -0.31436  -0.30893  -0.29048
 Alpha  occ. eigenvalues --   -0.28543  -0.26240  -0.25630  -0.24919  -0.24663
 Alpha  occ. eigenvalues --   -0.23600  -0.22756  -0.21624  -0.20070  -0.16737
 Alpha  occ. eigenvalues --   -0.15412  -0.14200  -0.13071  -0.12170  -0.09888
 Alpha  occ. eigenvalues --    0.05033
 Alpha virt. eigenvalues --    0.07958   0.08142   0.09516   0.10037   0.10331
 Alpha virt. eigenvalues --    0.10681   0.11178   0.11508   0.11795   0.12582
 Alpha virt. eigenvalues --    0.13224   0.14085   0.14520   0.15017   0.16055

  Beta  occ. eigenvalues --  -19.01972 -19.01580 -18.98794 -18.93662 -10.11501
  Beta  occ. eigenvalues --  -10.11146 -10.10861 -10.10290 -10.06355 -10.06236
  Beta  occ. eigenvalues --  -10.05988 -10.05678 -10.05189 -10.05116  -9.99102
  Beta  occ. eigenvalues --   -0.95462  -0.93628  -0.89495  -0.85582  -0.73755
  Beta  occ. eigenvalues --   -0.64923  -0.63403  -0.63094  -0.59258  -0.53034
  Beta  occ. eigenvalues --   -0.50153  -0.48842  -0.45645  -0.43325  -0.40506
  Beta  occ. eigenvalues --   -0.39234  -0.38008  -0.35254  -0.34872  -0.32943
  Beta  occ. eigenvalues --   -0.32016  -0.31437  -0.31243  -0.30700  -0.28964
  Beta  occ. eigenvalues --   -0.28091  -0.26025  -0.25175  -0.24640  -0.24453
  Beta  occ. eigenvalues --   -0.23222  -0.22657  -0.21334  -0.19832  -0.15825
  Beta  occ. eigenvalues --   -0.15182  -0.13953  -0.12639  -0.11204  -0.08585
  Beta virt. eigenvalues --    0.07886   0.08101   0.09399   0.09972   0.10308
  Beta virt. eigenvalues --    0.10564   0.11090   0.11438   0.11721   0.12126
  Beta virt. eigenvalues --    0.12708   0.13287   0.14017   0.14560   0.15113

 Mulliken charges and spin densities:
               1          2
     1  C   -0.858866   0.503003
     2  C    0.319745  -0.013069
     3  C    0.021904   0.171205
     4  O   -0.340658   0.133481
     5  O   -0.024598   0.011858
     6  C   -0.283783   0.044168
     7  C   -0.096819  -0.148530
     8  O   -0.255780  -0.004664
     9  O   -0.009275  -0.004799
    10  C   -0.619839   0.040566
    11  C   -0.090738   0.025958
    12  C   -0.174984   0.043989
    13  C   -0.353103  -0.022683
    14  C   -0.092359  -0.006614
    15  C    0.419657  -0.059853
    16  H    0.124893  -0.015186
    17  H    0.094164  -0.028017
    18  H    0.202566  -0.008840
    19  H    0.037963   0.074869
    20  H    0.016742   0.109180
    21  H    0.129056   0.016050
    22  H    0.249545   0.014239
    23  H    0.135628   0.006107
    24  H    0.131907   0.000438
    25  H    0.107123  -0.003142
    26  H    0.131704   0.011863
    27  H    0.078205   0.108422
 Sum of Mulliken charges =  -1.00000   1.00000

 Dipole moment (field-independent basis, Debye):
    X=             -1.1975    Y=             -2.0216    Z=              1.0183  Tot=              2.5608
 Quadrupole moment (field-independent basis, Debye-Ang):
   XX=           -109.6653   YY=           -120.9516   ZZ=           -100.4338
   XY=              5.3727   XZ=              3.8909   YZ=             -6.1962

 Summary of Natural Population Analysis:

                                       Natural Population
                Natural  -----------------------------------------------
    Atom  No    Charge         Core      Valence    Rydberg      Total
 -----------------------------------------------------------------------
      C    1   -0.11256      0.99954     2.10406    0.00896     3.11256
      C    2    0.10441      0.99936     1.87970    0.01654     2.89559
      C    3    0.42552      0.99962     1.54761    0.02725     2.57448
      O    4   -0.30216      0.99985     3.29673    0.00558     4.30216
      O    5   -0.27986      0.99986     3.27182    0.00818     4.27986
      C    6   -0.02967      0.99957     2.01875    0.01134     3.02967
      C    7   -0.02229      0.99961     2.01058    0.01210     3.02229
      O    8   -0.38594      0.99989     3.37810    0.00794     4.38594
      O    9   -0.26987      0.99984     3.25921    0.01083     4.26987
      C   10    0.17153      0.99935     1.81410    0.01502     2.82847
      C   11   -0.11243      0.99951     2.10467    0.00825     3.11243
      C   12   -0.09929      0.99958     2.09128    0.00843     3.09929
      C   13   -0.12576      0.99957     2.11701    0.00918     3.12576
      C   14   -0.08866      0.99958     2.08007    0.00901     3.08866
      C   15   -0.13464      0.99951     2.12511    0.01003     3.13464
      H   16    0.09462      0.00000     0.40468    0.00070     0.40538
      H   17    0.08518      0.00000     0.41385    0.00097     0.41482
      H   18    0.09131      0.00000     0.40707    0.00161     0.40869
      H   19    0.08753      0.00000     0.41111    0.00135     0.41247
      H   20    0.07896      0.00000     0.41931    0.00173     0.42104
      H   21    0.07778      0.00000     0.42035    0.00187     0.42222
      H   22    0.24873      0.00000     0.24777    0.00350     0.25127
      H   23    0.10297      0.00000     0.39574    0.00129     0.39703
      H   24    0.09330      0.00000     0.40575    0.00095     0.40670
      H   25    0.09350      0.00000     0.40554    0.00096     0.40650
      H   26    0.09499      0.00000     0.40410    0.00091     0.40501
      H   27    0.11280      0.00000     0.38542    0.00178     0.38720
 =======================================================================
   * Total *    0.00000     14.99425    39.81947    0.18628    55.00000

 Normal termination of Gaussian 16 at Thu Dec 10 16:10:52 2020.
