 Gaussian 16, Revision A.03,

 -----------------------------------------------------------
 # opt freq B3LYP/6-31G(d) empiricaldispersion=gd3bj scf=xqc
 -----------------------------------------------------------

 ---------------------------
 CID_3032155_JID_61_neutraal
 ---------------------------
 Symbolic Z-matrix:
 Charge =  0 Multiplicity = 1

 SCF Done:  E(RB3LYP) =  -474.804108210     A.U. after   14 cycles
 SCF Done:  E(RB3LYP) =  -474.806755240     A.U. after   12 cycles
 SCF Done:  E(RB3LYP) =  -474.807171372     A.U. after   12 cycles
 SCF Done:  E(RB3LYP) =  -474.807668899     A.U. after   11 cycles
 SCF Done:  E(RB3LYP) =  -474.807726249     A.U. after   11 cycles
 SCF Done:  E(RB3LYP) =  -474.807796129     A.U. after   10 cycles
 SCF Done:  E(RB3LYP) =  -474.807815776     A.U. after    9 cycles
 SCF Done:  E(RB3LYP) =  -474.807826800     A.U. after   10 cycles
 SCF Done:  E(RB3LYP) =  -474.807832994     A.U. after    9 cycles
 SCF Done:  E(RB3LYP) =  -474.807838878     A.U. after   10 cycles
 SCF Done:  E(RB3LYP) =  -474.807845712     A.U. after    9 cycles
 SCF Done:  E(RB3LYP) =  -474.807852841     A.U. after   10 cycles
 SCF Done:  E(RB3LYP) =  -474.807856702     A.U. after   10 cycles
 SCF Done:  E(RB3LYP) =  -474.807857995     A.U. after    9 cycles
 SCF Done:  E(RB3LYP) =  -474.807858407     A.U. after    8 cycles
 SCF Done:  E(RB3LYP) =  -474.807858510     A.U. after    8 cycles
 Optimization completed.
    -- Stationary point found.
 Normal termination of Gaussian 16 at Tue Dec  8 10:17:23 2020.

 --------------------------------------------------------------------
 #N Geom=AllCheck Guess=TCheck SCRF=Check GenChk RB3LYP/6-31G(d) Freq
 --------------------------------------------------------------------

 Structure from the checkpoint file:  "JID_61.chk"
 ---------------------------
 CID_3032155_JID_61_neutraal
 ---------------------------
 Charge =  0 Multiplicity = 1

 SCF Done:  E(RB3LYP) =  -474.807858510     A.U. after    1 cycles

  Exact polarizability: 109.042   6.302  88.580  -0.769  -1.266  53.874
 Approx polarizability: 138.042  19.601 139.088  -2.085  -3.656  81.344

                      1                      2                      3
                      A                      A                      A
 Frequencies --     31.1492                66.6003               140.4048
 Red. masses --      7.8770                 3.9526                 2.4760
 Frc consts  --      0.0045                 0.0103                 0.0288
 IR Inten    --      6.8467                 0.0222                 6.7098

                      4                      5                      6
                      A                      A                      A
 Frequencies --    191.4532               218.3823               302.3164
 Red. masses --      4.6783                 2.1923                 1.4479
 Frc consts  --      0.1010                 0.0616                 0.0780
 IR Inten    --      6.7538                20.5139                85.4230

                      7                      8                      9
                      A                      A                      A
 Frequencies --    323.8447               353.7708               389.4674
 Red. masses --      1.8333                 3.7454                 4.7456
 Frc consts  --      0.1133                 0.2762                 0.4241
 IR Inten    --     75.3126                 1.2024                16.4025

                     10                     11                     12
                      A                      A                      A
 Frequencies --    463.8312               521.0078               551.7604
 Red. masses --      2.4031                 2.2121                 2.5437
 Frc consts  --      0.3046                 0.3538                 0.4563
 IR Inten    --      6.3158                45.0671                29.8571

                     13                     14                     15
                      A                      A                      A
 Frequencies --    576.5752               588.5415               715.0658
 Red. masses --      2.2206                 1.7100                 1.5812
 Frc consts  --      0.4349                 0.3490                 0.4764
 IR Inten    --     24.5321                33.5718                12.7060

                     16                     17                     18
                      A                      A                      A
 Frequencies --    727.4321               771.3590               821.6147
 Red. masses --      2.3687                 2.6304                 3.0000
 Frc consts  --      0.7385                 0.9221                 1.1932
 IR Inten    --      5.1812                13.0798                 0.3445

                     19                     20                     21
                      A                      A                      A
 Frequencies --    852.5919               895.3595               929.7919
 Red. masses --      1.7869                 2.7825                 2.7692
 Frc consts  --      0.7653                 1.3142                 1.4105
 IR Inten    --      3.8733                 0.5369                 4.3228

                     22                     23                     24
                      A                      A                      A
 Frequencies --    939.5677               978.5249              1013.3609
 Red. masses --      1.5929                 2.3502                 3.0174
 Frc consts  --      0.8285                 1.3259                 1.8256
 IR Inten    --      2.0622                 8.5098                15.7557

                     25                     26                     27
                      A                      A                      A
 Frequencies --   1087.2896              1122.4109              1131.5090
 Red. masses --      1.7291                 2.3779                 1.8612
 Frc consts  --      1.2044                 1.7650                 1.4040
 IR Inten    --      0.5235                 6.0604                 0.5713

                     28                     29                     30
                      A                      A                      A
 Frequencies --   1181.5381              1192.1011              1219.5631
 Red. masses --      2.2954                 1.2690                 1.4212
 Frc consts  --      1.8880                 1.0625                 1.2454
 IR Inten    --     52.8390                 2.2281                 1.7670

                     31                     32                     33
                      A                      A                      A
 Frequencies --   1248.1646              1296.2152              1322.9706
 Red. masses --      2.0391                 1.2261                 1.1775
 Frc consts  --      1.8717                 1.2138                 1.2142
 IR Inten    --     38.1357                12.0518                 2.3812

                     34                     35                     36
                      A                      A                      A
 Frequencies --   1378.7266              1386.9840              1393.6718
 Red. masses --      1.4225                 2.0662                 1.4252
 Frc consts  --      1.5931                 2.3419                 1.6310
 IR Inten    --     86.0755               247.5227                 6.4744

                     37                     38                     39
                      A                      A                      A
 Frequencies --   1405.4771              1416.4576              1498.2942
 Red. masses --      1.6913                 1.5720                 1.1519
 Frc consts  --      1.9684                 1.8583                 1.5235
 IR Inten    --     10.7964                18.9528                24.2084

                     40                     41                     42
                      A                      A                      A
 Frequencies --   1512.0974              1517.3279              1520.1302
 Red. masses --      1.8031                 1.1072                 1.0914
 Frc consts  --      2.4291                 1.5019                 1.4859
 IR Inten    --    110.8215                 7.2584                 0.5400

                     43                     44                     45
                      A                      A                      A
 Frequencies --   1535.7619              1623.8303              1742.0189
 Red. masses --      1.1210                 1.3450                 7.3654
 Frc consts  --      1.5577                 2.0896                13.1690
 IR Inten    --      8.4203               383.0820               183.1321

                     46                     47                     48
                      A                      A                      A
 Frequencies --   1834.0096              3016.3917              3035.7965
 Red. masses --      7.4418                 1.0710                 1.0634
 Frc consts  --     14.7479                 5.7414                 5.7742
 IR Inten    --    515.0401                45.5064                15.3934

                     49                     50                     51
                      A                      A                      A
 Frequencies --   3038.1112              3046.7705              3068.3232
 Red. masses --      1.0673                 1.0637                 1.0920
 Frc consts  --      5.8042                 5.8175                 6.0570
 IR Inten    --     15.9548                23.5783                54.6453

                     52                     53                     54
                      A                      A                      A
 Frequencies --   3078.1245              3091.7840              3098.2890
 Red. masses --      1.0971                 1.0980                 1.1038
 Frc consts  --      6.1247                 6.1840                 6.2431
 IR Inten    --     23.7251                50.1681                43.9707

                     55                     56                     57
                      A                      A                      A
 Frequencies --   3439.8660              3633.4263              3705.0302
 Red. masses --      1.0605                 1.0771                 1.0925
 Frc consts  --      7.3934                 8.3783                 8.8362
 IR Inten    --    221.4983                42.0105                99.8741

 - Thermochemistry -
 -------------------
 Temperature   298.150 Kelvin.  Pressure   1.00000 Atm.
 Atom     1 has atomic number  6 and mass  12.00000

 Molecular mass:   141.09021 amu.
 Principal axes and moments of inertia in atomic units:
                           1         2         3
     Eigenvalues --   553.619492346.086002825.78595
           X            0.99993  -0.01163   0.00086
           Y            0.01163   0.99993  -0.00035
           Z           -0.00086   0.00036   1.00000
 This molecule is an asymmetric top.
 Rotational symmetry number  1.
 Warning -- assumption of classical behavior for rotation
           may cause significant error
 Rotational temperatures (Kelvin)      0.15645     0.03692     0.03065
 Rotational constants (GHZ):           3.25989     0.76926     0.63867
 Zero-point vibrational energy     473615.0 (Joules/Mol)
                                  113.19669 (Kcal/Mol)
 Warning -- explicit consideration of  14 degrees of freedom as
           vibrations may cause significant error
 Vibrational temperatures:     44.82    95.82   202.01   275.46   314.20
          (Kelvin)            434.97   465.94   509.00   560.36   667.35
                              749.61   793.86   829.56   846.78  1028.82
                             1046.61  1109.81  1182.12  1226.69  1288.22
                             1337.76  1351.83  1407.88  1458.00  1564.37
                             1614.90  1627.99  1699.97  1715.17  1754.68
                             1795.83  1864.96  1903.46  1983.68  1995.56
                             2005.18  2022.17  2037.97  2155.71  2175.57
                             2183.10  2187.13  2209.62  2336.33  2506.38
                             2638.73  4339.91  4367.83  4371.16  4383.62
                             4414.63  4428.73  4448.39  4457.75  4949.20
                             5227.69  5330.71

 Zero-point correction=                           0.180390 (Hartree/Particle)
 Thermal correction to Energy=                    0.190022
 Thermal correction to Enthalpy=                  0.190966
 Thermal correction to Gibbs Free Energy=         0.144682
 Sum of electronic and zero-point Energies=           -474.627468
 Sum of electronic and thermal Energies=              -474.617837
 Sum of electronic and thermal Enthalpies=            -474.616893
 Sum of electronic and thermal Free Energies=         -474.663176

                     E (Thermal)             CV                S
                      KCal/Mol        Cal/Mol-Kelvin    Cal/Mol-Kelvin
 Total                  119.240             36.180             97.412
 Electronic               0.000              0.000              0.000
 Translational            0.889              2.981             40.744
 Rotational               0.889              2.981             29.686
 Vibrational            117.463             30.219             26.982
 Vibration     1          0.594              1.983              5.755
 Vibration     2          0.598              1.970              4.251
 Vibration     3          0.615              1.913              2.798
 Vibration     4          0.634              1.852              2.214
 Vibration     5          0.646              1.813              1.972
 Vibration     6          0.694              1.669              1.404
 Vibration     7          0.708              1.628              1.291
 Vibration     8          0.730              1.568              1.149
 Vibration     9          0.757              1.493              1.002
 Vibration    10          0.821              1.330              0.755
 Vibration    11          0.876              1.203              0.608
 Vibration    12          0.907              1.136              0.541
 Vibration    13          0.933              1.082              0.492
 Vibration    14          0.946              1.056              0.470

                           ! Non-Optimized Parameters !
 Normal termination of Gaussian 16 at Tue Dec  8 10:20:42 2020.

 ----------------------------------------------------------------------
 # B3LYP/6-311++G(d,p) empiricaldispersion=gd3bj scf=xqc pop=npa geom=c
 heck
 ----------------------------------------------------------------------

 -----------------------------------
 CID_3032155_JID_61_Energie_neutraal
 -----------------------------------
 Structure from the checkpoint file:  "JID_61.chk"
 Charge =  0 Multiplicity = 1

 SCF Done:  E(RB3LYP) =  -474.954772418     A.U. after   13 cycles
 Normal termination of Gaussian 16 at Tue Dec  8 10:21:46 2020.

 ----------------------------------------------------------------------
 # B3LYP/6-311++G(d,p) empiricaldispersion=gd3bj scf=xqc pop=npa geom=c
 heck
 ----------------------------------------------------------------------

 ---------------------------------
 CID_3032155_JID_61_Energie_kation
 ---------------------------------
 Structure from the checkpoint file:  "JID_61.chk"
 Charge =  1 Multiplicity = 2

 SCF Done:  E(UB3LYP) =  -474.630513255     A.U. after   28 cycles
 Normal termination of Gaussian 16 at Tue Dec  8 10:24:39 2020.
 Gaussian 16:  ES64L-G16RevA.03 25-Dec-2016

 ----------------------------------------------------------------------
 # B3LYP/6-311++G(d,p) empiricaldispersion=gd3bj scf=xqc pop=npa geom=c
 heck
 ----------------------------------------------------------------------

 --------------------------------
 CID_3032155_JID_61_Energie_anion
 --------------------------------
 Structure from the checkpoint file:  "JID_61.chk"
 Charge = -1 Multiplicity = 2

                         Standard orientation:
 ---------------------------------------------------------------------
 Center     Atomic      Atomic             Coordinates (Angstroms)
 Number     Number       Type             X           Y           Z
 ---------------------------------------------------------------------
      1          6           0        2.566461   -0.935779   -0.308019
      2          6           0        2.827518    0.409294    0.370533
      3          6           0        1.782491    1.427902   -0.092915
      4          7           0        0.400750    0.959774   -0.078651
      5          6           0        0.141782   -0.293594   -0.011704
      6          6           0        1.163263   -1.418720    0.066568
      7          7           0       -1.167165   -0.752754    0.011816
      8          6           0       -2.401248   -0.059676    0.013617
      9          8           0       -3.441664   -0.702701    0.059062
     10          7           0       -2.302642    1.288482   -0.036333
     11          1           0        2.636059   -0.815648   -1.397234
     12          1           0        3.311614   -1.684694   -0.019484
     13          1           0        2.765356    0.286236    1.460456
     14          1           0        3.833567    0.780689    0.144340
     15          1           0        1.830212    2.330608    0.528044
     16          1           0        2.013462    1.754054   -1.118299
     17          1           0        0.842528   -2.242892   -0.582519
     18          1           0        1.157547   -1.810495    1.093521
     19          1           0       -1.313230   -1.751598    0.053515
     20          1           0       -1.379246    1.717487   -0.089863
     21          1           0       -3.162758    1.812791   -0.051277
 ---------------------------------------------------------------------

 SCF Done:  E(UB3LYP) =  -474.942885677     A.U. after   31 cycles

 The electronic state is 2-A.
 Alpha  occ. eigenvalues --  -18.98448 -14.24448 -14.22339 -14.19000 -10.20149
 Alpha  occ. eigenvalues --  -10.14992 -10.08692 -10.07503 -10.06095 -10.05721
 Alpha  occ. eigenvalues --   -0.95165  -0.86347  -0.80451  -0.78419  -0.68753
 Alpha  occ. eigenvalues --   -0.64659  -0.55492  -0.53805  -0.49611  -0.45791
 Alpha  occ. eigenvalues --   -0.44590  -0.39189  -0.38783  -0.36556  -0.34393
 Alpha  occ. eigenvalues --   -0.33099  -0.32866  -0.32721  -0.30410  -0.29261
 Alpha  occ. eigenvalues --   -0.25789  -0.23269  -0.23116  -0.22414  -0.17524
 Alpha  occ. eigenvalues --   -0.17366  -0.15084  -0.14275   0.04630
 Alpha virt. eigenvalues --    0.07353   0.07628   0.08551   0.09279   0.09540
 Alpha virt. eigenvalues --    0.10525   0.11290   0.11636   0.12933   0.13217
 Alpha virt. eigenvalues --    0.13680   0.15419   0.15888   0.16434   0.17080

  Beta  occ. eigenvalues --  -18.98442 -14.24436 -14.22322 -14.18988 -10.20145
  Beta  occ. eigenvalues --  -10.14977 -10.08668 -10.07459 -10.06054 -10.05688
  Beta  occ. eigenvalues --   -0.95151  -0.86317  -0.80424  -0.78386  -0.68688
  Beta  occ. eigenvalues --   -0.64591  -0.55424  -0.53742  -0.49548  -0.45707
  Beta  occ. eigenvalues --   -0.44564  -0.39133  -0.38740  -0.36477  -0.34350
  Beta  occ. eigenvalues --   -0.33049  -0.32842  -0.32672  -0.30352  -0.29187
  Beta  occ. eigenvalues --   -0.25725  -0.23199  -0.23052  -0.22356  -0.17512
  Beta  occ. eigenvalues --   -0.17338  -0.15052  -0.14230
  Beta virt. eigenvalues --    0.07120   0.08108   0.08636   0.09393   0.09694
  Beta virt. eigenvalues --    0.10241   0.11277   0.11973   0.12232   0.13305
  Beta virt. eigenvalues --    0.13618   0.14028   0.15558   0.16019   0.16520

 Mulliken charges and spin densities:
               1          2
     1  C    0.224420  -0.566615
     2  C   -0.374358   0.117302
     3  C    1.708878  -2.100822
     4  N   -0.411512   0.188394
     5  C    0.135364  -0.137613
     6  C    0.993035  -1.246399
     7  N   -0.348810   0.107724
     8  C    0.365197  -0.076522
     9  O   -0.422707   0.018898
    10  N   -0.443309  -0.046654
    11  H   -0.018523   0.159086
    12  H   -0.951586   1.143056
    13  H   -0.019193   0.148746
    14  H   -0.571887   0.747497
    15  H   -0.160658   0.324290
    16  H   -0.373980   0.543176
    17  H   -0.362835   0.515612
    18  H   -0.498956   0.710966
    19  H    0.161431   0.169758
    20  H    0.213899   0.135532
    21  H    0.156091   0.144589
 Sum of Mulliken charges =  -1.00000   1.00000

 Dipole moment (field-independent basis, Debye):
    X=             -4.8476    Y=              2.9346    Z=             -0.2265  Tot=              5.6712
 Quadrupole moment (field-independent basis, Debye-Ang):
   XX=           -133.3448   YY=            -98.6250   ZZ=            -86.7043
   XY=             -1.3602   XZ=              0.0134   YZ=              2.7778

 Summary of Natural Population Analysis:

                                       Natural Population
                Natural  -----------------------------------------------
    Atom  No    Charge         Core      Valence    Rydberg      Total
 -----------------------------------------------------------------------
      C    1   -0.18861      0.99964     2.17961    0.00937     3.18861
      C    2   -0.19888      0.99963     2.19075    0.00850     3.19888
      C    3   -0.08865      0.99960     2.07688    0.01217     3.08865
      N    4   -0.29021      0.99963     2.77755    0.01304     3.79021
      C    5    0.24195      0.99956     1.74357    0.01492     2.75805
      C    6   -0.22033      0.99960     2.21135    0.00938     3.22033
      N    7   -0.32357      0.99964     2.81488    0.00905     3.82357
      C    8    0.40506      0.99973     1.57291    0.02230     2.59494
      O    9   -0.34224      0.99988     3.33669    0.00568     4.34224
      N   10   -0.41606      0.99970     2.90894    0.00743     3.91606
      H   11    0.09551      0.00000     0.40236    0.00213     0.40449
      H   12    0.10637      0.00000     0.38949    0.00414     0.39363
      H   13    0.09519      0.00000     0.40303    0.00179     0.40481
      H   14    0.10511      0.00000     0.39246    0.00244     0.39489
      H   15    0.09389      0.00000     0.40458    0.00153     0.40611
      H   16    0.09344      0.00000     0.40475    0.00181     0.40656
      H   17    0.10824      0.00000     0.38983    0.00193     0.39176
      H   18    0.11219      0.00000     0.38496    0.00286     0.38781
      H   19    0.20158      0.00000     0.29595    0.00247     0.29842
      H   20    0.21731      0.00000     0.27997    0.00272     0.28269
      H   21    0.19272      0.00000     0.30574    0.00154     0.30728
 =======================================================================
   * Total *    0.00000      9.99660    27.86622    0.13718    38.00000

 Normal termination of Gaussian 16 at Tue Dec  8 10:27:52 2020.
