 Gaussian 16, Revision A.03,

 -----------------------------------------------------------
 # opt freq B3LYP/6-31G(d) empiricaldispersion=gd3bj scf=xqc
 -----------------------------------------------------------

 -----------------------------
 CID_12623531_JID_954_neutraal
 -----------------------------
 Symbolic Z-matrix:
 Charge =  0 Multiplicity = 1

 SCF Done:  E(RB3LYP) =  -500.847691364     A.U. after   13 cycles
 SCF Done:  E(RB3LYP) =  -500.851092434     A.U. after   13 cycles
 SCF Done:  E(RB3LYP) =  -500.851775661     A.U. after   12 cycles
 SCF Done:  E(RB3LYP) =  -500.851566659     A.U. after   13 cycles
 SCF Done:  E(RB3LYP) =  -500.852000441     A.U. after   12 cycles
 SCF Done:  E(RB3LYP) =  -500.852085717     A.U. after   11 cycles
 SCF Done:  E(RB3LYP) =  -500.852143619     A.U. after   11 cycles
 SCF Done:  E(RB3LYP) =  -500.852182969     A.U. after   10 cycles
 SCF Done:  E(RB3LYP) =  -500.852230702     A.U. after   12 cycles
 SCF Done:  E(RB3LYP) =  -500.852239672     A.U. after   11 cycles
 SCF Done:  E(RB3LYP) =  -500.852415068     A.U. after   10 cycles
 SCF Done:  E(RB3LYP) =  -500.852426233     A.U. after    9 cycles
 SCF Done:  E(RB3LYP) =  -500.852427899     A.U. after    9 cycles
 SCF Done:  E(RB3LYP) =  -500.852429198     A.U. after    9 cycles
 SCF Done:  E(RB3LYP) =  -500.852429310     A.U. after    6 cycles
 SCF Done:  E(RB3LYP) =  -500.852429858     A.U. after    8 cycles
 Optimization completed.
    -- Stationary point found.

 1\1\GINC-NODE101\FOpt\RB3LYP\6-31G(d)\C7H14O3\VSC10255\08-Dec-2020\0\\
 # opt freq B3LYP/6-31G(d) empiricaldispersion=gd3bj scf=xqc\\CID_12623
 531_JID_954_neutraal\\0,1\C,0.7116651184,0.0629278068,-0.139186721\C,0
 .3094407412,-1.2346835637,0.5259509404\O,0.1470992625,-1.3489696044,1.
 7256356534\C,0.1799079668,-2.4607996373,-0.387603329\O,-0.3056320181,-
 2.1643480142,-1.6805405829\C,-1.720222458,-2.1919770964,-1.8830058086\
 C,-2.1467791713,-3.6429891893,-2.1234995654\C,-2.5047837646,-1.5383916
 725,-0.7390182266\O,-1.8204809673,-1.3933413286,-3.0516609893\C,-3.040

 Normal termination of Gaussian 16 at Tue Dec  8 13:38:27 2020.

 --------------------------------------------------------------------
 #N Geom=AllCheck Guess=TCheck SCRF=Check GenChk RB3LYP/6-31G(d) Freq
 --------------------------------------------------------------------

 Structure from the checkpoint file:  "JID_954.chk"
 -----------------------------
 CID_12623531_JID_954_neutraal
 -----------------------------
 Charge =  0 Multiplicity = 1

 SCF Done:  E(RB3LYP) =  -500.852429858     A.U. after    1 cycles

  Exact polarizability:  95.868  -2.105  78.600  -1.318   0.901  72.593
 Approx polarizability: 119.374  -7.925 109.217  -5.773   7.744 109.998

                      1                      2                      3
                      A                      A                      A
 Frequencies --     36.2350                62.3225                74.5022
 Red. masses --      3.8788                 4.1217                 2.2681
 Frc consts  --      0.0030                 0.0094                 0.0074
 IR Inten    --      0.9872                 5.4094                 4.7311

                      4                      5                      6
                      A                      A                      A
 Frequencies --     89.7573               128.5765               198.0207
 Red. masses --      1.7775                 1.4378                 1.2638
 Frc consts  --      0.0084                 0.0140                 0.0292
 IR Inten    --      0.5111                 0.0721                 2.0124

                      7                      8                      9
                      A                      A                      A
 Frequencies --    223.1027               231.2471               278.6342
 Red. masses --      2.8890                 1.6216                 1.2107
 Frc consts  --      0.0847                 0.0511                 0.0554
 IR Inten    --      7.0158                 0.8359                 0.2415

                     10                     11                     12
                      A                      A                      A
 Frequencies --    301.1386               348.2198               356.8550
 Red. masses --      1.3289                 2.5116                 3.0491
 Frc consts  --      0.0710                 0.1794                 0.2288
 IR Inten    --      0.1405                 1.5931                 2.0078

                     13                     14                     15
                      A                      A                      A
 Frequencies --    373.8876               409.4005               444.4609
 Red. masses --      2.3149                 3.1456                 2.9149
 Frc consts  --      0.1907                 0.3106                 0.3393
 IR Inten    --      2.3702                 0.6833                 4.4464

                     16                     17                     18
                      A                      A                      A
 Frequencies --    488.8062               513.0306               534.5619
 Red. masses --      3.0526                 3.3766                 2.8350
 Frc consts  --      0.4297                 0.5236                 0.4773
 IR Inten    --     11.5062                16.7037                 3.1770

                     19                     20                     21
                      A                      A                      A
 Frequencies --    602.1198               738.4724               779.9445
 Red. masses --      3.8264                 3.7818                 3.6300
 Frc consts  --      0.8174                 1.2151                 1.3010
 IR Inten    --      2.4325                 7.3952                 0.9138

                     22                     23                     24
                      A                      A                      A
 Frequencies --    852.9274               883.8550               917.5295
 Red. masses --      1.9347                 1.8096                 1.5424
 Frc consts  --      0.8293                 0.8329                 0.7650
 IR Inten    --     11.4775                18.9141                 1.1456

                     25                     26                     27
                      A                      A                      A
 Frequencies --    981.2293              1014.3350              1027.7422
 Red. masses --      1.9194                 1.3039                 1.7005
 Frc consts  --      1.0888                 0.7904                 1.0583
 IR Inten    --     28.5366                 0.6856                 9.7631

                     28                     29                     30
                      A                      A                      A
 Frequencies --   1098.4242              1114.4580              1160.9723
 Red. masses --      4.2467                 2.2288                 5.5895
 Frc consts  --      3.0189                 1.6310                 4.4388
 IR Inten    --    175.4553                26.2064                 3.3278

                     31                     32                     33
                      A                      A                      A
 Frequencies --   1191.5880              1203.8064              1230.6841
 Red. masses --      1.2914                 1.7265                 2.5086
 Frc consts  --      1.0803                 1.4741                 2.2386
 IR Inten    --      1.2767                79.9035                72.3093

                     34                     35                     36
                      A                      A                      A
 Frequencies --   1246.3671              1247.4730              1269.2267
 Red. masses --      2.7043                 2.6395                 2.4563
 Frc consts  --      2.4751                 2.4201                 2.3314
 IR Inten    --    107.0899               193.5592                10.4658

                     37                     38                     39
                      A                      A                      A
 Frequencies --   1311.9341              1383.7267              1413.6734
 Red. masses --      1.3543                 1.3477                 1.3176
 Frc consts  --      1.3734                 1.5204                 1.5514
 IR Inten    --     23.5398                 7.8108                37.0328

                     40                     41                     42
                      A                      A                      A
 Frequencies --   1426.1876              1441.2387              1492.1633
 Red. masses --      1.2966                 1.2609                 1.0599
 Frc consts  --      1.5539                 1.5431                 1.3905
 IR Inten    --     30.8109                18.3927                 2.9459

                     43                     44                     45
                      A                      A                      A
 Frequencies --   1495.9884              1500.8675              1503.3674
 Red. masses --      1.0529                 1.0899                 1.0871
 Frc consts  --      1.3884                 1.4465                 1.4477
 IR Inten    --     13.9754                 3.6489                 5.9472

                     46                     47                     48
                      A                      A                      A
 Frequencies --   1509.9177              1514.7417              1524.0611
 Red. masses --      1.0593                 1.0542                 1.0555
 Frc consts  --      1.4229                 1.4251                 1.4445
 IR Inten    --      0.6453                 0.2328                 0.5632

                     49                     50                     51
                      A                      A                      A
 Frequencies --   1533.9804              1540.8377              1546.0531
 Red. masses --      1.0522                 1.0534                 1.0653
 Frc consts  --      1.4588                 1.4736                 1.5003
 IR Inten    --      7.2228                 3.7524                16.2157

                     52                     53                     54
                      A                      A                      A
 Frequencies --   1820.4896              3015.7804              3038.7682
 Red. masses --     10.5640                 1.0373                 1.0587
 Frc consts  --     20.6279                 5.5583                 5.7600
 IR Inten    --    134.5059                51.9655                23.3828

                     55                     56                     57
                      A                      A                      A
 Frequencies --   3054.2077              3063.5004              3070.5452
 Red. masses --      1.0441                 1.0545                 1.0779
 Frc consts  --      5.7386                 5.8311                 5.9878
 IR Inten    --      3.6498                 6.7847                50.1842

                     58                     59                     60
                      A                      A                      A
 Frequencies --   3075.6962              3090.6442              3125.9784
 Red. masses --      1.0409                 1.1029                 1.0883
 Frc consts  --      5.8014                 6.2070                 6.2658
 IR Inten    --     14.4575                22.9412                 6.0797

                     61                     62                     63
                      A                      A                      A
 Frequencies --   3131.2192              3139.8218              3142.4490
 Red. masses --      1.1016                 1.0996                 1.0995
 Frc consts  --      6.3636                 6.3868                 6.3971
 IR Inten    --     13.5491                46.0460                18.1594

                     64                     65                     66
                      A                      A                      A
 Frequencies --   3150.1561              3157.1239              3176.3959
 Red. masses --      1.1040                 1.1035                 1.1060
 Frc consts  --      6.4546                 6.4804                 6.5747
 IR Inten    --     15.8786                18.8721                 6.9757

 - Thermochemistry -
 -------------------
 Temperature   298.150 Kelvin.  Pressure   1.00000 Atm.
 Atom     1 has atomic number  6 and mass  12.00000

 Molecular mass:   146.09429 amu.
 Principal axes and moments of inertia in atomic units:
                           1         2         3
     Eigenvalues --   731.841262363.045712532.24861
           X            0.99962   0.02017   0.01895
           Y           -0.01959   0.99935  -0.03029
           Z           -0.01955   0.02991   0.99936
 This molecule is an asymmetric top.
 Rotational symmetry number  1.
 Warning -- assumption of classical behavior for rotation
           may cause significant error
 Rotational temperatures (Kelvin)      0.11835     0.03665     0.03420
 Rotational constants (GHZ):           2.46603     0.76374     0.71270
 Zero-point vibrational energy     544572.6 (Joules/Mol)
                                  130.15598 (Kcal/Mol)
 Warning -- explicit consideration of  19 degrees of freedom as
           vibrations may cause significant error
 Vibrational temperatures:     52.13    89.67   107.19   129.14   184.99
          (Kelvin)            284.91   321.00   332.71   400.89   433.27
                              501.01   513.43   537.94   589.04   639.48
                              703.28   738.14   769.12   866.32  1062.50
                             1122.17  1227.17  1271.67  1320.12  1411.77
                             1459.40  1478.69  1580.39  1603.46  1670.38
                             1714.43  1732.01  1770.68  1793.24  1794.84
                             1826.13  1887.58  1990.87  2033.96  2051.97
                             2073.62  2146.89  2152.39  2159.41  2163.01
                             2172.43  2179.38  2192.78  2207.06  2216.92
                             2224.43  2619.28  4339.04  4372.11  4394.32
                             4407.69  4417.83  4425.24  4446.75  4497.59
                             4505.13  4517.50  4521.28  4532.37  4542.40
                             4570.13

 Zero-point correction=                           0.207417 (Hartree/Particle)
 Thermal correction to Energy=                    0.219745
 Thermal correction to Enthalpy=                  0.220689
 Thermal correction to Gibbs Free Energy=         0.168723
 Sum of electronic and zero-point Energies=           -500.645013
 Sum of electronic and thermal Energies=              -500.632685
 Sum of electronic and thermal Enthalpies=            -500.631741
 Sum of electronic and thermal Free Energies=         -500.683707

                     E (Thermal)             CV                S
                      KCal/Mol        Cal/Mol-Kelvin    Cal/Mol-Kelvin
 Total                  137.892             44.065            109.372
 Electronic               0.000              0.000              0.000
 Translational            0.889              2.981             40.848
 Rotational               0.889              2.981             29.861
 Vibrational            136.115             38.103             38.663
 Vibration     1          0.594              1.982              5.455
 Vibration     2          0.597              1.972              4.382
 Vibration     3          0.599              1.966              4.031
 Vibration     4          0.602              1.956              3.665
 Vibration     5          0.611              1.925              2.967
 Vibration     6          0.637              1.843              2.151
 Vibration     7          0.649              1.806              1.934
 Vibration     8          0.653              1.793              1.869
 Vibration     9          0.679              1.713              1.542
 Vibration    10          0.693              1.672              1.411
 Vibration    11          0.726              1.579              1.174
 Vibration    12          0.732              1.561              1.136
 Vibration    13          0.745              1.526              1.064
 Vibration    14          0.774              1.450              0.929
 Vibration    15          0.804              1.373              0.813
 Vibration    16          0.845              1.275              0.687
 Vibration    17          0.868              1.221              0.626
 Vibration    18          0.890              1.174              0.577
 Vibration    19          0.960              1.027              0.446

                           ! Non-Optimized Parameters !

 1\1\GINC-NODE101\Freq\RB3LYP\6-31G(d)\C7H14O3\VSC10255\08-Dec-2020\0\\
 #N Geom=AllCheck Guess=TCheck SCRF=Check GenChk RB3LYP/6-31G(d) Freq\\
 CID_12623531_JID_954_neutraal\\0,1\C,0.7116651184,0.0629278068,-0.1391
 86721\C,0.3094407412,-1.2346835637,0.5259509404\O,0.1470992625,-1.3489
 696044,1.7256356534\C,0.1799079668,-2.4607996373,-0.387603329\O,-0.305
 6320181,-2.1643480142,-1.6805405829\C,-1.720222458,-2.1919770964,-1.88
 30058086\C,-2.1467791713,-3.6429891893,-2.1234995654\C,-2.5047837646,-
 1.5383916725,-0.7390182266\O,-1.8204809673,-1.3933413286,-3.0516609893

 Normal termination of Gaussian 16 at Tue Dec  8 13:44:14 2020.

 ----------------------------------------------------------------------
 # B3LYP/6-311++G(d,p) empiricaldispersion=gd3bj scf=xqc pop=npa geom=c
 heck
 ----------------------------------------------------------------------

 -------------------------------------
 CID_12623531_JID_954_Energie_neutraal
 -------------------------------------
 Structure from the checkpoint file:  "JID_954.chk"
 Charge =  0 Multiplicity = 1

 SCF Done:  E(RB3LYP) =  -501.005159190     A.U. after   13 cycles
 Normal termination of Gaussian 16 at Tue Dec  8 13:46:42 2020.

 ----------------------------------------------------------------------
 # B3LYP/6-311++G(d,p) empiricaldispersion=gd3bj scf=xqc pop=npa geom=c
 heck
 ----------------------------------------------------------------------

 -----------------------------------
 CID_12623531_JID_954_Energie_kation
 -----------------------------------
 Structure from the checkpoint file:  "JID_954.chk"
 Charge =  1 Multiplicity = 2

 SCF Done:  E(UB3LYP) =  -500.683989125     A.U. after   19 cycles
 Normal termination of Gaussian 16 at Tue Dec  8 13:53:38 2020.
 Gaussian 16:  ES64L-G16RevA.03 25-Dec-2016

 ----------------------------------
 CID_12623531_JID_954_Energie_anion
 ----------------------------------
 Structure from the checkpoint file:  "JID_954.chk"
 Charge = -1 Multiplicity = 2

                         Standard orientation:
 ---------------------------------------------------------------------
 Center     Atomic      Atomic             Coordinates (Angstroms)
 Number     Number       Type             X           Y           Z
 ---------------------------------------------------------------------
      1          6           0       -2.292655   -1.497335   -0.340305
      2          6           0       -2.278179   -0.028034    0.018766
      3          8           0       -3.064007    0.478084    0.796570
      4          6           0       -1.249633    0.845206   -0.712168
      5          8           0       -0.031016    0.186633   -0.988890
      6          6           0        1.001773    0.255588   -0.003287
      7          6           0        1.750138    1.580238   -0.177860
      8          6           0        0.482269    0.066595    1.427033
      9          8           0        1.783509   -0.866377   -0.382378
     10          6           0        3.085953   -0.963531    0.158502
     11          1           0       -2.972656   -2.035256    0.322633
     12          1           0       -1.284888   -1.919608   -0.302895
     13          1           0       -2.634539   -1.608633   -1.378097
     14          1           0       -1.678889    1.102565   -1.690236
     15          1           0       -1.127751    1.780520   -0.153321
     16          1           0        1.058776    2.417937   -0.043100
     17          1           0        2.555916    1.698334    0.552914
     18          1           0        2.165843    1.630518   -1.187975
     19          1           0       -0.036599   -0.891398    1.514303
     20          1           0        1.321750    0.063650    2.128600
     21          1           0       -0.193710    0.869172    1.733777
     22          1           0        3.753816   -0.173653   -0.210537
     23          1           0        3.092071   -0.943303    1.258014
     24          1           0        3.474988   -1.929925   -0.170586
 ---------------------------------------------------------------------

 SCF Done:  E(UB3LYP) =  -500.991927555     A.U. after   31 cycles

 The electronic state is 2-A.
 Alpha  occ. eigenvalues --  -19.02116 -19.01838 -18.99757 -10.17592 -10.13917
 Alpha  occ. eigenvalues --  -10.11538 -10.10347 -10.06174 -10.05831 -10.05545
 Alpha  occ. eigenvalues --   -0.96613  -0.93182  -0.90520  -0.67836  -0.64321
 Alpha  occ. eigenvalues --   -0.60613  -0.59769  -0.57323  -0.47104  -0.42688
 Alpha  occ. eigenvalues --   -0.41494  -0.38873  -0.37269  -0.35595  -0.35169
 Alpha  occ. eigenvalues --   -0.33003  -0.31942  -0.31353  -0.30823  -0.29780
 Alpha  occ. eigenvalues --   -0.29105  -0.28499  -0.27728  -0.25986  -0.24654
 Alpha  occ. eigenvalues --   -0.22683  -0.20945  -0.18962  -0.15574  -0.13040
 Alpha  occ. eigenvalues --    0.04765
 Alpha virt. eigenvalues --    0.06526   0.08093   0.08302   0.08883   0.09937
 Alpha virt. eigenvalues --    0.10410   0.11171   0.11665   0.12171   0.13071
 Alpha virt. eigenvalues --    0.13637   0.14037   0.15062   0.15708   0.16198

  Beta  occ. eigenvalues --  -19.02110 -19.01830 -18.99625 -10.17591 -10.13754
  Beta  occ. eigenvalues --  -10.11533 -10.10298 -10.06169 -10.05801 -10.05507
  Beta  occ. eigenvalues --   -0.96595  -0.92927  -0.90494  -0.67783  -0.64161
  Beta  occ. eigenvalues --   -0.60555  -0.59708  -0.57229  -0.46980  -0.42468
  Beta  occ. eigenvalues --   -0.41458  -0.38797  -0.37161  -0.35458  -0.35016
  Beta  occ. eigenvalues --   -0.32918  -0.31819  -0.31234  -0.30764  -0.29718
  Beta  occ. eigenvalues --   -0.29049  -0.28461  -0.27677  -0.25928  -0.24109
  Beta  occ. eigenvalues --   -0.22586  -0.20902  -0.18913  -0.15541  -0.12948
  Beta virt. eigenvalues --    0.07358   0.08052   0.08678   0.08932   0.09821
  Beta virt. eigenvalues --    0.10563   0.11236   0.11561   0.11856   0.12517
  Beta virt. eigenvalues --    0.13767   0.13954   0.14181   0.15167   0.15966

 Mulliken charges and spin densities:
               1          2
     1  C   -0.049573  -0.442471
     2  C   -0.179118   0.376094
     3  O   -0.293044   0.057608
     4  C    0.348361  -0.587636
     5  O   -0.121186   0.037215
     6  C   -1.997998   1.708864
     7  C    1.218566  -1.626516
     8  C    0.630943  -1.047972
     9  O   -0.160499   0.033057
    10  C    1.452679  -1.663845
    11  H    0.044500   0.095022
    12  H    0.243196  -0.040945
    13  H   -0.210063   0.375608
    14  H   -0.389688   0.578285
    15  H    0.204992  -0.021157
    16  H   -0.102006   0.232471
    17  H   -0.458133   0.626815
    18  H   -0.104853   0.309479
    19  H    0.073378   0.105296
    20  H   -0.120057   0.294601
    21  H    0.142312   0.006645
    22  H   -0.557799   0.704997
    23  H   -0.510495   0.640747
    24  H   -0.104416   0.247738
 Sum of Mulliken charges =  -1.00000   1.00000

 Dipole moment (field-independent basis, Debye):
    X=             -3.2398    Y=             -1.1556    Z=              0.1434  Tot=              3.4427
 Quadrupole moment (field-independent basis, Debye-Ang):
   XX=           -133.7356   YY=            -89.2455   ZZ=            -96.2190
   XY=             -0.3029   XZ=             -5.8285   YZ=             -0.8478

 Summary of Natural Population Analysis:

                                       Natural Population
                Natural  -----------------------------------------------
    Atom  No    Charge         Core      Valence    Rydberg      Total
 -----------------------------------------------------------------------
      C    1   -0.34180      0.99961     2.33658    0.00561     3.34180
      C    2    0.29776      0.99970     1.68116    0.02138     2.70224
      O    3   -0.28318      0.99987     3.27673    0.00657     4.28318
      C    4   -0.05929      0.99952     2.04588    0.01389     3.05929
      O    5   -0.30335      0.99986     3.29308    0.01041     4.30335
      C    6    0.30098      0.99952     1.67853    0.02097     2.69902
      C    7   -0.31282      0.99960     2.30630    0.00692     3.31282
      C    8   -0.31748      0.99960     2.31139    0.00649     3.31748
      O    9   -0.30285      0.99986     3.29248    0.01052     4.30285
      C   10   -0.10031      0.99960     2.09122    0.00949     3.10031
      H   11    0.10426      0.00000     0.39483    0.00091     0.39574
      H   12    0.11646      0.00000     0.38213    0.00141     0.38354
      H   13    0.11377      0.00000     0.38432    0.00191     0.38623
      H   14    0.10512      0.00000     0.39227    0.00261     0.39488
      H   15    0.09096      0.00000     0.40771    0.00133     0.40904
      H   16    0.10271      0.00000     0.39612    0.00116     0.39729
      H   17    0.10578      0.00000     0.39228    0.00194     0.39422
      H   18    0.10839      0.00000     0.39026    0.00135     0.39161
      H   19    0.10587      0.00000     0.39301    0.00111     0.39413
      H   20    0.10897      0.00000     0.38986    0.00117     0.39103
      H   21    0.10560      0.00000     0.39346    0.00094     0.39440
      H   22    0.08309      0.00000     0.41475    0.00216     0.41691
      H   23    0.08077      0.00000     0.41685    0.00238     0.41923
      H   24    0.09058      0.00000     0.40832    0.00110     0.40942
 =======================================================================
   * Total *   -0.00000      9.99672    29.86952    0.13375    40.00000

 Normal termination of Gaussian 16 at Tue Dec  8 14:04:33 2020.
