 Gaussian 16, Revision A.03,

 -----------------------------------------------------------
 # opt freq B3LYP/6-31G(d) empiricaldispersion=gd3bj scf=xqc
 -----------------------------------------------------------

 -------------------------------
 CID_114139936_JID_7875_neutraal
 -------------------------------
 Symbolic Z-matrix:
 Charge =  0 Multiplicity = 1

 SCF Done:  E(RB3LYP) =  -744.924460304     A.U. after   14 cycles
 SCF Done:  E(RB3LYP) =  -744.932408115     A.U. after   12 cycles
 SCF Done:  E(RB3LYP) =  -744.934971848     A.U. after   12 cycles
 SCF Done:  E(RB3LYP) =  -744.937206817     A.U. after   12 cycles
 SCF Done:  E(RB3LYP) =  -744.938331985     A.U. after   12 cycles
 SCF Done:  E(RB3LYP) =  -744.938705722     A.U. after   12 cycles
 SCF Done:  E(RB3LYP) =  -744.939042484     A.U. after   11 cycles
 SCF Done:  E(RB3LYP) =  -744.939184803     A.U. after   11 cycles
 SCF Done:  E(RB3LYP) =  -744.939261000     A.U. after   11 cycles
 SCF Done:  E(RB3LYP) =  -744.939326582     A.U. after   11 cycles
 SCF Done:  E(RB3LYP) =  -744.943824998     A.U. after   10 cycles
 SCF Done:  E(RB3LYP) =  -744.943841883     A.U. after   10 cycles
 SCF Done:  E(RB3LYP) =  -744.943845511     A.U. after    8 cycles
 SCF Done:  E(RB3LYP) =  -744.943846216     A.U. after    8 cycles
 SCF Done:  E(RB3LYP) =  -744.943846296     A.U. after    7 cycles
 Optimization completed.
    -- Stationary point found.
 Normal termination of Gaussian 16 at Sun Dec 13 20:36:59 2020.

 --------------------------------------------------------------------
 #N Geom=AllCheck Guess=TCheck SCRF=Check GenChk RB3LYP/6-31G(d) Freq
 --------------------------------------------------------------------

 Structure from the checkpoint file:  "JID_7875.chk"
 -------------------------------
 CID_114139936_JID_7875_neutraal
 -------------------------------
 Charge =  0 Multiplicity = 1

 SCF Done:  E(RB3LYP) =  -744.943846296     A.U. after    1 cycles

  Exact polarizability: 185.189  17.442 186.821  16.319  -6.747 116.973
 Approx polarizability: 248.502  29.997 288.562  34.066 -15.551 181.175

                      1                      2                      3
                      A                      A                      A
 Frequencies --     22.9596                27.2900                48.2437
 Red. masses --      3.5704                 4.7455                 3.8471
 Frc consts  --      0.0011                 0.0021                 0.0053
 IR Inten    --      0.3022                 0.3499                 0.9327

                      4                      5                      6
                      A                      A                      A
 Frequencies --     58.0045                91.4675                94.2031
 Red. masses --      2.9609                 3.0297                 3.2624
 Frc consts  --      0.0059                 0.0149                 0.0171
 IR Inten    --      0.2415                 1.9812                 5.8091

                      7                      8                      9
                      A                      A                      A
 Frequencies --    127.0779               148.4916               176.6921
 Red. masses --      3.0595                 1.8469                 2.1446
 Frc consts  --      0.0291                 0.0240                 0.0394
 IR Inten    --      0.7351                 1.2357                 2.9303

                     10                     11                     12
                      A                      A                      A
 Frequencies --    188.7756               211.1038               238.0289
 Red. masses --      2.6276                 2.6192                 2.0717
 Frc consts  --      0.0552                 0.0688                 0.0692
 IR Inten    --      0.2388                 2.5779                 1.7007

                     13                     14                     15
                      A                      A                      A
 Frequencies --    240.8364               250.0362               256.2084
 Red. masses --      1.1984                 1.3249                 4.3519
 Frc consts  --      0.0410                 0.0488                 0.1683
 IR Inten    --      0.2002                 0.4352                 4.5788

                     16                     17                     18
                      A                      A                      A
 Frequencies --    271.2050               276.4989               302.9672
 Red. masses --      2.4242                 1.2229                 1.5987
 Frc consts  --      0.1051                 0.0551                 0.0865
 IR Inten    --      3.6859                 0.1565                 0.7383

                     19                     20                     21
                      A                      A                      A
 Frequencies --    352.0158               379.2572               391.0740
 Red. masses --      2.1146                 2.0021                 1.6166
 Frc consts  --      0.1544                 0.1697                 0.1457
 IR Inten    --      0.2210                11.0672                36.4815

                     22                     23                     24
                      A                      A                      A
 Frequencies --    418.3190               424.8501               448.9416
 Red. masses --      2.0118                 1.5667                 1.9066
 Frc consts  --      0.2074                 0.1666                 0.2264
 IR Inten    --     71.4982                87.7365                 2.1616

                     25                     26                     27
                      A                      A                      A
 Frequencies --    466.1996               498.8234               502.1208
 Red. masses --      2.5444                 3.2197                 4.4422
 Frc consts  --      0.3258                 0.4720                 0.6599
 IR Inten    --     18.2209                 5.6592                50.1593

                     28                     29                     30
                      A                      A                      A
 Frequencies --    516.8672               557.9423               612.2203
 Red. masses --      3.3243                 2.7163                 3.1588
 Frc consts  --      0.5233                 0.4982                 0.6976
 IR Inten    --      0.5410                 6.9775                10.9852

                     31                     32                     33
                      A                      A                      A
 Frequencies --    633.5114               685.7126               723.6348
 Red. masses --      5.7708                 5.0307                 2.4950
 Frc consts  --      1.3646                 1.3937                 0.7698
 IR Inten    --      6.0523                 3.6611                 2.6824

                     34                     35                     36
                      A                      A                      A
 Frequencies --    752.2387               762.8916               809.6053
 Red. masses --      4.3482                 2.0477                 1.9500
 Frc consts  --      1.4497                 0.7022                 0.7531
 IR Inten    --      3.4988                 0.8646                35.6054

                     37                     38                     39
                      A                      A                      A
 Frequencies --    829.2531               851.2828               889.8809
 Red. masses --      2.3208                 1.4599                 2.7209
 Frc consts  --      0.9403                 0.6233                 1.2695
 IR Inten    --      1.2885                 0.2068                 6.6488

                     40                     41                     42
                      A                      A                      A
 Frequencies --    903.5693               918.7414               939.1924
 Red. masses --      1.9106                 1.9273                 1.3349
 Frc consts  --      0.9191                 0.9585                 0.6938
 IR Inten    --      6.5878                 1.5344                 0.4267

                     43                     44                     45
                      A                      A                      A
 Frequencies --    962.8191              1005.6296              1013.6770
 Red. masses --      1.2923                 4.1436                 4.6120
 Frc consts  --      0.7059                 2.4689                 2.7922
 IR Inten    --      0.1927                 5.4987                 7.4640

                     46                     47                     48
                      A                      A                      A
 Frequencies --   1030.8200              1051.2623              1099.1883
 Red. masses --      1.9968                 2.9617                 2.1996
 Frc consts  --      1.2501                 1.9285                 1.5658
 IR Inten    --     16.4132                 7.1520                 5.3385

                     49                     50                     51
                      A                      A                      A
 Frequencies --   1117.8318              1126.6205              1137.9818
 Red. masses --      2.1259                 1.9352                 2.2953
 Frc consts  --      1.5651                 1.4472                 1.7513
 IR Inten    --     21.2894                21.1010                16.4473

                     52                     53                     54
                      A                      A                      A
 Frequencies --   1145.6964              1165.9579              1171.1707
 Red. masses --      1.6887                 1.3102                 1.4561
 Frc consts  --      1.3060                 1.0495                 1.1768
 IR Inten    --     22.9564                 4.2771                 8.4541

                     55                     56                     57
                      A                      A                      A
 Frequencies --   1180.2521              1205.1361              1223.6165
 Red. masses --      1.9360                 2.1553                 2.0523
 Frc consts  --      1.5890                 1.8443                 1.8104
 IR Inten    --     12.7137                 0.7412                35.6737

                     58                     59                     60
                      A                      A                      A
 Frequencies --   1228.7278              1251.5816              1274.9181
 Red. masses --      2.0151                 1.3717                 2.6264
 Frc consts  --      1.7925                 1.2660                 2.5153
 IR Inten    --     27.9521                11.2531               161.0200

                     61                     62                     63
                      A                      A                      A
 Frequencies --   1290.8629              1303.6983              1332.2754
 Red. masses --      1.7697                 1.5918                 1.8745
 Frc consts  --      1.7374                 1.5940                 1.9603
 IR Inten    --     37.1182                31.9815                68.8482

                     64                     65                     66
                      A                      A                      A
 Frequencies --   1369.7589              1380.9451              1388.9240
 Red. masses --      1.3628                 1.3239                 1.6656
 Frc consts  --      1.5065                 1.4875                 1.8931
 IR Inten    --     10.5099                22.1198                43.0991

                     67                     68                     69
                      A                      A                      A
 Frequencies --   1395.7533              1414.8593              1424.5766
 Red. masses --      1.3714                 1.4462                 1.2574
 Frc consts  --      1.5740                 1.7057                 1.5035
 IR Inten    --     15.9818                19.5207                 7.4609

                     70                     71                     72
                      A                      A                      A
 Frequencies --   1427.3786              1432.7033              1434.9640
 Red. masses --      1.3063                 1.3418                 1.6610
 Frc consts  --      1.5681                 1.6227                 2.0151
 IR Inten    --     12.1610                27.6047                 0.2224

                     73                     74                     75
                      A                      A                      A
 Frequencies --   1449.0036              1470.4505              1484.1664
 Red. masses --      1.2685                 1.7820                 1.1422
 Frc consts  --      1.5692                 2.2701                 1.4824
 IR Inten    --     10.9523                84.4176                 2.7170

                     76                     77                     78
                      A                      A                      A
 Frequencies --   1498.6816              1507.5386              1512.4521
 Red. masses --      1.3865                 1.0768                 1.0689
 Frc consts  --      1.8348                 1.4419                 1.4406
 IR Inten    --      0.6926                15.7875                 6.5958

                     79                     80                     81
                      A                      A                      A
 Frequencies --   1513.5646              1514.3917              1515.4522
 Red. masses --      1.0622                 1.0904                 1.0950
 Frc consts  --      1.4336                 1.4734                 1.4816
 IR Inten    --     16.9583                10.6719                 7.1442

                     82                     83                     84
                      A                      A                      A
 Frequencies --   1525.3904              1531.0813              1541.3641
 Red. masses --      1.0627                 1.0594                 1.0618
 Frc consts  --      1.4569                 1.4632                 1.4863
 IR Inten    --      7.9788                 2.8145                15.5964

                     85                     86                     87
                      A                      A                      A
 Frequencies --   1548.7274              1551.6634              1554.0898
 Red. masses --      1.0921                 1.0536                 1.0582
 Frc consts  --      1.5433                 1.4945                 1.5058
 IR Inten    --     25.8432                 3.1464                 2.2608

                     88                     89                     90
                      A                      A                      A
 Frequencies --   1567.8314              1584.9296              1614.5735
 Red. masses --      2.3189                 2.4741                 6.4398
 Frc consts  --      3.3584                 3.6618                 9.8910
 IR Inten    --    259.6964                61.5475               354.7168

                     91                     92                     93
                      A                      A                      A
 Frequencies --   1643.8504              2947.7301              3013.3552
 Red. masses --      4.0522                 1.0615                 1.0496
 Frc consts  --      6.4516                 5.4341                 5.6153
 IR Inten    --    169.5079                76.2731                66.8060

                     94                     95                     96
                      A                      A                      A
 Frequencies --   3014.4697              3026.6280              3038.5713
 Red. masses --      1.0841                 1.0723                 1.0734
 Frc consts  --      5.8039                 5.7877                 5.8390
 IR Inten    --     40.3566                 8.5562                84.0541

                     97                     98                     99
                      A                      A                      A
 Frequencies --   3047.0059              3047.9058              3053.4826
 Red. masses --      1.0482                 1.0563                 1.0397
 Frc consts  --      5.7336                 5.7813                 5.7117
 IR Inten    --     52.1657                26.2544                14.0895

                    100                    101                    102
                      A                      A                      A
 Frequencies --   3057.2440              3083.1134              3094.2151
 Red. masses --      1.0687                 1.0910                 1.0928
 Frc consts  --      5.8853                 6.1099                 6.1643
 IR Inten    --     60.2990                38.3827                38.5494

                    103                    104                    105
                      A                      A                      A
 Frequencies --   3103.8604              3111.4816              3116.9030
 Red. masses --      1.1031                 1.1002                 1.1008
 Frc consts  --      6.2613                 6.2756                 6.3011
 IR Inten    --     34.4764                13.9234                42.6147

                    106                    107                    108
                      A                      A                      A
 Frequencies --   3129.4031              3131.4592              3136.9815
 Red. masses --      1.0987                 1.0994                 1.0968
 Frc consts  --      6.3396                 6.3519                 6.3593
 IR Inten    --     23.5362                27.7709                19.4970

                    109                    110                    111
                      A                      A                      A
 Frequencies --   3146.3642              3149.1761              3159.5087
 Red. masses --      1.0991                 1.0913                 1.0899
 Frc consts  --      6.4106                 6.3766                 6.4102
 IR Inten    --     20.3537                 4.9006                29.5768

                    112                    113                    114
                      A                      A                      A
 Frequencies --   3207.9765              3616.2607              3622.9741
 Red. masses --      1.0905                 1.0762                 1.0760
 Frc consts  --      6.6120                 8.2918                 8.3215
 IR Inten    --     19.8194                30.3616                24.8683

 - Thermochemistry -
 -------------------
 Temperature   298.150 Kelvin.  Pressure   1.00000 Atm.
 Atom     1 has atomic number  6 and mass  12.00000

 Molecular mass:   237.19535 amu.
 Principal axes and moments of inertia in atomic units:
                           1         2         3
     Eigenvalues --  2722.122636138.148527789.01438
           X            0.99976   0.02144   0.00341
           Y           -0.02144   0.99977  -0.00155
           Z           -0.00344   0.00148   0.99999
 This molecule is an asymmetric top.
 Rotational symmetry number  1.
 Warning -- assumption of classical behavior for rotation
           may cause significant error
 Rotational temperatures (Kelvin)      0.03182     0.01411     0.01112
 Rotational constants (GHZ):           0.66299     0.29402     0.23170
 Zero-point vibrational energy     935917.0 (Joules/Mol)
                                  223.68952 (Kcal/Mol)
 Warning -- explicit consideration of  30 degrees of freedom as
           vibrations may cause significant error
 Vibrational temperatures:     33.03    39.26    69.41    83.46   131.60
          (Kelvin)            135.54   182.84   213.65   254.22   271.61
                              303.73   342.47   346.51   359.75   368.63
                              390.20   397.82   435.90   506.47   545.67
                              562.67   601.87   611.26   645.93   670.76
                              717.70   722.44   743.66   802.75   880.85
                              911.48   986.59  1041.15  1082.30  1097.63
                             1164.84  1193.11  1224.81  1280.34  1300.03
                             1321.86  1351.29  1385.28  1446.88  1458.46
                             1483.12  1512.53  1581.49  1608.31  1620.96
                             1637.30  1648.40  1677.55  1685.05  1698.12
                             1733.92  1760.51  1767.87  1800.75  1834.32
                             1857.26  1875.73  1916.85  1970.78  1986.87
                             1998.35  2008.18  2035.67  2049.65  2053.68
                             2061.34  2064.59  2084.79  2115.65  2135.38
                             2156.27  2169.01  2176.08  2177.68  2178.87
                             2180.40  2194.70  2202.88  2217.68  2228.27
                             2232.50  2235.99  2255.76  2280.36  2323.01
                             2365.13  4241.13  4335.55  4337.15  4354.64
                             4371.83  4383.96  4385.26  4393.28  4398.69
                             4435.91  4451.89  4465.76  4476.73  4484.53
                             4502.51  4505.47  4513.42  4526.92  4530.96
                             4545.83  4615.56  5202.99  5212.65

 Zero-point correction=                           0.356472 (Hartree/Particle)
 Thermal correction to Energy=                    0.375237
 Thermal correction to Enthalpy=                  0.376181
 Thermal correction to Gibbs Free Energy=         0.308776
 Sum of electronic and zero-point Energies=           -744.587374
 Sum of electronic and thermal Energies=              -744.568609
 Sum of electronic and thermal Enthalpies=            -744.567665
 Sum of electronic and thermal Free Energies=         -744.635070

                     E (Thermal)             CV                S
                      KCal/Mol        Cal/Mol-Kelvin    Cal/Mol-Kelvin
 Total                  235.465             70.448            141.865
 Electronic               0.000              0.000              0.000
 Translational            0.889              2.981             42.293
 Rotational               0.889              2.981             33.231
 Vibrational            233.687             64.487             66.342
 Vibration     1          0.593              1.985              6.360
 Vibration     2          0.593              1.984              6.017
 Vibration     3          0.595              1.978              4.888
 Vibration     4          0.596              1.974              4.524
 Vibration     5          0.602              1.955              3.628
 Vibration     6          0.603              1.953              3.571
 Vibration     7          0.611              1.926              2.990
 Vibration     8          0.618              1.904              2.691
 Vibration     9          0.628              1.871              2.363
 Vibration    10          0.633              1.855              2.240
 Vibration    11          0.643              1.824              2.034
 Vibration    12          0.656              1.782              1.818
 Vibration    13          0.658              1.778              1.797
 Vibration    14          0.663              1.763              1.730
 Vibration    15          0.666              1.752              1.687
 Vibration    16          0.675              1.726              1.589
 Vibration    17          0.678              1.717              1.555
 Vibration    18          0.694              1.668              1.400
 Vibration    19          0.729              1.571              1.157
 Vibration    20          0.749              1.514              1.042
 Vibration    21          0.759              1.489              0.996
 Vibration    22          0.781              1.430              0.898
 Vibration    23          0.787              1.416              0.876
 Vibration    24          0.808              1.363              0.799
 Vibration    25          0.824              1.325              0.748
 Vibration    26          0.854              1.253              0.661
 Vibration    27          0.857              1.245              0.653
 Vibration    28          0.872              1.213              0.617
 Vibration    29          0.913              1.122              0.528
 Vibration    30          0.971              1.006              0.429

                           ! Non-Optimized Parameters !
 Normal termination of Gaussian 16 at Sun Dec 13 20:53:21 2020.

 ----------------------------------------------------------------------
 # B3LYP/6-311++G(d,p) empiricaldispersion=gd3bj scf=xqc pop=npa geom=c
 heck
 ----------------------------------------------------------------------

 ---------------------------------------
 CID_114139936_JID_7875_Energie_neutraal
 ---------------------------------------
 Structure from the checkpoint file:  "JID_7875.chk"
 Charge =  0 Multiplicity = 1

 SCF Done:  E(RB3LYP) =  -745.151800942     A.U. after   14 cycles
 Normal termination of Gaussian 16 at Sun Dec 13 21:01:49 2020.

 ----------------------------------------------------------------------
 # B3LYP/6-311++G(d,p) empiricaldispersion=gd3bj scf=xqc pop=npa geom=c
 heck
 ----------------------------------------------------------------------

 -------------------------------------
 CID_114139936_JID_7875_Energie_kation
 -------------------------------------
 Structure from the checkpoint file:  "JID_7875.chk"
 Charge =  1 Multiplicity = 2

 SCF Done:  E(UB3LYP) =  -744.897317092     A.U. after   22 cycles
 Normal termination of Gaussian 16 at Sun Dec 13 21:20:14 2020.
 Gaussian 16:  ES64L-G16RevA.03 25-Dec-2016

 ----------------------------------------------------------------------
 # B3LYP/6-311++G(d,p) empiricaldispersion=gd3bj scf=xqc pop=npa geom=c
 heck
 ----------------------------------------------------------------------

 ------------------------------------
 CID_114139936_JID_7875_Energie_anion
 ------------------------------------
 Structure from the checkpoint file:  "JID_7875.chk"
 Charge = -1 Multiplicity = 2

                         Standard orientation:
 ---------------------------------------------------------------------
 Center     Atomic      Atomic             Coordinates (Angstroms)
 Number     Number       Type             X           Y           Z
 ---------------------------------------------------------------------
      1          6           0       -1.201443    2.110831    0.253694
      2          6           0       -2.615951    1.541676    0.107828
      3          6           0       -2.967997    1.343704   -1.381145
      4          7           0       -2.811286    0.377262    0.980213
      5          6           0       -4.196743   -0.013192    1.146289
      6          6           0       -1.897274   -0.754122    0.866495
      7          6           0       -2.075214   -1.717768   -0.346212
      8          6           0       -0.862450   -1.768930   -1.285232
      9          7           0        0.339679   -2.275603   -0.642702
     10          6           0        1.401406   -1.509360   -0.241567
     11          7           0        1.416241   -0.210522   -0.560615
     12          6           0        2.481492    0.512228   -0.166681
     13          6           0        3.531748   -0.069896    0.569654
     14          7           0        3.504849   -1.369221    0.884603
     15          6           0        2.467134   -2.092007    0.489668
     16          7           0        2.477376    1.832960   -0.539832
     17          6           0        3.361913    2.813106    0.055519
     18          1           0       -0.455571    1.445987   -0.193188
     19          1           0       -0.950406    2.248627    1.310358
     20          1           0       -1.138765    3.082703   -0.249926
     21          1           0       -3.313076    2.296030    0.500373
     22          1           0       -2.239989    0.700161   -1.885113
     23          1           0       -3.961769    0.900679   -1.506716
     24          1           0       -2.968224    2.309439   -1.900446
     25          1           0       -4.661637   -0.487411    0.261517
     26          1           0       -4.274394   -0.726076    1.976273
     27          1           0       -4.797790    0.868003    1.399220
     28          1           0       -0.875320   -0.368967    0.872975
     29          1           0       -2.007223   -1.330892    1.793488
     30          1           0       -2.278319   -2.736520    0.012167
     31          1           0       -2.954371   -1.429916   -0.933134
     32          1           0       -1.090636   -2.400062   -2.154454
     33          1           0       -0.616309   -0.773817   -1.659435
     34          1           0        0.312767   -3.220198   -0.286540
     35          1           0        4.388764    0.505762    0.902635
     36          1           0        2.453664   -3.149228    0.750182
     37          1           0        1.579730    2.155098   -0.874480
     38          1           0        4.406024    2.596967   -0.198133
     39          1           0        3.117193    3.796748   -0.351278
     40          1           0        3.277924    2.855129    1.152141
 ---------------------------------------------------------------------

 SCF Done:  E(UB3LYP) =  -745.141041001     A.U. after   33 cycles
 SCF Done:  E(UB3LYP) =  -745.141041001     a.u. after    1 cycles

 The electronic state is 2-A.
 Alpha  occ. eigenvalues --  -14.23626 -14.23470 -14.21745 -14.20482 -14.20283
 Alpha  occ. eigenvalues --  -10.15169 -10.14922 -10.11393 -10.10564 -10.10485
 Alpha  occ. eigenvalues --  -10.09436 -10.09176 -10.09113 -10.09000 -10.06829
 Alpha  occ. eigenvalues --  -10.06289 -10.05781  -0.89722  -0.85098  -0.82969
 Alpha  occ. eigenvalues --   -0.82461  -0.78128  -0.68854  -0.67516  -0.64758
 Alpha  occ. eigenvalues --   -0.61182  -0.60465  -0.58925  -0.56309  -0.54522
 Alpha  occ. eigenvalues --   -0.52993  -0.50761  -0.46407  -0.45077  -0.43156
 Alpha  occ. eigenvalues --   -0.40336  -0.39864  -0.39665  -0.38055  -0.36669
 Alpha  occ. eigenvalues --   -0.36110  -0.35601  -0.35042  -0.34497  -0.33333
 Alpha  occ. eigenvalues --   -0.32555  -0.31455  -0.31041  -0.30307  -0.29990
 Alpha  occ. eigenvalues --   -0.29383  -0.28885  -0.27144  -0.26897  -0.26148
 Alpha  occ. eigenvalues --   -0.24651  -0.23937  -0.23891  -0.23211  -0.23164
 Alpha  occ. eigenvalues --   -0.20178  -0.15333  -0.14709  -0.11165  -0.10423
 Alpha  occ. eigenvalues --    0.03953
 Alpha virt. eigenvalues --    0.05346   0.05815   0.06288   0.07293   0.07648
 Alpha virt. eigenvalues --    0.08284   0.09147   0.09298   0.09703   0.09754
 Alpha virt. eigenvalues --    0.10285   0.10558   0.11301   0.11450   0.12100

  Beta  occ. eigenvalues --  -14.23616 -14.23450 -14.21665 -14.20435 -14.20284
  Beta  occ. eigenvalues --  -10.15154 -10.14917 -10.11362 -10.10553 -10.10477
  Beta  occ. eigenvalues --  -10.09432 -10.09154 -10.09105 -10.08985 -10.06804
  Beta  occ. eigenvalues --  -10.06270 -10.05762  -0.89662  -0.85067  -0.82889
  Beta  occ. eigenvalues --   -0.82443  -0.78049  -0.68820  -0.67485  -0.64712
  Beta  occ. eigenvalues --   -0.61132  -0.60425  -0.58883  -0.56249  -0.54467
  Beta  occ. eigenvalues --   -0.52939  -0.50705  -0.46365  -0.45035  -0.43112
  Beta  occ. eigenvalues --   -0.40297  -0.39825  -0.39627  -0.38017  -0.36636
  Beta  occ. eigenvalues --   -0.36055  -0.35547  -0.35007  -0.34455  -0.33300
  Beta  occ. eigenvalues --   -0.32468  -0.31415  -0.31005  -0.30258  -0.29957
  Beta  occ. eigenvalues --   -0.29359  -0.28859  -0.27117  -0.26857  -0.26120
  Beta  occ. eigenvalues --   -0.24620  -0.23896  -0.23703  -0.23132  -0.23079
  Beta  occ. eigenvalues --   -0.20098  -0.15246  -0.14605  -0.11142  -0.10349
  Beta virt. eigenvalues --    0.05990   0.06237   0.06475   0.06973   0.07636
  Beta virt. eigenvalues --    0.08111   0.08718   0.09446   0.09555   0.09892
  Beta virt. eigenvalues --    0.09992   0.10375   0.10770   0.11416   0.11757

 Mulliken charges and spin densities:
               1          2
     1  C   -0.743867   0.036396
     2  C   -0.205805   0.301519
     3  C    0.082962  -0.691865
     4  N    0.097694   0.072804
     5  C    0.312796  -0.580200
     6  C   -0.261670  -0.162248
     7  C    0.465953  -0.762657
     8  C   -0.299939  -0.045472
     9  N   -0.012405  -0.014188
    10  C   -0.091675  -0.074174
    11  N   -0.140748   0.023683
    12  C    0.155532  -0.130590
    13  C   -0.421128   0.083714
    14  N   -0.062180   0.032937
    15  C   -0.173221  -0.084465
    16  N   -0.127451   0.036396
    17  C    0.685429  -1.064314
    18  H    0.622723  -0.551896
    19  H    0.061105   0.106110
    20  H   -0.235907   0.378302
    21  H    0.009992   0.164235
    22  H   -0.012361   0.151949
    23  H   -0.078923   0.219110
    24  H   -0.021254   0.149339
    25  H   -0.117698   0.232838
    26  H   -0.022715   0.158623
    27  H   -0.067399   0.192757
    28  H    0.169956   0.041317
    29  H    0.166299  -0.014683
    30  H   -0.362216   0.553810
    31  H    0.219245  -0.112080
    32  H   -0.499989   0.683688
    33  H    0.243495  -0.005095
    34  H   -0.003214   0.273251
    35  H    0.101650   0.053626
    36  H   -0.108652   0.259698
    37  H    0.193868   0.118489
    38  H   -0.117626   0.273278
    39  H   -0.439101   0.578205
    40  H    0.038445   0.117851
 Sum of Mulliken charges =  -1.00000   1.00000

 Dipole moment (field-independent basis, Debye):
    X=             -0.0565    Y=              0.4391    Z=              0.6311  Tot=              0.7709
 Quadrupole moment (field-independent basis, Debye-Ang):
   XX=           -182.2627   YY=           -171.5171   ZZ=           -138.2887
   XY=             -5.1421   XZ=             -2.4633   YZ=              0.5905

 Summary of Natural Population Analysis:

                                       Natural Population
                Natural  -----------------------------------------------
    Atom  No    Charge         Core      Valence    Rydberg      Total
 -----------------------------------------------------------------------
      C    1   -0.29851      0.99964     2.29118    0.00769     3.29851
      C    2   -0.00176      0.99960     1.98935    0.01281     3.00176
      C    3   -0.29750      0.99964     2.29229    0.00557     3.29750
      N    4   -0.28018      0.99972     2.76800    0.01247     3.78018
      C    5   -0.17679      0.99964     2.16879    0.00836     3.17679
      C    6   -0.08914      0.99960     2.07732    0.01222     3.08914
      C    7   -0.20963      0.99962     2.20091    0.00910     3.20963
      C    8   -0.08976      0.99961     2.07878    0.01137     3.08976
      N    9   -0.30509      0.99967     2.79442    0.01100     3.80509
      C   10    0.19801      0.99954     1.78807    0.01438     2.80199
      N   11   -0.27590      0.99964     2.76744    0.00882     3.77590
      C   12    0.19523      0.99954     1.78998    0.01524     2.80477
      C   13   -0.05291      0.99956     2.04062    0.01274     3.05291
      N   14   -0.19408      0.99971     2.68339    0.01097     3.69408
      C   15   -0.03573      0.99956     2.02193    0.01423     3.03573
      N   16   -0.30852      0.99968     2.79890    0.00995     3.80852
      C   17   -0.17972      0.99966     2.17163    0.00843     3.17972
      H   18    0.10451      0.00000     0.39320    0.00229     0.39549
      H   19    0.10225      0.00000     0.39650    0.00125     0.39775
      H   20    0.09908      0.00000     0.39995    0.00097     0.40092
      H   21    0.08954      0.00000     0.40916    0.00129     0.41046
      H   22    0.09611      0.00000     0.40257    0.00132     0.40389
      H   23    0.09941      0.00000     0.39973    0.00086     0.40059
      H   24    0.09925      0.00000     0.39978    0.00098     0.40075
      H   25    0.07991      0.00000     0.41859    0.00150     0.42009
      H   26    0.09396      0.00000     0.40515    0.00089     0.40604
      H   27    0.09308      0.00000     0.40589    0.00104     0.40692
      H   28    0.10296      0.00000     0.39505    0.00198     0.39704
      H   29    0.09274      0.00000     0.40621    0.00106     0.40726
      H   30    0.09654      0.00000     0.40158    0.00188     0.40346
      H   31    0.10252      0.00000     0.39602    0.00146     0.39748
      H   32    0.09431      0.00000     0.40437    0.00132     0.40569
      H   33    0.10688      0.00000     0.39074    0.00238     0.39312
      H   34    0.19054      0.00000     0.30619    0.00327     0.30946
      H   35    0.09186      0.00000     0.40647    0.00167     0.40814
      H   36    0.08867      0.00000     0.40984    0.00148     0.41133
      H   37    0.19381      0.00000     0.30308    0.00311     0.30619
      H   38    0.09377      0.00000     0.40485    0.00139     0.40623
      H   39    0.10202      0.00000     0.39664    0.00134     0.39798
      H   40    0.08829      0.00000     0.41036    0.00135     0.41171
 =======================================================================
   * Total *   -0.00000     16.99361    47.78495    0.22143    65.00000

 Normal termination of Gaussian 16 at Sun Dec 13 21:46:35 2020.
