 Gaussian 16, Revision A.03,

 -----------------------------------------------------------
 # opt freq B3LYP/6-31G(d) empiricaldispersion=gd3bj scf=xqc
 -----------------------------------------------------------

 -------------------------------
 CID_151823966_JID_1191_neutraal
 -------------------------------
 Symbolic Z-matrix:
 Charge =  0 Multiplicity = 1

 SCF Done:  E(RB3LYP) =  -849.411633992     A.U. after   16 cycles
 SCF Done:  E(RB3LYP) =  -849.414706520     A.U. after   15 cycles
 SCF Done:  E(RB3LYP) =  -849.415572828     A.U. after   14 cycles
 SCF Done:  E(RB3LYP) =  -849.415932475     A.U. after   12 cycles
 SCF Done:  E(RB3LYP) =  -849.415950559     A.U. after   12 cycles
 SCF Done:  E(RB3LYP) =  -849.415979395     A.U. after   12 cycles
 SCF Done:  E(RB3LYP) =  -849.416025860     A.U. after   12 cycles
 SCF Done:  E(RB3LYP) =  -849.416121241     A.U. after   16 cycles
 SCF Done:  E(RB3LYP) =  -849.416348809     A.U. after   13 cycles
 SCF Done:  E(RB3LYP) =  -849.416371959     A.U. after   12 cycles
 SCF Done:  E(RB3LYP) =  -849.416413855     A.U. after   13 cycles
 SCF Done:  E(RB3LYP) =  -849.416423241     A.U. after   12 cycles
 SCF Done:  E(RB3LYP) =  -849.416425490     A.U. after   11 cycles
 SCF Done:  E(RB3LYP) =  -849.416425581     A.U. after    9 cycles
 SCF Done:  E(RB3LYP) =  -849.416425620     A.U. after    8 cycles
 Optimization completed.
    -- Stationary point found.
 Normal termination of Gaussian 16 at Tue Dec  8 19:15:14 2020.

 --------------------------------------------------------------------
 #N Geom=AllCheck Guess=TCheck SCRF=Check GenChk RB3LYP/6-31G(d) Freq
 --------------------------------------------------------------------

 Structure from the checkpoint file:  "JID_1191.chk"
 -------------------------------
 CID_151823966_JID_1191_neutraal
 -------------------------------
 Charge =  0 Multiplicity = 1

 SCF Done:  E(RB3LYP) =  -849.416425620     A.U. after    1 cycles

  Exact polarizability: 177.901  11.154  97.483  -1.468   2.372  55.596
 Approx polarizability: 266.960  39.421 192.757  -7.287   6.547  84.782

                      1                      2                      3
                      A                      A                      A
 Frequencies --     21.0878                64.3160               109.3566
 Red. masses --      3.6377                 6.1024                 5.7688
 Frc consts  --      0.0010                 0.0149                 0.0406
 IR Inten    --      1.4244                 0.3974                 1.2454

                      4                      5                      6
                      A                      A                      A
 Frequencies --    118.4110               161.7695               193.6229
 Red. masses --      9.1585                 1.0779                 4.7857
 Frc consts  --      0.0757                 0.0166                 0.1057
 IR Inten    --      0.0832                 0.0035                 0.1463

                      7                      8                      9
                      A                      A                      A
 Frequencies --    265.8876               343.7562               379.5574
 Red. masses --      7.3586                 8.7683                 5.8758
 Frc consts  --      0.3065                 0.6105                 0.4987
 IR Inten    --      1.6925                 1.1069                 3.4292

                     10                     11                     12
                      A                      A                      A
 Frequencies --    420.8552               431.8993               538.0855
 Red. masses --      6.7881                 4.0437                 3.1621
 Frc consts  --      0.7084                 0.4444                 0.5394
 IR Inten    --      1.6522                 1.8394                 8.6061

                     13                     14                     15
                      A                      A                      A
 Frequencies --    556.6542               565.9387               651.7546
 Red. masses --     11.2851                 7.9684                 8.4550
 Frc consts  --      2.0603                 1.5037                 2.1161
 IR Inten    --      6.5351                 3.5584                 1.7996

                     16                     17                     18
                      A                      A                      A
 Frequencies --    698.1584               746.3094               763.3415
 Red. masses --      6.0569                 9.6478                 5.4612
 Frc consts  --      1.7394                 3.1661                 1.8749
 IR Inten    --      1.0390                 8.9381                 6.0297

                     19                     20                     21
                      A                      A                      A
 Frequencies --    852.6916               872.1689               960.0997
 Red. masses --      1.4584                 8.3504                 1.3604
 Frc consts  --      0.6247                 3.7425                 0.7388
 IR Inten    --     27.4615                 2.8989                 2.7807

                     22                     23                     24
                      A                      A                      A
 Frequencies --    988.3668               990.4860              1009.4613
 Red. masses --      1.1785                 1.3237                 1.3176
 Frc consts  --      0.6783                 0.7651                 0.7910
 IR Inten    --      2.5009                 0.4289                28.2599

                     25                     26                     27
                      A                      A                      A
 Frequencies --   1034.0474              1134.9085              1156.2687
 Red. masses --      4.0323                 3.3110                 1.3030
 Frc consts  --      2.5403                 2.5127                 1.0264
 IR Inten    --      5.1730                 0.2293                14.6077

                     28                     29                     30
                      A                      A                      A
 Frequencies --   1198.1959              1307.3459              1329.5144
 Red. masses --      4.4425                11.3494                 1.3647
 Frc consts  --      3.7578                11.4289                 1.4213
 IR Inten    --     13.9549                 6.8285                35.7400

                     31                     32                     33
                      A                      A                      A
 Frequencies --   1365.7445              1385.6226              1409.0084
 Red. masses --      5.6581                 1.1541                 3.9927
 Frc consts  --      6.2182                 1.3056                 4.6703
 IR Inten    --    239.9947                 9.0430               141.3980

                     34                     35                     36
                      A                      A                      A
 Frequencies --   1496.4388              1505.0363              1512.3626
 Red. masses --      1.0555                 2.3817                 1.0577
 Frc consts  --      1.3926                 3.1786                 1.4253
 IR Inten    --     10.3533               165.8881                16.3867

                     37                     38                     39
                      A                      A                      A
 Frequencies --   1604.8800              1635.5365              2291.0929
 Red. masses --      6.6272                 6.0771                13.9908
 Frc consts  --     10.0570                 9.5778                43.2691
 IR Inten    --     28.7842               160.1139               753.4949

                     40                     41                     42
                      A                      A                      A
 Frequencies --   3066.4703              3155.7032              3160.0089
 Red. masses --      1.0290                 1.1082                 1.1054
 Frc consts  --      5.7007                 6.5021                 6.5037
 IR Inten    --     26.6870                 9.5512                 8.7859

                     43                     44                     45
                      A                      A                      A
 Frequencies --   3191.2026              3210.9629              3232.0745
 Red. masses --      1.0915                 1.0898                 1.0951
 Frc consts  --      6.5492                 6.6200                 6.7404
 IR Inten    --      9.5270                 3.2437                 3.5325

 - Thermochemistry -
 -------------------
 Temperature   298.150 Kelvin.  Pressure   1.00000 Atm.
 Atom     1 has atomic number  6 and mass  12.00000

 Molecular mass:   166.03132 amu.
 Principal axes and moments of inertia in atomic units:
                           1         2         3
     Eigenvalues --   577.519624059.054984362.36238
           X            0.99988  -0.00505   0.01488
           Y            0.00520   0.99994  -0.00993
           Z           -0.01483   0.01000   0.99984
 This molecule is an asymmetric top.
 Rotational symmetry number  1.
 Warning -- assumption of classical behavior for rotation
           may cause significant error
 Rotational temperatures (Kelvin)      0.14998     0.02134     0.01985
 Rotational constants (GHZ):           3.12499     0.44462     0.41371
 Zero-point vibrational energy     317527.6 (Joules/Mol)
                                   75.89091 (Kcal/Mol)
 Warning -- explicit consideration of  14 degrees of freedom as
           vibrations may cause significant error
 Vibrational temperatures:     30.34    92.54   157.34   170.37   232.75
          (Kelvin)            278.58   382.55   494.59   546.10   605.52
                              621.41   774.19   800.90   814.26   937.73
                             1004.49  1073.77  1098.28  1226.83  1254.86
                             1381.37  1422.04  1425.09  1452.39  1487.76
                             1632.88  1663.61  1723.94  1880.98  1912.87
                             1965.00  1993.60  2027.25  2153.04  2165.41
                             2175.95  2309.06  2353.17  3296.37  4411.97
                             4540.35  4546.55  4591.43  4619.86  4650.23

 Zero-point correction=                           0.120940 (Hartree/Particle)
 Thermal correction to Energy=                    0.131247
 Thermal correction to Enthalpy=                  0.132192
 Thermal correction to Gibbs Free Energy=         0.083064
 Sum of electronic and zero-point Energies=           -849.295486
 Sum of electronic and thermal Energies=              -849.285178
 Sum of electronic and thermal Enthalpies=            -849.284234
 Sum of electronic and thermal Free Energies=         -849.333362

                     E (Thermal)             CV                S
                      KCal/Mol        Cal/Mol-Kelvin    Cal/Mol-Kelvin
 Total                   82.359             36.448            103.398
 Electronic               0.000              0.000              0.000
 Translational            0.889              2.981             41.229
 Rotational               0.889              2.981             30.704
 Vibrational             80.581             30.487             31.465
 Vibration     1          0.593              1.985              6.529
 Vibration     2          0.597              1.971              4.320
 Vibration     3          0.606              1.942              3.280
 Vibration     4          0.609              1.934              3.126
 Vibration     5          0.622              1.889              2.529
 Vibration     6          0.635              1.849              2.193
 Vibration     7          0.672              1.736              1.623
 Vibration     8          0.723              1.588              1.195
 Vibration     9          0.750              1.514              1.041
 Vibration    10          0.783              1.425              0.889
 Vibration    11          0.793              1.401              0.852
 Vibration    12          0.893              1.166              0.569
 Vibration    13          0.912              1.125              0.531
 Vibration    14          0.922              1.105              0.512

 Optimization completed.
    -- Stationary point found.
 Normal termination of Gaussian 16 at Tue Dec  8 19:18:08 2020.

 ----------------------------------------------------------------------
 # B3LYP/6-311++G(d,p) empiricaldispersion=gd3bj scf=xqc pop=npa geom=c
 heck
 ----------------------------------------------------------------------

 ---------------------------------------
 CID_151823966_JID_1191_Energie_neutraal
 ---------------------------------------
 Structure from the checkpoint file:  "JID_1191.chk"
 Charge =  0 Multiplicity = 1

 SCF Done:  E(RB3LYP) =  -849.562242925     A.U. after   16 cycles
 Normal termination of Gaussian 16 at Tue Dec  8 19:19:16 2020.

 ----------------------------------------------------------------------
 # B3LYP/6-311++G(d,p) empiricaldispersion=gd3bj scf=xqc pop=npa geom=c
 heck
 ----------------------------------------------------------------------

 -------------------------------------
 CID_151823966_JID_1191_Energie_kation
 -------------------------------------
 Structure from the checkpoint file:  "JID_1191.chk"
 Charge =  1 Multiplicity = 2

 SCF Done:  E(UB3LYP) =  -849.250185488     A.U. after   24 cycles
 Normal termination of Gaussian 16 at Tue Dec  8 19:22:08 2020.
 Gaussian 16:  ES64L-G16RevA.03 25-Dec-2016

 ----------------------------------------------------------------------
 # B3LYP/6-311++G(d,p) empiricaldispersion=gd3bj scf=xqc pop=npa geom=c
 heck
 ----------------------------------------------------------------------

 ------------------------------------
 CID_151823966_JID_1191_Energie_anion
 ------------------------------------
 Structure from the checkpoint file:  "JID_1191.chk"
 Charge = -1 Multiplicity = 2

                         Standard orientation:
 ---------------------------------------------------------------------
 Center     Atomic      Atomic             Coordinates (Angstroms)
 Number     Number       Type             X           Y           Z
 ---------------------------------------------------------------------
      1          6           0        3.514049   -0.396345    1.192901
      2         16           0        2.972919   -0.280574   -0.556796
      3          6           0        1.237020    0.067981   -0.316891
      4          6           0        0.294085   -0.965579   -0.324581
      5          7           0       -1.019225   -0.774280   -0.167511
      6          6           0       -1.443103    0.481032    0.004195
      7          6           0       -0.594938    1.596835    0.023329
      8          6           0        0.764429    1.377314   -0.143931
      9          7           0       -2.821285    0.723288    0.175674
     10          7           0       -3.557908   -0.279867    0.150143
     11          7           0       -4.343137   -1.099621    0.149051
     12          1           0        4.586815   -0.606482    1.177239
     13          1           0        2.994696   -1.209191    1.706203
     14          1           0        3.340364    0.546409    1.717681
     15          1           0        0.618385   -1.993783   -0.467435
     16          1           0       -1.008104    2.589704    0.159697
     17          1           0        1.462784    2.208458   -0.146273
 ---------------------------------------------------------------------

 SCF Done:  E(UB3LYP) =  -849.569224793     A.U. after   32 cycles

 The electronic state is 2-A.
 Alpha  occ. eigenvalues --  -88.71649 -14.32722 -14.23594 -14.22351 -14.15595
 Alpha  occ. eigenvalues --  -10.09189 -10.07285 -10.07058 -10.05221 -10.04321
 Alpha  occ. eigenvalues --  -10.03770  -7.80167  -5.76567  -5.76207  -5.75553
 Alpha  occ. eigenvalues --   -0.99971  -0.85361  -0.79392  -0.68614  -0.65242
 Alpha  occ. eigenvalues --   -0.62058  -0.54521  -0.50756  -0.47704  -0.42996
 Alpha  occ. eigenvalues --   -0.38144  -0.37621  -0.34370  -0.33544  -0.31986
 Alpha  occ. eigenvalues --   -0.31045  -0.30681  -0.29563  -0.27616  -0.26149
 Alpha  occ. eigenvalues --   -0.25047  -0.20776  -0.17936  -0.17275  -0.15459
 Alpha  occ. eigenvalues --   -0.13190  -0.10458  -0.09519   0.04727
 Alpha virt. eigenvalues --    0.07624   0.09412   0.10463   0.10631   0.11022
 Alpha virt. eigenvalues --    0.11161   0.12055   0.13599   0.14231   0.14450
 Alpha virt. eigenvalues --    0.14890   0.15395   0.17192   0.17323   0.17875

  Beta  occ. eigenvalues --  -88.71648 -14.32411 -14.23196 -14.22534 -14.15313
  Beta  occ. eigenvalues --  -10.08841 -10.07342 -10.06944 -10.05053 -10.04446
  Beta  occ. eigenvalues --  -10.03444  -7.80165  -5.76556  -5.76214  -5.75553
  Beta  occ. eigenvalues --   -0.99430  -0.85090  -0.78989  -0.68204  -0.64903
  Beta  occ. eigenvalues --   -0.61683  -0.54107  -0.50589  -0.47600  -0.42648
  Beta  occ. eigenvalues --   -0.37970  -0.36163  -0.34148  -0.33212  -0.31517
  Beta  occ. eigenvalues --   -0.30793  -0.30562  -0.29302  -0.26674  -0.25845
  Beta  occ. eigenvalues --   -0.24530  -0.20384  -0.17934  -0.16386  -0.14133
  Beta  occ. eigenvalues --   -0.12884  -0.10368  -0.08555
  Beta virt. eigenvalues --    0.07850   0.09443   0.10626   0.10749   0.10861
  Beta virt. eigenvalues --    0.11040   0.11345   0.12115   0.13630   0.14320
  Beta virt. eigenvalues --    0.14876   0.15443   0.15738   0.17051   0.17291

 Mulliken charges and spin densities:
               1          2
     1  C   -0.027665  -0.621096
     2  S   -0.476485   0.198833
     3  C    0.795330   0.202837
     4  C   -0.147695  -0.053073
     5  N   -0.126239   0.131529
     6  C   -1.079349   0.199204
     7  C    0.395120  -0.107450
     8  C   -0.618708   0.213532
     9  N    0.239525  -0.096388
    10  N    0.073106   0.086283
    11  N   -0.366375   0.239799
    12  H   -0.247295   0.381968
    13  H    0.043545   0.122006
    14  H    0.065036   0.090297
    15  H    0.180662   0.005879
    16  H    0.162508   0.007631
    17  H    0.134979  -0.001790
 Sum of Mulliken charges =  -1.00000   1.00000

 Dipole moment (field-independent basis, Debye):
    X=              1.0298    Y=              1.9508    Z=              0.1102  Tot=              2.2087
 Quadrupole moment (field-independent basis, Debye-Ang):
   XX=           -134.3950   YY=            -83.0677   ZZ=            -82.8491
   XY=             -4.1196   XZ=             -0.7870   YZ=              0.9916

 Summary of Natural Population Analysis:

                                       Natural Population
                Natural  -----------------------------------------------
    Atom  No    Charge         Core      Valence    Rydberg      Total
 -----------------------------------------------------------------------
      C    1   -0.33813      0.99962     2.33179    0.00673     3.33813
      S    2    0.08324      4.99958     2.89217    0.02501     7.91676
      C    3   -0.10509      0.99939     2.09390    0.01180     3.10509
      C    4    0.02380      0.99952     1.96234    0.01435     2.97620
      N    5   -0.22891      0.99966     2.71706    0.01219     3.72891
      C    6    0.23163      0.99950     1.75414    0.01473     2.76837
      C    7   -0.15417      0.99952     2.14669    0.00796     3.15417
      C    8   -0.02631      0.99951     2.01654    0.01027     3.02631
      N    9   -0.22772      0.99966     2.71284    0.01522     3.72772
      N   10    0.15676      0.99971     2.32684    0.01669     3.34324
      N   11    0.00967      0.99981     2.47725    0.01326     3.49033
      H   12    0.09961      0.00000     0.39819    0.00220     0.40039
      H   13    0.09848      0.00000     0.39999    0.00153     0.40152
      H   14    0.09708      0.00000     0.40135    0.00157     0.40292
      H   15    0.08665      0.00000     0.41158    0.00176     0.41335
      H   16    0.10034      0.00000     0.39855    0.00111     0.39966
      H   17    0.09307      0.00000     0.40577    0.00116     0.40693
 =======================================================================
   * Total *    0.00000     14.99547    27.84699    0.15754    43.00000

 Normal termination of Gaussian 16 at Tue Dec  8 19:25:58 2020.
