 Gaussian 16, Revision A.03,

 -----------------------------------------------------------
 # opt freq B3LYP/6-31G(d) empiricaldispersion=gd3bj scf=xqc
 -----------------------------------------------------------

 -------------------------------
 CID_143445548_JID_6651_neutraal
 -------------------------------
 Symbolic Z-matrix:
 Charge =  0 Multiplicity = 1

 SCF Done:  E(RB3LYP) =  -676.130023752     A.U. after   14 cycles
 SCF Done:  E(RB3LYP) =  -676.133056797     A.U. after   12 cycles
 SCF Done:  E(RB3LYP) =  -676.133461893     A.U. after   11 cycles
 SCF Done:  E(RB3LYP) =  -676.133515023     A.U. after   11 cycles
 SCF Done:  E(RB3LYP) =  -676.133557125     A.U. after   10 cycles
 SCF Done:  E(RB3LYP) =  -676.133574873     A.U. after   10 cycles
 SCF Done:  E(RB3LYP) =  -676.133580430     A.U. after   10 cycles
 SCF Done:  E(RB3LYP) =  -676.133583113     A.U. after    9 cycles
 SCF Done:  E(RB3LYP) =  -676.133583381     A.U. after    8 cycles
 SCF Done:  E(RB3LYP) =  -676.133583417     A.U. after    6 cycles
 Optimization completed.
    -- Stationary point found.
 Normal termination of Gaussian 16 at Thu Dec 10 22:37:24 2020.

 --------------------------------------------------------------------
 #N Geom=AllCheck Guess=TCheck SCRF=Check GenChk RB3LYP/6-31G(d) Freq
 --------------------------------------------------------------------

 Structure from the checkpoint file:  "JID_6651.chk"
 -------------------------------
 CID_143445548_JID_6651_neutraal
 -------------------------------
 Charge =  0 Multiplicity = 1

 SCF Done:  E(RB3LYP) =  -676.133583417     A.U. after    1 cycles

  Exact polarizability: 197.037  -1.971 146.559   0.952  15.258 118.610
 Approx polarizability: 254.966  -3.407 221.972   4.531  38.430 184.770

                      1                      2                      3
                      A                      A                      A
 Frequencies --     16.2743                28.7286                65.2663
 Red. masses --      4.0054                 3.2494                 3.0000
 Frc consts  --      0.0006                 0.0016                 0.0075
 IR Inten    --      0.0850                 0.0235                 0.7546

                      4                      5                      6
                      A                      A                      A
 Frequencies --     80.1541                97.5248               121.6875
 Red. masses --      2.9012                 3.4144                 3.4444
 Frc consts  --      0.0110                 0.0191                 0.0301
 IR Inten    --      0.1559                 0.1351                 1.6291

                      7                      8                      9
                      A                      A                      A
 Frequencies --    124.0688               135.9358               175.8186
 Red. masses --      2.6732                 2.2668                 2.1955
 Frc consts  --      0.0242                 0.0247                 0.0400
 IR Inten    --      3.1191                 0.8559                 1.7273

                     10                     11                     12
                      A                      A                      A
 Frequencies --    223.8743               241.6625               255.0486
 Red. masses --      1.8529                 1.9278                 1.4972
 Frc consts  --      0.0547                 0.0663                 0.0574
 IR Inten    --      1.4572                 7.0897                 2.6611

                     13                     14                     15
                      A                      A                      A
 Frequencies --    275.3936               278.7569               285.0945
 Red. masses --      1.7245                 1.6567                 2.9466
 Frc consts  --      0.0771                 0.0758                 0.1411
 IR Inten    --      9.1225                11.3474                 1.9717

                     16                     17                     18
                      A                      A                      A
 Frequencies --    318.0266               329.8751               337.4318
 Red. masses --      3.1054                 2.7711                 3.0269
 Frc consts  --      0.1851                 0.1777                 0.2031
 IR Inten    --      1.2125                 6.1924                 2.2617

                     19                     20                     21
                      A                      A                      A
 Frequencies --    377.2884               385.1960               485.0860
 Red. masses --      2.0542                 2.8029                 3.1671
 Frc consts  --      0.1723                 0.2450                 0.4391
 IR Inten    --      9.0126                 0.9824                 8.8084

                     22                     23                     24
                      A                      A                      A
 Frequencies --    497.4503               527.4621               592.9458
 Red. masses --      3.7107                 3.1917                 3.3561
 Frc consts  --      0.5410                 0.5232                 0.6952
 IR Inten    --      2.3608                 1.7767                 2.2288

                     25                     26                     27
                      A                      A                      A
 Frequencies --    645.9983               662.3714               708.8075
 Red. masses --      4.2481                 3.2484                 3.7933
 Frc consts  --      1.0445                 0.8397                 1.1228
 IR Inten    --      0.7858                 1.7081                 0.1891

                     28                     29                     30
                      A                      A                      A
 Frequencies --    731.1533               791.0476               801.7248
 Red. masses --      2.0566                 2.4896                 1.0919
 Frc consts  --      0.6478                 0.9179                 0.4135
 IR Inten    --     19.3202                 5.4163                 1.5203

                     31                     32                     33
                      A                      A                      A
 Frequencies --    824.0278               827.4224               867.7890
 Red. masses --      1.6062                 1.5541                 2.1515
 Frc consts  --      0.6426                 0.6269                 0.9546
 IR Inten    --     10.8724                 4.3644                19.8929

                     34                     35                     36
                      A                      A                      A
 Frequencies --    903.5321               917.6994               922.7557
 Red. masses --      1.8760                 1.8549                 1.8354
 Frc consts  --      0.9023                 0.9204                 0.9208
 IR Inten    --    186.2198                 8.1556                 5.4515

                     37                     38                     39
                      A                      A                      A
 Frequencies --    930.7870               939.0249               953.2190
 Red. masses --      1.7842                 1.4219                 1.6048
 Frc consts  --      0.9108                 0.7387                 0.8591
 IR Inten    --      3.7446                 1.0080                 4.9001

                     40                     41                     42
                      A                      A                      A
 Frequencies --    961.0572               989.1214              1016.3444
 Red. masses --      2.0301                 1.2827                 2.0560
 Frc consts  --      1.1048                 0.7394                 1.2513
 IR Inten    --      7.7283                 2.2336                14.0250

                     43                     44                     45
                      A                      A                      A
 Frequencies --   1022.5930              1030.6042              1038.7796
 Red. masses --      4.2353                 1.7401                 2.0832
 Frc consts  --      2.6094                 1.0889                 1.3244
 IR Inten    --      6.8956                35.7197                 2.0180

                     46                     47                     48
                      A                      A                      A
 Frequencies --   1064.8450              1072.5511              1087.0450
 Red. masses --      1.5870                 1.9946                 1.4066
 Frc consts  --      1.0602                 1.3519                 0.9793
 IR Inten    --     25.4905                 5.3264                 0.5532

                     49                     50                     51
                      A                      A                      A
 Frequencies --   1124.1474              1130.8102              1144.1273
 Red. masses --      1.7572                 1.9827                 1.7090
 Frc consts  --      1.3084                 1.4938                 1.3181
 IR Inten    --      5.2197                34.4802                 8.7458

                     52                     53                     54
                      A                      A                      A
 Frequencies --   1149.2140              1177.6541              1195.8586
 Red. masses --      2.2083                 3.6070                 1.3324
 Frc consts  --      1.7184                 2.9473                 1.1227
 IR Inten    --     31.6177               106.6925                 4.2099

                     55                     56                     57
                      A                      A                      A
 Frequencies --   1204.2091              1206.9157              1224.9800
 Red. masses --      1.2586                 1.1391                 1.6759
 Frc consts  --      1.0754                 0.9776                 1.4817
 IR Inten    --      0.3468                 0.9520                22.6491

                     58                     59                     60
                      A                      A                      A
 Frequencies --   1238.5060              1274.8373              1292.7444
 Red. masses --      1.8765                 1.2806                 1.4212
 Frc consts  --      1.6959                 1.2262                 1.3993
 IR Inten    --     10.7504                 4.4774                 0.3064

                     61                     62                     63
                      A                      A                      A
 Frequencies --   1308.9738              1312.8551              1323.8048
 Red. masses --      1.3920                 2.3535                 1.8530
 Frc consts  --      1.4053                 2.3900                 1.9132
 IR Inten    --      7.0702                14.2732                 6.4756

                     64                     65                     66
                      A                      A                      A
 Frequencies --   1349.2737              1362.0444              1369.9723
 Red. masses --      1.3201                 2.3749                 2.8107
 Frc consts  --      1.4160                 2.5959                 3.1081
 IR Inten    --      1.7859                 0.4350                33.3261

                     67                     68                     69
                      A                      A                      A
 Frequencies --   1385.2860              1401.9920              1435.6223
 Red. masses --      1.4984                 1.5526                 1.3191
 Frc consts  --      1.6941                 1.7981                 1.6018
 IR Inten    --      2.0258                 4.5787                13.5954

                     70                     71                     72
                      A                      A                      A
 Frequencies --   1438.9632              1476.9490              1485.7850
 Red. masses --      1.2541                 1.1004                 2.7020
 Frc consts  --      1.5299                 1.4143                 3.5143
 IR Inten    --     21.7121                 2.7772                 5.3774

                     73                     74                     75
                      A                      A                      A
 Frequencies --   1503.0020              1514.8242              1517.1260
 Red. masses --      1.1645                 1.0476                 1.0765
 Frc consts  --      1.5499                 1.4164                 1.4598
 IR Inten    --      3.6792                 5.0211                 0.8846

                     76                     77                     78
                      A                      A                      A
 Frequencies --   1522.4941              1528.0797              1529.7786
 Red. masses --      1.4260                 1.0516                 1.0952
 Frc consts  --      1.9475                 1.4467                 1.5101
 IR Inten    --     11.5860                 6.0893                 6.7028

                     79                     80                     81
                      A                      A                      A
 Frequencies --   1537.7953              1541.5352              1557.9836
 Red. masses --      2.1134                 1.0826                 1.0976
 Frc consts  --      2.9446                 1.5157                 1.5697
 IR Inten    --     10.2239                 5.7772                 4.4335

                     82                     83                     84
                      A                      A                      A
 Frequencies --   1642.0322              1664.7762              1699.7938
 Red. masses --      5.4602                 5.7238                 1.1034
 Frc consts  --      8.6741                 9.3465                 1.8783
 IR Inten    --      6.5995                15.6484                11.1298

                     85                     86                     87
                      A                      A                      A
 Frequencies --   2981.1859              2994.6972              3014.6169
 Red. masses --      1.0508                 1.0423                 1.1049
 Frc consts  --      5.5021                 5.5077                 5.9161
 IR Inten    --     20.7154                97.5378                71.7666

                     88                     89                     90
                      A                      A                      A
 Frequencies --   3024.2911              3036.5290              3044.4111
 Red. masses --      1.0835                 1.1051                 1.0386
 Frc consts  --      5.8389                 6.0035                 5.6717
 IR Inten    --     34.9662                53.9084                41.5736

                     91                     92                     93
                      A                      A                      A
 Frequencies --   3055.1198              3096.3601              3112.7547
 Red. masses --      1.0650                 1.0977                 1.0998
 Frc consts  --      5.8569                 6.2006                 6.2783
 IR Inten    --     22.6790                 6.0905                39.4844

                     94                     95                     96
                      A                      A                      A
 Frequencies --   3126.0119              3138.4995              3153.3491
 Red. masses --      1.1023                 1.0969                 1.0503
 Frc consts  --      6.3464                 6.3660                 6.1533
 IR Inten    --     42.2323                29.7894                11.2764

                     97                     98                     99
                      A                      A                      A
 Frequencies --   3157.2888              3163.0732              3176.1297
 Red. masses --      1.0581                 1.0887                 1.0864
 Frc consts  --      6.2142                 6.4175                 6.4568
 IR Inten    --      5.6893                15.9234                 8.7561

                    100                    101                    102
                      A                      A                      A
 Frequencies --   3193.6873              3228.6445              3235.5557
 Red. masses --      1.0937                 1.0921                 1.1202
 Frc consts  --      6.5723                 6.7075                 6.9095
 IR Inten    --     26.1250                 3.3489                 0.0378

                    103                    104                    105
                      A                      A                      A
 Frequencies --   3247.7530              3443.9717              3524.3253
 Red. masses --      1.1172                 1.0490                 1.0920
 Frc consts  --      6.9429                 7.3310                 7.9913
 IR Inten    --     19.9907                 3.8022                 0.1761

 - Thermochemistry -
 -------------------
 Temperature   298.150 Kelvin.  Pressure   1.00000 Atm.
 Atom     1 has atomic number  6 and mass  12.00000

 Molecular mass:   219.16231 amu.
 Principal axes and moments of inertia in atomic units:
                           1         2         3
     Eigenvalues --  1760.961207146.665077884.24152
           X            0.99999  -0.00241  -0.00363
           Y            0.00237   0.99993  -0.01171
           Z            0.00366   0.01170   0.99992
 This molecule is an asymmetric top.
 Rotational symmetry number  1.
 Warning -- assumption of classical behavior for rotation
           may cause significant error
 Rotational temperatures (Kelvin)      0.04919     0.01212     0.01099
 Rotational constants (GHZ):           1.02486     0.25253     0.22890
 Zero-point vibrational energy     860649.5 (Joules/Mol)
                                  205.70016 (Kcal/Mol)
 Warning -- explicit consideration of  24 degrees of freedom as
           vibrations may cause significant error
 Vibrational temperatures:     23.42    41.33    93.90   115.32   140.32
          (Kelvin)            175.08   178.51   195.58   252.96   322.11
                              347.70   366.96   396.23   401.07   410.19
                              457.57   474.62   485.49   542.83   554.21
                              697.93   715.72   758.90   853.12   929.45
                              953.00  1019.82  1051.97  1138.14  1153.50
                             1185.59  1190.48  1248.55  1299.98  1320.36
                             1327.64  1339.19  1351.05  1371.47  1382.75
                             1423.13  1462.29  1471.28  1482.81  1494.57
                             1532.07  1543.16  1564.02  1617.40  1626.98
                             1646.14  1653.46  1694.38  1720.57  1732.59
                             1736.48  1762.47  1781.93  1834.21  1859.97
                             1883.32  1888.91  1904.66  1941.30  1959.68
                             1971.08  1993.12  2017.15  2065.54  2070.35
                             2125.00  2137.71  2162.48  2179.49  2182.81
                             2190.53  2198.57  2201.01  2212.54  2217.93
                             2241.59  2362.52  2395.24  2445.62  4289.26
                             4308.70  4337.36  4351.28  4368.89  4380.23
                             4395.64  4454.97  4478.56  4497.63  4515.60
                             4536.97  4542.63  4550.96  4569.74  4595.00
                             4645.30  4655.24  4672.79  4955.11  5070.72

 Zero-point correction=                           0.327804 (Hartree/Particle)
 Thermal correction to Energy=                    0.344653
 Thermal correction to Enthalpy=                  0.345597
 Thermal correction to Gibbs Free Energy=         0.281966
 Sum of electronic and zero-point Energies=           -675.805779
 Sum of electronic and thermal Energies=              -675.788931
 Sum of electronic and thermal Enthalpies=            -675.787986
 Sum of electronic and thermal Free Energies=         -675.851618

                     E (Thermal)             CV                S
                      KCal/Mol        Cal/Mol-Kelvin    Cal/Mol-Kelvin
 Total                  216.273             63.576            133.923
 Electronic               0.000              0.000              0.000
 Translational            0.889              2.981             42.057
 Rotational               0.889              2.981             32.962
 Vibrational            214.495             57.614             58.905
 Vibration     1          0.593              1.986              7.044
 Vibration     2          0.593              1.984              5.915
 Vibration     3          0.597              1.971              4.291
 Vibration     4          0.600              1.963              3.887
 Vibration     5          0.603              1.951              3.503
 Vibration     6          0.609              1.931              3.073
 Vibration     7          0.610              1.929              3.036
 Vibration     8          0.614              1.917              2.860
 Vibration     9          0.628              1.872              2.372
 Vibration    10          0.649              1.805              1.928
 Vibration    11          0.658              1.777              1.791
 Vibration    12          0.665              1.754              1.695
 Vibration    13          0.677              1.719              1.562
 Vibration    14          0.679              1.713              1.541
 Vibration    15          0.683              1.701              1.503
 Vibration    16          0.704              1.639              1.320
 Vibration    17          0.713              1.616              1.261
 Vibration    18          0.718              1.601              1.224
 Vibration    19          0.748              1.519              1.050
 Vibration    20          0.754              1.502              1.019
 Vibration    21          0.841              1.283              0.696
 Vibration    22          0.853              1.256              0.665
 Vibration    23          0.882              1.189              0.593
 Vibration    24          0.950              1.047              0.462

                           ! Non-Optimized Parameters !
 Normal termination of Gaussian 16 at Thu Dec 10 22:50:02 2020.

 ----------------------------------------------------------------------
 # B3LYP/6-311++G(d,p) empiricaldispersion=gd3bj scf=xqc pop=npa geom=c
 heck
 ----------------------------------------------------------------------

 ---------------------------------------
 CID_143445548_JID_6651_Energie_neutraal
 ---------------------------------------
 Structure from the checkpoint file:  "JID_6651.chk"
 Charge =  0 Multiplicity = 1

 SCF Done:  E(RB3LYP) =  -676.323782895     A.U. after   14 cycles
 Normal termination of Gaussian 16 at Thu Dec 10 22:56:44 2020.

 ----------------------------------------------------------------------
 # B3LYP/6-311++G(d,p) empiricaldispersion=gd3bj scf=xqc pop=npa geom=c
 heck
 ----------------------------------------------------------------------

 -------------------------------------
 CID_143445548_JID_6651_Energie_kation
 -------------------------------------
 Structure from the checkpoint file:  "JID_6651.chk"
 Charge =  1 Multiplicity = 2

 SCF Done:  E(UB3LYP) =  -676.024983650     A.U. after   30 cycles
 Normal termination of Gaussian 16 at Thu Dec 10 23:16:00 2020.
 Gaussian 16:  ES64L-G16RevA.03 25-Dec-2016

 ----------------------------------------------------------------------
 # B3LYP/6-311++G(d,p) empiricaldispersion=gd3bj scf=xqc pop=npa geom=c
 heck
 ----------------------------------------------------------------------

 ------------------------------------
 CID_143445548_JID_6651_Energie_anion
 ------------------------------------
 Structure from the checkpoint file:  "JID_6651.chk"
 Charge = -1 Multiplicity = 2

                         Standard orientation:
 ---------------------------------------------------------------------
 Center     Atomic      Atomic             Coordinates (Angstroms)
 Number     Number       Type             X           Y           Z
 ---------------------------------------------------------------------
      1          6           0       -3.338784    2.508457   -0.496165
      2          6           0       -2.162747    1.591768   -0.838947
      3          6           0       -1.631893    0.772893    0.359067
      4          6           0       -2.734635   -0.055725    1.028864
      5          8           0       -3.465665   -0.778287    0.051983
      6          6           0       -4.470875   -1.587741    0.620891
      7          6           0       -0.422341   -0.051426   -0.045067
      8          6           0        0.862114    0.387233    0.292431
      9          6           0        2.009135   -0.315316   -0.093298
     10          6           0        1.857383   -1.490504   -0.836680
     11          6           0        0.584262   -1.944012   -1.180954
     12          6           0       -0.549774   -1.231420   -0.792333
     13          6           0        3.371020    0.140270    0.357425
     14          6           0        4.450670    0.364353   -0.669624
     15          6           0        3.821508    1.542942    0.040101
     16          7           0        3.844011   -0.376050    1.634245
     17          1           0       -4.226217    1.927925   -0.224043
     18          1           0       -3.604644    3.136274   -1.353750
     19          1           0       -3.097574    3.175270    0.341469
     20          1           0       -2.455823    0.897815   -1.633552
     21          1           0       -1.328420    2.185087   -1.232921
     22          1           0       -1.298525    1.487047    1.125905
     23          1           0       -2.289397   -0.749036    1.760755
     24          1           0       -3.419327    0.609999    1.579407
     25          1           0       -4.046217   -2.347879    1.295681
     26          1           0       -5.198435   -0.987569    1.190612
     27          1           0       -4.988300   -2.088568   -0.201191
     28          1           0        0.979144    1.306059    0.864751
     29          1           0        2.741369   -2.041275   -1.149057
     30          1           0        0.473313   -2.855902   -1.762165
     31          1           0       -1.539644   -1.584364   -1.059112
     32          1           0        5.460784    0.088544   -0.384246
     33          1           0        4.201253    0.206825   -1.714751
     34          1           0        3.148330    2.178854   -0.527183
     35          1           0        4.414807    2.047978    0.795599
     36          1           0        3.849424   -1.395896    1.597272
     37          1           0        3.171093   -0.129176    2.360687
 ---------------------------------------------------------------------

 SCF Done:  E(UB3LYP) =  -676.309580307     A.U. after   32 cycles

 The electronic state is 2-A.
 Alpha  occ. eigenvalues --  -19.03113 -14.21021 -10.12341 -10.11793 -10.11471
 Alpha  occ. eigenvalues --  -10.08774 -10.08575 -10.08410 -10.08400 -10.08316
 Alpha  occ. eigenvalues --  -10.08095 -10.07907 -10.07676 -10.07313 -10.06991
 Alpha  occ. eigenvalues --  -10.06163  -0.94484  -0.82666  -0.76534  -0.73219
 Alpha  occ. eigenvalues --   -0.71441  -0.65511  -0.65366  -0.63128  -0.58147
 Alpha  occ. eigenvalues --   -0.54009  -0.53160  -0.52407  -0.50158  -0.48228
 Alpha  occ. eigenvalues --   -0.45444  -0.42616  -0.40503  -0.39849  -0.39129
 Alpha  occ. eigenvalues --   -0.38559  -0.37786  -0.37255  -0.35390  -0.34972
 Alpha  occ. eigenvalues --   -0.33512  -0.33409  -0.31225  -0.30845  -0.29746
 Alpha  occ. eigenvalues --   -0.28502  -0.28101  -0.27541  -0.26988  -0.25857
 Alpha  occ. eigenvalues --   -0.24901  -0.23749  -0.23209  -0.22803  -0.21994
 Alpha  occ. eigenvalues --   -0.19812  -0.17166  -0.16738  -0.15606  -0.14598
 Alpha  occ. eigenvalues --    0.04224
 Alpha virt. eigenvalues --    0.06016   0.06537   0.07113   0.07560   0.07820
 Alpha virt. eigenvalues --    0.07900   0.08119   0.08469   0.09133   0.09788
 Alpha virt. eigenvalues --    0.09958   0.10097   0.10803   0.10996   0.11644

  Beta  occ. eigenvalues --  -19.03105 -14.20994 -10.12339 -10.11769 -10.11428
  Beta  occ. eigenvalues --  -10.08776 -10.08577 -10.08401 -10.08390 -10.08305
  Beta  occ. eigenvalues --  -10.08085 -10.07899 -10.07661 -10.07309 -10.06984
  Beta  occ. eigenvalues --  -10.06136  -0.94472  -0.82643  -0.76519  -0.73185
  Beta  occ. eigenvalues --   -0.71419  -0.65496  -0.65344  -0.63087  -0.58088
  Beta  occ. eigenvalues --   -0.53938  -0.53140  -0.52376  -0.50123  -0.48191
  Beta  occ. eigenvalues --   -0.45414  -0.42594  -0.40465  -0.39806  -0.39094
  Beta  occ. eigenvalues --   -0.38530  -0.37757  -0.37226  -0.35366  -0.34949
  Beta  occ. eigenvalues --   -0.33481  -0.33384  -0.31210  -0.30813  -0.29715
  Beta  occ. eigenvalues --   -0.28481  -0.28087  -0.27505  -0.26965  -0.25827
  Beta  occ. eigenvalues --   -0.24868  -0.23730  -0.23183  -0.22778  -0.21952
  Beta  occ. eigenvalues --   -0.19800  -0.17145  -0.16716  -0.15577  -0.14586
  Beta virt. eigenvalues --    0.06123   0.06757   0.07129   0.07480   0.07638
  Beta virt. eigenvalues --    0.08029   0.08098   0.08346   0.08894   0.09308
  Beta virt. eigenvalues --    0.10217   0.10348   0.10434   0.11112   0.11170

 Mulliken charges and spin densities:
               1          2
     1  C    0.774354  -1.362345
     2  C   -1.042046   0.573484
     3  C   -0.084339   0.455141
     4  C    0.037297  -0.785247
     5  O   -0.150152   0.064136
     6  C    0.974991  -1.217318
     7  C    0.436573   0.487865
     8  C   -0.709604  -0.184034
     9  C    1.510656  -0.791261
    10  C   -0.051130  -0.149729
    11  C   -0.512557  -0.063234
    12  C   -0.572309  -0.100079
    13  C    0.125203   0.110482
    14  C    0.097718  -0.588457
    15  C    0.035763  -0.453717
    16  N   -0.325283   0.025343
    17  H    0.004229   0.158770
    18  H   -0.083408   0.220355
    19  H   -0.207101   0.342625
    20  H    0.033741   0.149883
    21  H    0.069590   0.074149
    22  H   -0.231819   0.433517
    23  H   -0.019780   0.161353
    24  H   -0.256354   0.426527
    25  H   -0.262307   0.402543
    26  H   -0.383453   0.514776
    27  H   -0.244539   0.381416
    28  H   -0.106220   0.290874
    29  H   -0.098269   0.268019
    30  H   -0.336775   0.506782
    31  H    0.377985  -0.198963
    32  H    0.052224   0.094250
    33  H    0.067283   0.065447
    34  H    0.029982   0.103022
    35  H    0.048761   0.104298
    36  H    0.001644   0.237834
    37  H   -0.000551   0.241493
 Sum of Mulliken charges =  -1.00000   1.00000

 Dipole moment (field-independent basis, Debye):
    X=              4.4952    Y=              0.4087    Z=             -2.9910  Tot=              5.4148
 Quadrupole moment (field-independent basis, Debye-Ang):
   XX=           -197.0532   YY=           -144.5520   ZZ=           -136.1501
   XY=              0.6827   XZ=              2.8097   YZ=              0.0910

 Summary of Natural Population Analysis:

                                       Natural Population
                Natural  -----------------------------------------------
    Atom  No    Charge         Core      Valence    Rydberg      Total
 -----------------------------------------------------------------------
      C    1   -0.28776      0.99966     2.28309    0.00501     3.28776
      C    2   -0.18455      0.99961     2.17576    0.00918     3.18455
      C    3   -0.12556      0.99955     2.11212    0.01389     3.12556
      C    4   -0.00550      0.99956     1.99299    0.01294     3.00550
      O    5   -0.30396      0.99988     3.29471    0.00937     4.30396
      C    6   -0.09587      0.99962     2.08706    0.00919     3.09587
      C    7   -0.00842      0.99951     1.99614    0.01278     3.00842
      C    8   -0.08641      0.99946     2.08054    0.00641     3.08641
      C    9   -0.02676      0.99948     2.01508    0.01220     3.02676
      C   10   -0.10379      0.99951     2.09439    0.00989     3.10379
      C   11   -0.09598      0.99957     2.08602    0.01040     3.09598
      C   12   -0.10481      0.99950     2.09556    0.00976     3.10481
      C   13    0.03691      0.99950     1.94717    0.01641     2.96309
      C   14   -0.19491      0.99959     2.18752    0.00781     3.19491
      C   15   -0.19382      0.99959     2.18628    0.00795     3.19382
      N   16   -0.41482      0.99976     2.90557    0.00950     3.91482
      H   17    0.10090      0.00000     0.39783    0.00127     0.39910
      H   18    0.09774      0.00000     0.40148    0.00079     0.40226
      H   19    0.09581      0.00000     0.40300    0.00119     0.40419
      H   20    0.10114      0.00000     0.39727    0.00159     0.39886
      H   21    0.09621      0.00000     0.40276    0.00103     0.40379
      H   22    0.10154      0.00000     0.39624    0.00221     0.39846
      H   23    0.08529      0.00000     0.41298    0.00173     0.41471
      H   24    0.08468      0.00000     0.41360    0.00172     0.41532
      H   25    0.07956      0.00000     0.41884    0.00160     0.42044
      H   26    0.08047      0.00000     0.41758    0.00195     0.41953
      H   27    0.08974      0.00000     0.40908    0.00118     0.41026
      H   28    0.09934      0.00000     0.39846    0.00220     0.40066
      H   29    0.10043      0.00000     0.39833    0.00124     0.39957
      H   30    0.09932      0.00000     0.39980    0.00088     0.40068
      H   31    0.11245      0.00000     0.38584    0.00171     0.38755
      H   32    0.10500      0.00000     0.39391    0.00109     0.39500
      H   33    0.10342      0.00000     0.39562    0.00096     0.39658
      H   34    0.10458      0.00000     0.39435    0.00107     0.39542
      H   35    0.10557      0.00000     0.39329    0.00114     0.39443
      H   36    0.17593      0.00000     0.32220    0.00187     0.32407
      H   37    0.17693      0.00000     0.32114    0.00193     0.32307
 =======================================================================
   * Total *    0.00002     15.99337    43.81358    0.19303    59.99998

 Normal termination of Gaussian 16 at Thu Dec 10 23:35:59 2020.
