 Gaussian 16, Revision A.03,

 -----------------------------------------------------------
 # opt freq B3LYP/6-31G(d) empiricaldispersion=gd3bj scf=xqc
 -----------------------------------------------------------

 ------------------------------
 CID_57847786_JID_2290_neutraal
 ------------------------------
 Symbolic Z-matrix:
 Charge =  0 Multiplicity = 1

 SCF Done:  E(RB3LYP) =  -616.563570687     A.U. after   13 cycles
 SCF Done:  E(RB3LYP) =  -616.566394974     A.U. after   11 cycles
 SCF Done:  E(RB3LYP) =  -616.566412786     A.U. after   11 cycles
 SCF Done:  E(RB3LYP) =  -616.567270615     A.U. after   11 cycles
 SCF Done:  E(RB3LYP) =  -616.567461212     A.U. after   11 cycles
 SCF Done:  E(RB3LYP) =  -616.567586623     A.U. after   10 cycles
 SCF Done:  E(RB3LYP) =  -616.567609288     A.U. after    9 cycles
 SCF Done:  E(RB3LYP) =  -616.567613993     A.U. after    8 cycles
 SCF Done:  E(RB3LYP) =  -616.567616237     A.U. after    7 cycles
 SCF Done:  E(RB3LYP) =  -616.567617521     A.U. after    7 cycles
 SCF Done:  E(RB3LYP) =  -616.567621004     A.U. after    7 cycles
 SCF Done:  E(RB3LYP) =  -616.567621157     A.U. after    7 cycles
 SCF Done:  E(RB3LYP) =  -616.567621300     A.U. after    7 cycles
 SCF Done:  E(RB3LYP) =  -616.567621459     A.U. after    7 cycles
 SCF Done:  E(RB3LYP) =  -616.567621606     A.U. after    7 cycles
 SCF Done:  E(RB3LYP) =  -616.567621694     A.U. after    7 cycles
 Optimization completed.
    -- Stationary point found.

 1\1\GINC-NODE108\FOpt\RB3LYP\6-31G(d)\C8H18O4\VSC10255\09-Dec-2020\0\\
 # opt freq B3LYP/6-31G(d) empiricaldispersion=gd3bj scf=xqc\\CID_57847
 786_JID_2290_neutraal\\0,1\C,0.6255867819,0.193845602,-0.0554156409\C,
 0.6089619222,-0.7801815764,1.1247431539\C,1.8533261669,-0.6888031168,2
 .011787641\O,1.8402125627,0.5437716704,2.7390243991\C,2.6784711403,1.5
 835976217,2.2429098282\C,3.8960214744,1.7542986017,3.1637813826\C,4.77
 6303817,0.506947795,3.2183993411\O,5.0776948049,0.0463300373,1.9088547
 475\C,5.8803679229,-1.1162285889,1.9207947066\O,4.6033273231,2.9571826

 Normal termination of Gaussian 16 at Wed Dec  9 17:02:22 2020.

 --------------------------------------------------------------------
 #N Geom=AllCheck Guess=TCheck SCRF=Check GenChk RB3LYP/6-31G(d) Freq
 --------------------------------------------------------------------

 Structure from the checkpoint file:  "JID_2290.chk"
 ------------------------------
 CID_57847786_JID_2290_neutraal
 ------------------------------
 Charge =  0 Multiplicity = 1

 SCF Done:  E(RB3LYP) =  -616.567621694     A.U. after    1 cycles

  Exact polarizability: 108.160  -3.179  98.591   1.633   0.116  90.298
 Approx polarizability: 132.082  -5.027 132.384   4.331   3.945 130.993

                      1                      2                      3
                      A                      A                      A
 Frequencies --     29.2870                35.3708                45.2992
 Red. masses --      2.5148                 2.7623                 3.1607
 Frc consts  --      0.0013                 0.0020                 0.0038
 IR Inten    --      0.1898                 1.2024                 1.8896

                      4                      5                      6
                      A                      A                      A
 Frequencies --     57.5363                78.1342               116.0773
 Red. masses --      3.5238                 3.4093                 2.8215
 Frc consts  --      0.0069                 0.0123                 0.0224
 IR Inten    --      0.3834                 1.3402                 4.2941

                      7                      8                      9
                      A                      A                      A
 Frequencies --    133.1834               175.6707               190.1721
 Red. masses --      1.9512                 2.2189                 4.1454
 Frc consts  --      0.0204                 0.0403                 0.0883
 IR Inten    --      2.2353                 0.8791                 2.1779

                     10                     11                     12
                      A                      A                      A
 Frequencies --    198.1072               244.4996               256.5339
 Red. masses --      1.6803                 1.9960                 1.9667
 Frc consts  --      0.0389                 0.0703                 0.0763
 IR Inten    --      1.3460                 3.4213                13.0815

                     13                     14                     15
                      A                      A                      A
 Frequencies --    273.8759               320.2380               324.8232
 Red. masses --      1.1141                 3.1516                 2.7996
 Frc consts  --      0.0492                 0.1904                 0.1740
 IR Inten    --      0.9399                 5.4861                 0.6730

                     16                     17                     18
                      A                      A                      A
 Frequencies --    367.5305               417.0685               421.3212
 Red. masses --      3.3949                 2.4230                 2.8917
 Frc consts  --      0.2702                 0.2483                 0.3024
 IR Inten    --      2.3478                 0.8963                 6.8003

                     19                     20                     21
                      A                      A                      A
 Frequencies --    453.6459               484.5650               514.5728
 Red. masses --      2.3681                 1.2285                 2.3329
 Frc consts  --      0.2871                 0.1700                 0.3639
 IR Inten    --      6.2236               125.5035                 4.6467

                     22                     23                     24
                      A                      A                      A
 Frequencies --    660.7146               673.2556               810.2072
 Red. masses --      2.8790                 2.7094                 3.3221
 Frc consts  --      0.7405                 0.7236                 1.2848
 IR Inten    --      8.7413                 4.3525                13.5027

                     25                     26                     27
                      A                      A                      A
 Frequencies --    828.2442               915.6654               923.3613
 Red. masses --      3.0860                 2.5722                 2.5985
 Frc consts  --      1.2473                 1.2707                 1.3053
 IR Inten    --      5.9281                 0.9125                24.1149

                     28                     29                     30
                      A                      A                      A
 Frequencies --    940.7557               951.8853               992.1456
 Red. masses --      1.7286                 2.2568                 2.5313
 Frc consts  --      0.9014                 1.2048                 1.4680
 IR Inten    --      2.5684                12.5430                23.5496

                     31                     32                     33
                      A                      A                      A
 Frequencies --   1033.0436              1061.5048              1089.4151
 Red. masses --      2.4336                 1.7480                 2.3461
 Frc consts  --      1.5302                 1.1605                 1.6405
 IR Inten    --     37.4425                20.1404                71.4417

                     34                     35                     36
                      A                      A                      A
 Frequencies --   1111.0482              1136.4651              1155.6935
 Red. masses --      2.9014                 2.2669                 2.3785
 Frc consts  --      2.1102                 1.7250                 1.8717
 IR Inten    --    153.2748                47.5583                93.8189

                     37                     38                     39
                      A                      A                      A
 Frequencies --   1168.3521              1179.3900              1181.0415
 Red. masses --      2.4938                 3.7825                 2.6494
 Frc consts  --      2.0057                 3.0999                 2.1774
 IR Inten    --     28.9112                66.2429                82.4245

                     40                     41                     42
                      A                      A                      A
 Frequencies --   1192.6963              1198.6170              1229.7289
 Red. masses --      1.2898                 1.4458                 1.5698
 Frc consts  --      1.0810                 1.2238                 1.3987
 IR Inten    --      6.6923                 5.1500                27.5086

                     43                     44                     45
                      A                      A                      A
 Frequencies --   1242.6195              1278.8572              1296.3577
 Red. masses --      1.6469                 1.2712                 1.3199
 Frc consts  --      1.4982                 1.2249                 1.3069
 IR Inten    --     21.0322                 3.4245                53.1323

                     46                     47                     48
                      A                      A                      A
 Frequencies --   1310.3628              1335.8488              1365.6719
 Red. masses --      1.2748                 1.1978                 1.2372
 Frc consts  --      1.2897                 1.2593                 1.3595
 IR Inten    --      9.3221                 0.8639                 7.2604

                     49                     50                     51
                      A                      A                      A
 Frequencies --   1393.8990              1405.1339              1409.9071
 Red. masses --      1.3976                 1.2506                 1.3369
 Frc consts  --      1.5999                 1.4548                 1.5657
 IR Inten    --      6.6326                 2.4643                11.4894

                     52                     53                     54
                      A                      A                      A
 Frequencies --   1424.1035              1436.9245              1445.7127
 Red. masses --      1.3461                 1.3098                 1.2264
 Frc consts  --      1.6085                 1.5934                 1.5102
 IR Inten    --      7.7320                13.1110                92.3275

                     55                     56                     57
                      A                      A                      A
 Frequencies --   1447.8852              1498.9354              1509.0461
 Red. masses --      1.3630                 1.1482                 1.1340
 Frc consts  --      1.6835                 1.5199                 1.5215
 IR Inten    --      0.9809                 6.1560                 0.2221

                     58                     59                     60
                      A                      A                      A
 Frequencies --   1514.3264              1515.4012              1519.6071
 Red. masses --      1.0669                 1.0507                 1.0563
 Frc consts  --      1.4415                 1.4217                 1.4371
 IR Inten    --      2.9423                 8.9607                 5.7755

                     61                     62                     63
                      A                      A                      A
 Frequencies --   1523.4065              1526.9218              1531.8582
 Red. masses --      1.0718                 1.0680                 1.0564
 Frc consts  --      1.4655                 1.4671                 1.4606
 IR Inten    --      4.8936                11.8903                 2.4636

                     64                     65                     66
                      A                      A                      A
 Frequencies --   1538.6062              1544.0339              1552.9850
 Red. masses --      1.0588                 1.0803                 1.0844
 Frc consts  --      1.4768                 1.5174                 1.5409
 IR Inten    --      8.3400                 4.9928                 8.4333

                     67                     68                     69
                      A                      A                      A
 Frequencies --   2993.4399              3004.0258              3029.4803
 Red. masses --      1.0424                 1.0490                 1.0399
 Frc consts  --      5.5035                 5.5775                 5.6229
 IR Inten    --     32.8832                61.1169                43.4633

                     70                     71                     72
                      A                      A                      A
 Frequencies --   3036.0828              3044.9087              3048.1645
 Red. masses --      1.1055                 1.1056                 1.0448
 Frc consts  --      6.0042                 6.0393                 5.7193
 IR Inten    --     73.3753                34.7083                18.5256

                     73                     74                     75
                      A                      A                      A
 Frequencies --   3048.7815              3061.8249              3067.7598
 Red. masses --      1.0687                 1.0642                 1.0611
 Frc consts  --      5.8527                 5.8783                 5.8834
 IR Inten    --      8.7026                81.5851                 7.9443

                     76                     77                     78
                      A                      A                      A
 Frequencies --   3072.8312              3096.6310              3110.9670
 Red. masses --      1.0854                 1.0964                 1.1087
 Frc consts  --      6.0386                 6.1943                 6.3217
 IR Inten    --     20.2407                55.9619                17.9109

                     79                     80                     81
                      A                      A                      A
 Frequencies --   3117.3496              3123.9387              3135.2866
 Red. masses --      1.1014                 1.1056                 1.1020
 Frc consts  --      6.3064                 6.3571                 6.3823
 IR Inten    --     40.0611                28.3072                33.9427

                     82                     83                     84
                      A                      A                      A
 Frequencies --   3139.1130              3140.7764              3689.3752
 Red. masses --      1.1043                 1.0976                 1.0649
 Frc consts  --      6.4112                 6.3794                 8.5405
 IR Inten    --     35.3102                26.8464                29.5379

 - Thermochemistry -
 -------------------
 Temperature   298.150 Kelvin.  Pressure   1.00000 Atm.
 Atom     1 has atomic number  6 and mass  12.00000

 Molecular mass:   178.12051 amu.
 Principal axes and moments of inertia in atomic units:
                           1         2         3
     Eigenvalues --  1397.356673651.514454193.15993
           X            0.99990   0.01167  -0.00751
           Y           -0.01195   0.99918  -0.03856
           Z            0.00705   0.03865   0.99923
 This molecule is an asymmetric top.
 Rotational symmetry number  1.
 Warning -- assumption of classical behavior for rotation
           may cause significant error
 Rotational temperatures (Kelvin)      0.06198     0.02372     0.02066
 Rotational constants (GHZ):           1.29154     0.49424     0.43040
 Zero-point vibrational energy     700412.9 (Joules/Mol)
                                  167.40270 (Kcal/Mol)
 Warning -- explicit consideration of  21 degrees of freedom as
           vibrations may cause significant error
 Vibrational temperatures:     42.14    50.89    65.18    82.78   112.42
          (Kelvin)            167.01   191.62   252.75   273.62   285.03
                              351.78   369.10   394.05   460.75   467.35
                              528.79   600.07   606.19   652.70   697.18
                              740.36   950.62   968.66  1165.71  1191.66
                             1317.44  1328.51  1353.54  1369.55  1427.48
                             1486.32  1527.27  1567.43  1598.55  1635.12
                             1662.79  1681.00  1696.88  1699.26  1716.02
                             1724.54  1769.31  1787.85  1839.99  1865.17
                             1885.32  1921.99  1964.90  2005.51  2021.67
                             2028.54  2048.97  2067.41  2080.06  2083.18
                             2156.63  2171.18  2178.78  2180.32  2186.38
                             2191.84  2196.90  2204.00  2213.71  2221.52
                             2234.40  4306.89  4322.12  4358.75  4368.25
                             4380.94  4385.63  4386.52  4405.28  4413.82
                             4421.12  4455.36  4475.99  4485.17  4494.65
                             4510.98  4516.48  4518.88  5308.19

 Zero-point correction=                           0.266773 (Hartree/Particle)
 Thermal correction to Energy=                    0.281803
 Thermal correction to Enthalpy=                  0.282747
 Thermal correction to Gibbs Free Energy=         0.222943
 Sum of electronic and zero-point Energies=           -616.300849
 Sum of electronic and thermal Energies=              -616.285819
 Sum of electronic and thermal Enthalpies=            -616.284874
 Sum of electronic and thermal Free Energies=         -616.344679

                     E (Thermal)             CV                S
                      KCal/Mol        Cal/Mol-Kelvin    Cal/Mol-Kelvin
 Total                  176.834             52.559            125.869
 Electronic               0.000              0.000              0.000
 Translational            0.889              2.981             41.439
 Rotational               0.889              2.981             31.437
 Vibrational            175.057             46.597             52.993
 Vibration     1          0.593              1.984              5.877
 Vibration     2          0.594              1.982              5.503
 Vibration     3          0.595              1.979              5.013
 Vibration     4          0.596              1.974              4.540
 Vibration     5          0.599              1.964              3.937
 Vibration     6          0.608              1.936              3.165
 Vibration     7          0.613              1.920              2.900
 Vibration     8          0.628              1.872              2.374
 Vibration     9          0.633              1.853              2.226
 Vibration    10          0.637              1.843              2.151
 Vibration    11          0.660              1.772              1.770
 Vibration    12          0.666              1.752              1.685
 Vibration    13          0.676              1.722              1.572
 Vibration    14          0.706              1.635              1.309
 Vibration    15          0.709              1.626              1.286
 Vibration    16          0.740              1.539              1.090
 Vibration    17          0.780              1.433              0.902
 Vibration    18          0.784              1.424              0.887
 Vibration    19          0.812              1.353              0.785
 Vibration    20          0.841              1.284              0.698
 Vibration    21          0.870              1.218              0.623

 Optimization completed.
    -- Stationary point found.

 1\1\GINC-NODE108\Freq\RB3LYP\6-31G(d)\C8H18O4\VSC10255\09-Dec-2020\0\\
 #N Geom=AllCheck Guess=TCheck SCRF=Check GenChk RB3LYP/6-31G(d) Freq\\
 CID_57847786_JID_2290_neutraal\\0,1\C,0.6255867819,0.193845602,-0.0554
 156409\C,0.6089619222,-0.7801815764,1.1247431539\C,1.8533261669,-0.688
 8031168,2.011787641\O,1.8402125627,0.5437716704,2.7390243991\C,2.67847
 11403,1.5835976217,2.2429098282\C,3.8960214744,1.7542986017,3.16378138
 26\C,4.776303817,0.506947795,3.2183993411\O,5.0776948049,0.0463300373,
 1.9088547475\C,5.8803679229,-1.1162285889,1.9207947066\O,4.6033273231,

 Normal termination of Gaussian 16 at Wed Dec  9 17:10:00 2020.

 ----------------------------------------------------------------------
 # B3LYP/6-311++G(d,p) empiricaldispersion=gd3bj scf=xqc pop=npa geom=c
 heck
 ----------------------------------------------------------------------

 --------------------------------------
 CID_57847786_JID_2290_Energie_neutraal
 --------------------------------------
 Structure from the checkpoint file:  "JID_2290.chk"
 Charge =  0 Multiplicity = 1

 SCF Done:  E(RB3LYP) =  -616.763728547     A.U. after   13 cycles
 Normal termination of Gaussian 16 at Wed Dec  9 17:13:33 2020.

 ----------------------------------------------------------------------
 # B3LYP/6-311++G(d,p) empiricaldispersion=gd3bj scf=xqc pop=npa geom=c
 heck
 ----------------------------------------------------------------------

 ------------------------------------
 CID_57847786_JID_2290_Energie_kation
 ------------------------------------
 Structure from the checkpoint file:  "JID_2290.chk"
 Charge =  1 Multiplicity = 2

 SCF Done:  E(UB3LYP) =  -616.445594354     A.U. after   22 cycles
 Normal termination of Gaussian 16 at Wed Dec  9 17:21:30 2020.
 Gaussian 16:  ES64L-G16RevA.03 25-Dec-2016

 -----------------------------------
 CID_57847786_JID_2290_Energie_anion
 -----------------------------------
 Structure from the checkpoint file:  "JID_2290.chk"
 Charge = -1 Multiplicity = 2

                         Standard orientation:
 ---------------------------------------------------------------------
 Center     Atomic      Atomic             Coordinates (Angstroms)
 Number     Number       Type             X           Y           Z
 ---------------------------------------------------------------------
      1          6           0       -2.814642   -0.399355    1.555198
      2          6           0       -2.922813    0.437395    0.278511
      3          6           0       -1.568852    0.759179   -0.359364
      4          8           0       -1.002220   -0.430025   -0.918836
      5          6           0        0.022260   -1.064605   -0.158708
      6          6           0        1.386240   -0.828135   -0.824448
      7          6           0        1.769913    0.649555   -0.879138
      8          8           0        1.613905    1.257189    0.395364
      9          6           0        1.947155    2.630017    0.379350
     10          8           0        2.393958   -1.673929   -0.285405
     11          6           0        2.782390   -1.441832    1.061788
     12          8           0       -3.745315   -0.211241   -0.685483
     13          1           0       -2.345238   -1.366823    1.345370
     14          1           0       -3.814308   -0.592505    1.955290
     15          1           0       -2.222541    0.112514    2.323803
     16          1           0       -3.420789    1.387269    0.512792
     17          1           0       -1.727259    1.447068   -1.197405
     18          1           0       -0.874568    1.221179    0.351062
     19          1           0        0.020487   -0.702955    0.873076
     20          1           0       -0.173861   -2.142395   -0.147728
     21          1           0        1.295174   -1.157694   -1.865978
     22          1           0        2.813037    0.736128   -1.221333
     23          1           0        1.127130    1.156593   -1.615577
     24          1           0        2.998079    2.786948    0.091286
     25          1           0        1.307913    3.190607   -0.320755
     26          1           0        1.792404    3.012895    1.391050
     27          1           0        3.199361   -0.439237    1.205866
     28          1           0        1.950404   -1.571815    1.767408
     29          1           0        3.547416   -2.190340    1.284026
     30          1           0       -3.165361   -0.876700   -1.096516
 ---------------------------------------------------------------------

 SCF Done:  E(UB3LYP) =  -616.750768008     A.U. after   25 cycles

 The electronic state is 2-A.
 Alpha  occ. eigenvalues --  -19.03913 -19.03098 -19.03022 -19.02406 -10.12929
 Alpha  occ. eigenvalues --  -10.12604 -10.12362 -10.12019 -10.11875 -10.10933
 Alpha  occ. eigenvalues --  -10.10743 -10.06606  -0.95614  -0.94640  -0.93415
 Alpha  occ. eigenvalues --   -0.92254  -0.69262  -0.66755  -0.62339  -0.60429
 Alpha  occ. eigenvalues --   -0.56726  -0.55269  -0.50393  -0.47909  -0.42287
 Alpha  occ. eigenvalues --   -0.41928  -0.40336  -0.39207  -0.38958  -0.37675
 Alpha  occ. eigenvalues --   -0.36094  -0.35285  -0.34293  -0.33182  -0.32793
 Alpha  occ. eigenvalues --   -0.30851  -0.30021  -0.29334  -0.28427  -0.27634
 Alpha  occ. eigenvalues --   -0.27326  -0.24194  -0.23512  -0.22610  -0.21649
 Alpha  occ. eigenvalues --   -0.19603  -0.17830  -0.16913  -0.15290   0.04400
 Alpha virt. eigenvalues --    0.06805   0.07178   0.07644   0.08789   0.09203
 Alpha virt. eigenvalues --    0.09890   0.09948   0.10329   0.11024   0.12004
 Alpha virt. eigenvalues --    0.12373   0.12805   0.13247   0.13508   0.14016

  Beta  occ. eigenvalues --  -19.03909 -19.03087 -19.03019 -19.02402 -10.12925
  Beta  occ. eigenvalues --  -10.12594 -10.12352 -10.11999 -10.11858 -10.10907
  Beta  occ. eigenvalues --  -10.10681 -10.06581  -0.95603  -0.94628  -0.93403
  Beta  occ. eigenvalues --   -0.92243  -0.69239  -0.66724  -0.62298  -0.60379
  Beta  occ. eigenvalues --   -0.56680  -0.55171  -0.50359  -0.47870  -0.42257
  Beta  occ. eigenvalues --   -0.41895  -0.40315  -0.39168  -0.38910  -0.37646
  Beta  occ. eigenvalues --   -0.36058  -0.35255  -0.34260  -0.33146  -0.32756
  Beta  occ. eigenvalues --   -0.30831  -0.29984  -0.29307  -0.28402  -0.27608
  Beta  occ. eigenvalues --   -0.27295  -0.24162  -0.23477  -0.22573  -0.21619
  Beta  occ. eigenvalues --   -0.19587  -0.17814  -0.16889  -0.15273
  Beta virt. eigenvalues --    0.06626   0.07651   0.07810   0.08060   0.09283
  Beta virt. eigenvalues --    0.09708   0.10202   0.10611   0.10642   0.11450
  Beta virt. eigenvalues --    0.12394   0.12874   0.13263   0.13467   0.14005

 Mulliken charges and spin densities:
               1          2
     1  C    0.352623  -0.775027
     2  C    0.310059  -0.618981
     3  C   -0.527850   0.322216
     4  O   -0.079184  -0.004188
     5  C   -0.431202   0.151090
     6  C   -0.476278  -0.194488
     7  C   -0.027564  -0.183225
     8  O   -0.156237   0.078601
     9  C    1.393520  -1.649974
    10  O   -0.071951   0.025464
    11  C    0.567209  -0.815581
    12  O   -0.219341   0.021789
    13  H   -0.099282   0.253048
    14  H   -0.051141   0.213916
    15  H   -0.251022   0.397453
    16  H   -0.197929   0.382754
    17  H   -0.257222   0.442294
    18  H    0.470333  -0.323558
    19  H    0.757764  -0.559487
    20  H    0.013719   0.161561
    21  H    0.006636   0.204891
    22  H   -0.144423   0.325326
    23  H    0.117825   0.029687
    24  H   -0.624635   0.759689
    25  H   -0.397922   0.531148
    26  H   -0.586842   0.750536
    27  H   -0.092363   0.254942
    28  H   -0.373160   0.500461
    29  H   -0.164802   0.311523
    30  H    0.240662   0.006117
 Sum of Mulliken charges =  -1.00000   1.00000

 Dipole moment (field-independent basis, Debye):
    X=             -2.1916    Y=             -4.7859    Z=             -2.5229  Tot=              5.8372
 Quadrupole moment (field-independent basis, Debye-Ang):
   XX=           -145.9817   YY=           -126.9239   ZZ=           -112.1920
   XY=             -5.6397   XZ=             -3.1704   YZ=             -0.9540

 Summary of Natural Population Analysis:

                                       Natural Population
                Natural  -----------------------------------------------
    Atom  No    Charge         Core      Valence    Rydberg      Total
 -----------------------------------------------------------------------
      C    1   -0.30044      0.99965     2.29431    0.00649     3.30044
      C    2    0.04841      0.99959     1.93783    0.01417     2.95159
      C    3   -0.02446      0.99955     2.01160    0.01332     3.02446
      O    4   -0.31580      0.99989     3.30590    0.01002     4.31580
      C    5   -0.01996      0.99954     2.00919    0.01123     3.01996
      C    6    0.05062      0.99953     1.93496    0.01489     2.94938
      C    7   -0.02662      0.99956     2.01417    0.01289     3.02662
      O    8   -0.30573      0.99988     3.29596    0.00989     4.30573
      C    9   -0.09745      0.99962     2.08824    0.00959     3.09745
      O   10   -0.30322      0.99989     3.29306    0.01028     4.30322
      C   11   -0.10149      0.99960     2.09177    0.01012     3.10149
      O   12   -0.37541      0.99990     3.36874    0.00678     4.37541
      H   13    0.09721      0.00000     0.40163    0.00116     0.40279
      H   14    0.10219      0.00000     0.39685    0.00096     0.39781
      H   15    0.10277      0.00000     0.39589    0.00134     0.39723
      H   16    0.08715      0.00000     0.41146    0.00139     0.41285
      H   17    0.09204      0.00000     0.40652    0.00144     0.40796
      H   18    0.09717      0.00000     0.40061    0.00222     0.40283
      H   19    0.09143      0.00000     0.40614    0.00243     0.40857
      H   20    0.08895      0.00000     0.40965    0.00140     0.41105
      H   21    0.09409      0.00000     0.40436    0.00155     0.40591
      H   22    0.08889      0.00000     0.40971    0.00140     0.41111
      H   23    0.08831      0.00000     0.41016    0.00153     0.41169
      H   24    0.08143      0.00000     0.41573    0.00284     0.41857
      H   25    0.08015      0.00000     0.41718    0.00268     0.41985
      H   26    0.09461      0.00000     0.40314    0.00225     0.40539
      H   27    0.08938      0.00000     0.40887    0.00175     0.41062
      H   28    0.07884      0.00000     0.41967    0.00149     0.42116
      H   29    0.08629      0.00000     0.41265    0.00106     0.41371
      H   30    0.23067      0.00000     0.26620    0.00313     0.26933
 =======================================================================
   * Total *   -0.00000     11.99618    36.84213    0.16169    49.00000

 Normal termination of Gaussian 16 at Wed Dec  9 17:31:07 2020.
