 Gaussian 16, Revision A.03,

 -----------------------------------------------------------
 # opt freq B3LYP/6-31G(d) empiricaldispersion=gd3bj scf=xqc
 -----------------------------------------------------------

 ------------------------------
 CID_78962016_JID_5188_neutraal
 ------------------------------
 Symbolic Z-matrix:
 Charge =  0 Multiplicity = 1

 SCF Done:  E(RB3LYP) =  -703.594267484     A.U. after   15 cycles
 SCF Done:  E(RB3LYP) =  -703.599295760     A.U. after   13 cycles
 SCF Done:  E(RB3LYP) =  -703.599531136     A.U. after   13 cycles
 SCF Done:  E(RB3LYP) =  -703.600040367     A.U. after   13 cycles
 SCF Done:  E(RB3LYP) =  -703.600524535     A.U. after   12 cycles
 SCF Done:  E(RB3LYP) =  -703.600677377     A.U. after   12 cycles
 SCF Done:  E(RB3LYP) =  -703.600827809     A.U. after   12 cycles
 SCF Done:  E(RB3LYP) =  -703.600906024     A.U. after   10 cycles
 SCF Done:  E(RB3LYP) =  -703.601010025     A.U. after   11 cycles
 SCF Done:  E(RB3LYP) =  -703.601024504     A.U. after   10 cycles
 SCF Done:  E(RB3LYP) =  -703.601900429     A.U. after    8 cycles
 SCF Done:  E(RB3LYP) =  -703.601901349     A.U. after    9 cycles
 SCF Done:  E(RB3LYP) =  -703.601901585     A.U. after    9 cycles
 SCF Done:  E(RB3LYP) =  -703.601901830     A.U. after    8 cycles
 SCF Done:  E(RB3LYP) =  -703.601901907     A.U. after    8 cycles
 Optimization completed.
    -- Stationary point found.
 Normal termination of Gaussian 16 at Thu Dec 10 15:01:16 2020.

 --------------------------------------------------------------------
 #N Geom=AllCheck Guess=TCheck SCRF=Check GenChk RB3LYP/6-31G(d) Freq
 --------------------------------------------------------------------

 Structure from the checkpoint file:  "JID_5188.chk"
 ------------------------------
 CID_78962016_JID_5188_neutraal
 ------------------------------
 Charge =  0 Multiplicity = 1

 SCF Done:  E(RB3LYP) =  -703.601901907     A.U. after    1 cycles

  Exact polarizability: 140.670 -11.454 128.353  -1.141  -2.799  93.341
 Approx polarizability: 199.561 -18.449 198.216   4.500 -15.003 148.705

                      1                      2                      3
                      A                      A                      A
 Frequencies --     26.4790                37.4387                64.3710
 Red. masses --      4.5803                 4.2990                 5.1292
 Frc consts  --      0.0019                 0.0036                 0.0125
 IR Inten    --      0.6238                 2.5823                 1.5684

                      4                      5                      6
                      A                      A                      A
 Frequencies --     73.3014               101.1165               119.4134
 Red. masses --      5.5118                 1.1153                 4.8734
 Frc consts  --      0.0174                 0.0067                 0.0409
 IR Inten    --      6.8385                 0.7114                 5.0652

                      7                      8                      9
                      A                      A                      A
 Frequencies --    136.3912               148.6179               161.3359
 Red. masses --      3.1054                 1.6988                 1.8548
 Frc consts  --      0.0340                 0.0221                 0.0284
 IR Inten    --      2.0496                 2.1666                 1.8398

                     10                     11                     12
                      A                      A                      A
 Frequencies --    174.4786               212.8448               232.1406
 Red. masses --      4.8731                 2.0474                 1.2940
 Frc consts  --      0.0874                 0.0546                 0.0411
 IR Inten    --      2.5442                 2.2556                 0.4114

                     13                     14                     15
                      A                      A                      A
 Frequencies --    249.3970               267.5627               289.8133
 Red. masses --      2.9817                 2.6131                 3.1871
 Frc consts  --      0.1093                 0.1102                 0.1577
 IR Inten    --      0.8013                 0.2093                 9.6554

                     16                     17                     18
                      A                      A                      A
 Frequencies --    336.4084               357.2495               451.9084
 Red. masses --      3.9313                 6.0484                 6.7720
 Frc consts  --      0.2621                 0.4548                 0.8148
 IR Inten    --      0.0546                 1.6639                 4.0188

                     19                     20                     21
                      A                      A                      A
 Frequencies --    458.0374               488.8246               545.3233
 Red. masses --      3.4216                 6.3956                 3.9192
 Frc consts  --      0.4229                 0.9004                 0.6867
 IR Inten    --      5.4389                 6.4458                10.7985

                     22                     23                     24
                      A                      A                      A
 Frequencies --    588.4768               604.9704               630.3647
 Red. masses --      4.1178                 1.3391                 4.7585
 Frc consts  --      0.8402                 0.2888                 1.1141
 IR Inten    --      0.6310                76.4148                 5.6430

                     25                     26                     27
                      A                      A                      A
 Frequencies --    635.2978               705.2540               739.6525
 Red. masses --      5.4994                 4.4296                 4.7947
 Frc consts  --      1.3077                 1.2981                 1.5455
 IR Inten    --      5.3922                 9.2192                32.5973

                     28                     29                     30
                      A                      A                      A
 Frequencies --    757.0820               759.8091               812.4545
 Red. masses --      4.5894                 4.7761                 3.4364
 Frc consts  --      1.5499                 1.6245                 1.3364
 IR Inten    --     14.7831                 3.6307                 4.8272

                     31                     32                     33
                      A                      A                      A
 Frequencies --    896.3064               916.6222               951.7519
 Red. masses --      2.3874                 4.5992                 2.0498
 Frc consts  --      1.1300                 2.2767                 1.0940
 IR Inten    --      0.7205                 8.3199                 6.8363

                     34                     35                     36
                      A                      A                      A
 Frequencies --   1016.3084              1035.2245              1042.1128
 Red. masses --      2.2178                 2.2134                 1.7017
 Frc consts  --      1.3497                 1.3976                 1.0888
 IR Inten    --      6.2158                14.7971                 4.1907

                     37                     38                     39
                      A                      A                      A
 Frequencies --   1078.0224              1080.0714              1091.7604
 Red. masses --      1.5220                 1.5072                 2.5934
 Frc consts  --      1.0421                 1.0359                 1.8213
 IR Inten    --      1.5267                 1.2096                19.5080

                     40                     41                     42
                      A                      A                      A
 Frequencies --   1100.4744              1122.3237              1142.0434
 Red. masses --      2.4511                 2.6126                 2.0568
 Frc consts  --      1.7489                 1.9389                 1.5806
 IR Inten    --      3.0166                20.5740                10.6629

                     43                     44                     45
                      A                      A                      A
 Frequencies --   1244.8662              1281.6238              1297.7924
 Red. masses --      3.9109                 1.2843                 1.3639
 Frc consts  --      3.5709                 1.2429                 1.3534
 IR Inten    --     49.4417                 8.2632                12.7023

                     46                     47                     48
                      A                      A                      A
 Frequencies --   1313.1961              1351.5506              1371.5668
 Red. masses --      3.7661                 1.3559                 1.8369
 Frc consts  --      3.8265                 1.4593                 2.0359
 IR Inten    --      7.1654                 2.4309               130.4426

                     49                     50                     51
                      A                      A                      A
 Frequencies --   1410.5374              1432.0744              1439.4229
 Red. masses --      1.8761                 1.3012                 1.2588
 Frc consts  --      2.1993                 1.5723                 1.5367
 IR Inten    --     53.0679                 0.9318                15.7069

                     52                     53                     54
                      A                      A                      A
 Frequencies --   1444.9068              1480.1196              1492.1171
 Red. masses --      1.3046                 2.8215                 1.7012
 Frc consts  --      1.6048                 3.6418                 2.2315
 IR Inten    --      3.2259                58.4923                87.2581

                     55                     56                     57
                      A                      A                      A
 Frequencies --   1502.5227              1504.7023              1508.8060
 Red. masses --      1.0425                 1.4826                 1.0475
 Frc consts  --      1.3866                 1.9777                 1.4050
 IR Inten    --      5.5096                 2.8845                 9.4578

                     58                     59                     60
                      A                      A                      A
 Frequencies --   1513.3087              1522.0354              1525.7231
 Red. masses --      1.1275                 1.0649                 1.0880
 Frc consts  --      1.5213                 1.4535                 1.4923
 IR Inten    --      7.3615                14.6628                 6.8341

                     61                     62                     63
                      A                      A                      A
 Frequencies --   1534.4687              1566.9323              1694.3531
 Red. masses --      1.0671                 3.4856                 7.7136
 Frc consts  --      1.4804                 5.0422                13.0472
 IR Inten    --      3.9324                 1.9455                60.0197

                     64                     65                     66
                      A                      A                      A
 Frequencies --   1794.5671              2360.6769              3055.2234
 Red. masses --      8.4461                12.6494                 1.0394
 Frc consts  --     16.0261                41.5331                 5.7163
 IR Inten    --    414.3330                 9.2897                16.5380

                     67                     68                     69
                      A                      A                      A
 Frequencies --   3061.2708              3064.6322              3075.3829
 Red. masses --      1.0394                 1.0644                 1.0340
 Frc consts  --      5.7392                 5.8901                 5.7622
 IR Inten    --      6.0967                26.4775                10.9544

                     70                     71                     72
                      A                      A                      A
 Frequencies --   3097.4429              3111.9593              3119.4499
 Red. masses --      1.0836                 1.0987                 1.1015
 Frc consts  --      6.1255                 6.2690                 6.3155
 IR Inten    --      0.7202                10.4715                 4.9166

                     73                     74                     75
                      A                      A                      A
 Frequencies --   3119.8636              3151.6768              3153.6054
 Red. masses --      1.0960                 1.1013                 1.1036
 Frc consts  --      6.2855                 6.4453                 6.4667
 IR Inten    --     17.8968                 8.9068                20.1688

                     76                     77                     78
                      A                      A                      A
 Frequencies --   3156.0204              3157.9499              3587.8248
 Red. masses --      1.1042                 1.1012                 1.0761
 Frc consts  --      6.4798                 6.4703                 8.1611
 IR Inten    --      8.8510                 6.1262                27.1602

 - Thermochemistry -
 -------------------
 Temperature   298.150 Kelvin.  Pressure   1.00000 Atm.
 Atom     1 has atomic number  6 and mass  12.00000

 Molecular mass:   207.10078 amu.
 Principal axes and moments of inertia in atomic units:
                           1         2         3
     Eigenvalues --  1897.140445078.984295743.82238
           X            0.99944  -0.03108  -0.01238
           Y            0.03189   0.99693   0.07157
           Z            0.01012  -0.07192   0.99736
 This molecule is an asymmetric top.
 Rotational symmetry number  1.
 Warning -- assumption of classical behavior for rotation
           may cause significant error
 Rotational temperatures (Kelvin)      0.04565     0.01705     0.01508
 Rotational constants (GHZ):           0.95130     0.35534     0.31421
 Zero-point vibrational energy     592983.0 (Joules/Mol)
                                  141.72633 (Kcal/Mol)
 Warning -- explicit consideration of  23 degrees of freedom as
           vibrations may cause significant error
 Vibrational temperatures:     38.10    53.87    92.62   105.46   145.48
          (Kelvin)            171.81   196.24   213.83   232.13   251.04
                              306.24   334.00   358.83   384.96   416.98
                              484.02   514.00   650.20   659.01   703.31
                              784.60   846.69   870.42   906.95   914.05
                             1014.70  1064.19  1089.27  1093.20  1168.94
                             1289.58  1318.81  1369.36  1462.24  1489.46
                             1499.37  1551.03  1553.98  1570.80  1583.34
                             1614.77  1643.15  1791.08  1843.97  1867.23
                             1889.40  1944.58  1973.38  2029.45  2060.44
                             2071.01  2078.90  2129.56  2146.82  2161.80
                             2164.93  2170.84  2177.31  2189.87  2195.18
                             2207.76  2254.47  2437.80  2581.98  3396.49
                             4395.78  4404.49  4409.32  4424.79  4456.53
                             4477.42  4488.19  4488.79  4534.56  4537.33
                             4540.81  4543.59  5162.08

 Zero-point correction=                           0.225855 (Hartree/Particle)
 Thermal correction to Energy=                    0.241719
 Thermal correction to Enthalpy=                  0.242663
 Thermal correction to Gibbs Free Energy=         0.181232
 Sum of electronic and zero-point Energies=           -703.376047
 Sum of electronic and thermal Energies=              -703.360183
 Sum of electronic and thermal Enthalpies=            -703.359239
 Sum of electronic and thermal Free Energies=         -703.420670

                     E (Thermal)             CV                S
                      KCal/Mol        Cal/Mol-Kelvin    Cal/Mol-Kelvin
 Total                  151.681             56.221            129.293
 Electronic               0.000              0.000              0.000
 Translational            0.889              2.981             41.888
 Rotational               0.889              2.981             32.381
 Vibrational            149.903             50.259             55.024
 Vibration     1          0.593              1.985              6.077
 Vibration     2          0.594              1.982              5.390
 Vibration     3          0.597              1.971              4.318
 Vibration     4          0.599              1.967              4.063
 Vibration     5          0.604              1.948              3.433
 Vibration     6          0.609              1.933              3.110
 Vibration     7          0.614              1.917              2.854
 Vibration     8          0.618              1.904              2.690
 Vibration     9          0.622              1.890              2.534
 Vibration    10          0.627              1.874              2.387
 Vibration    11          0.644              1.821              2.019
 Vibration    12          0.653              1.792              1.862
 Vibration    13          0.662              1.764              1.735
 Vibration    14          0.673              1.733              1.612
 Vibration    15          0.686              1.693              1.475
 Vibration    16          0.717              1.603              1.229
 Vibration    17          0.732              1.560              1.134
 Vibration    18          0.811              1.357              0.790
 Vibration    19          0.816              1.343              0.772
 Vibration    20          0.845              1.275              0.687
 Vibration    21          0.900              1.150              0.554
 Vibration    22          0.946              1.056              0.470
 Vibration    23          0.964              1.021              0.441

 Optimization completed.
    -- Stationary point found.
 Normal termination of Gaussian 16 at Thu Dec 10 15:10:12 2020.

 ----------------------------------------------------------------------
 # B3LYP/6-311++G(d,p) empiricaldispersion=gd3bj scf=xqc pop=npa geom=c
 heck
 ----------------------------------------------------------------------

 --------------------------------------
 CID_78962016_JID_5188_Energie_neutraal
 --------------------------------------
 Structure from the checkpoint file:  "JID_5188.chk"
 Charge =  0 Multiplicity = 1

 SCF Done:  E(RB3LYP) =  -703.801008020     A.U. after   16 cycles
 Normal termination of Gaussian 16 at Thu Dec 10 15:14:28 2020.

 ----------------------------------------------------------------------
 # B3LYP/6-311++G(d,p) empiricaldispersion=gd3bj scf=xqc pop=npa geom=c
 heck
 ----------------------------------------------------------------------

 ------------------------------------
 CID_78962016_JID_5188_Energie_kation
 ------------------------------------
 Structure from the checkpoint file:  "JID_5188.chk"
 Charge =  1 Multiplicity = 2

 SCF Done:  E(UB3LYP) =  -703.465674224     A.U. after   28 cycles
 Normal termination of Gaussian 16 at Thu Dec 10 15:26:36 2020.
 Gaussian 16:  ES64L-G16RevA.03 25-Dec-2016

 ----------------------------------------------------------------------
 # B3LYP/6-311++G(d,p) empiricaldispersion=gd3bj scf=xqc pop=npa geom=c
 heck
 ----------------------------------------------------------------------

 -----------------------------------
 CID_78962016_JID_5188_Energie_anion
 -----------------------------------
 Structure from the checkpoint file:  "JID_5188.chk"
 Charge = -1 Multiplicity = 2

                         Standard orientation:
 ---------------------------------------------------------------------
 Center     Atomic      Atomic             Coordinates (Angstroms)
 Number     Number       Type             X           Y           Z
 ---------------------------------------------------------------------
      1          6           0       -2.847138    2.297837    0.355940
      2          6           0       -2.570288    0.862008    0.080504
      3          6           0       -1.427906    0.148350   -0.146626
      4          6           0       -1.892083   -1.194228   -0.343484
      5          7           0       -3.197771   -1.273904   -0.244256
      6          8           0       -3.634960    0.035672    0.023643
      7          6           0       -1.073160   -2.411066   -0.634045
      8          6           0       -0.012042    0.623571   -0.167858
      9          7           0        0.721272    0.067133    0.975027
     10          6           0        2.045973   -0.214461    1.129087
     11          8           0        2.496094   -0.664654    2.172112
     12          6           0        2.995136   -0.033827   -0.080099
     13          6           0        2.895198   -1.239542   -1.041442
     14          6           0        2.831373    1.246062   -0.774668
     15          7           0        2.687508    2.262539   -1.317202
     16          1           0       -3.380504    2.415368    1.305539
     17          1           0       -1.914340    2.864693    0.407261
     18          1           0       -3.472773    2.731743   -0.431865
     19          1           0       -0.524246   -2.293826   -1.576335
     20          1           0       -0.335752   -2.582712    0.157313
     21          1           0       -1.718364   -3.288504   -0.716475
     22          1           0        0.476326    0.303214   -1.091040
     23          1           0        0.029280    1.718931   -0.162698
     24          1           0        0.185354   -0.079236    1.822732
     25          1           0        3.990627   -0.034849    0.374022
     26          1           0        1.912443   -1.297885   -1.516466
     27          1           0        3.653357   -1.166355   -1.825534
     28          1           0        3.062089   -2.157325   -0.471332
 ---------------------------------------------------------------------

 SCF Done:  E(UB3LYP) =  -703.795368626     A.U. after   33 cycles
 SCF Done:  E(UB3LYP) =  -703.795368625     a.u. after    1 cycles

 The electronic state is 2-A.
 Alpha  occ. eigenvalues --  -19.11780 -19.00691 -14.26932 -14.25795 -14.22495
 Alpha  occ. eigenvalues --  -10.19690 -10.16181 -10.13991 -10.13972 -10.13025
 Alpha  occ. eigenvalues --  -10.12479 -10.09945 -10.09898 -10.09138 -10.09091
 Alpha  occ. eigenvalues --   -1.05342  -0.96067  -0.84801  -0.82264  -0.79462
 Alpha  occ. eigenvalues --   -0.73778  -0.72416  -0.65814  -0.64231  -0.61502
 Alpha  occ. eigenvalues --   -0.59034  -0.51938  -0.51108  -0.48099  -0.45848
 Alpha  occ. eigenvalues --   -0.42819  -0.40069  -0.39173  -0.37916  -0.37823
 Alpha  occ. eigenvalues --   -0.35813  -0.35010  -0.34471  -0.33871  -0.33114
 Alpha  occ. eigenvalues --   -0.32302  -0.31900  -0.31514  -0.30203  -0.29887
 Alpha  occ. eigenvalues --   -0.29279  -0.28653  -0.27939  -0.25127  -0.24037
 Alpha  occ. eigenvalues --   -0.22319  -0.20474  -0.18308  -0.17873  -0.16707
 Alpha  occ. eigenvalues --    0.03804
 Alpha virt. eigenvalues --    0.05538   0.06570   0.07264   0.07859   0.08415
 Alpha virt. eigenvalues --    0.08997   0.09560   0.09586   0.10150   0.10500
 Alpha virt. eigenvalues --    0.11317   0.11807   0.12053   0.12512   0.12908

  Beta  occ. eigenvalues --  -19.11776 -19.00650 -14.26926 -14.25772 -14.22447
  Beta  occ. eigenvalues --  -10.19654 -10.16181 -10.13981 -10.13945 -10.13023
  Beta  occ. eigenvalues --  -10.12475 -10.09942 -10.09844 -10.09103 -10.08997
  Beta  occ. eigenvalues --   -1.05335  -0.95994  -0.84750  -0.82192  -0.79449
  Beta  occ. eigenvalues --   -0.73744  -0.72339  -0.65756  -0.64179  -0.61440
  Beta  occ. eigenvalues --   -0.58886  -0.51846  -0.51084  -0.48062  -0.45785
  Beta  occ. eigenvalues --   -0.42774  -0.40024  -0.39127  -0.37841  -0.37769
  Beta  occ. eigenvalues --   -0.35727  -0.34964  -0.34427  -0.33803  -0.33052
  Beta  occ. eigenvalues --   -0.32259  -0.31845  -0.31439  -0.30162  -0.29826
  Beta  occ. eigenvalues --   -0.29174  -0.28573  -0.27871  -0.24976  -0.23974
  Beta  occ. eigenvalues --   -0.22295  -0.20450  -0.18247  -0.17789  -0.16656
  Beta virt. eigenvalues --    0.06148   0.06643   0.06719   0.07753   0.08322
  Beta virt. eigenvalues --    0.08852   0.09364   0.10008   0.10136   0.10515
  Beta virt. eigenvalues --    0.10953   0.11744   0.12023   0.12248   0.12834

 Mulliken charges and spin densities:
               1          2
     1  C    1.247232  -1.804733
     2  C   -1.785219   1.649696
     3  C    0.458944   0.261313
     4  C   -0.417397   1.304354
     5  N   -0.501644   0.090719
     6  O    0.238317   0.004022
     7  C    0.755658  -1.204981
     8  C    0.619835  -2.261958
     9  N   -0.258444   0.077416
    10  C    0.248805  -0.339842
    11  O   -0.338943   0.028382
    12  C   -1.248419   1.700839
    13  C    1.169583  -1.769609
    14  C    0.974920  -1.087465
    15  N   -0.334359   0.026923
    16  H   -0.329457   0.509388
    17  H   -0.394596   0.561931
    18  H   -0.262382   0.444937
    19  H   -0.198122   0.373337
    20  H   -0.011954   0.197247
    21  H    0.018269   0.157447
    22  H   -0.118948   0.274715
    23  H    0.313380  -0.151723
    24  H    0.169273   0.149496
    25  H   -0.062170   0.342420
    26  H   -0.081896   0.228050
    27  H   -0.646623   0.830906
    28  H   -0.223645   0.406771
 Sum of Mulliken charges =  -1.00000   1.00000

 Dipole moment (field-independent basis, Debye):
    X=             -2.1114    Y=             -0.6884    Z=              1.0671  Tot=              2.4639
 Quadrupole moment (field-independent basis, Debye-Ang):
   XX=           -165.9710   YY=           -138.4333   ZZ=           -129.7876
   XY=              6.5669   XZ=              6.7760   YZ=             -1.2444

 Summary of Natural Population Analysis:

                                       Natural Population
                Natural  -----------------------------------------------
    Atom  No    Charge         Core      Valence    Rydberg      Total
 -----------------------------------------------------------------------
      C    1   -0.30966      0.99962     2.30429    0.00575     3.30966
      C    2    0.18872      0.99943     1.79752    0.01433     2.81128
      C    3   -0.09334      0.99939     2.08357    0.01038     3.09334
      C    4    0.09583      0.99956     1.89114    0.01347     2.90417
      N    5   -0.08646      0.99966     2.57456    0.01223     3.58646
      O    6   -0.17125      0.99985     3.16265    0.00876     4.17125
      C    7   -0.30268      0.99962     2.29775    0.00530     3.30268
      C    8   -0.09713      0.99957     2.08666    0.01090     3.09713
      N    9   -0.31490      0.99966     2.80521    0.01003     3.81490
      C   10    0.35770      0.99964     1.62002    0.02264     2.64230
      O   11   -0.31392      0.99988     3.30809    0.00595     4.31392
      C   12   -0.20307      0.99948     2.19298    0.01061     3.20307
      C   13   -0.27233      0.99964     2.26584    0.00686     3.27233
      C   14    0.15750      0.99964     1.82511    0.01775     2.84250
      N   15   -0.17522      0.99979     2.66387    0.01155     3.67522
      H   16    0.11460      0.00000     0.38377    0.00163     0.38540
      H   17    0.11253      0.00000     0.38604    0.00142     0.38747
      H   18    0.11378      0.00000     0.38481    0.00141     0.38622
      H   19    0.11058      0.00000     0.38792    0.00150     0.38942
      H   20    0.11160      0.00000     0.38706    0.00134     0.38840
      H   21    0.11124      0.00000     0.38767    0.00109     0.38876
      H   22    0.10874      0.00000     0.38887    0.00239     0.39126
      H   23    0.10574      0.00000     0.39241    0.00185     0.39426
      H   24    0.19809      0.00000     0.29957    0.00233     0.30191
      H   25    0.13348      0.00000     0.36489    0.00164     0.36652
      H   26    0.10149      0.00000     0.39601    0.00250     0.39851
      H   27    0.10948      0.00000     0.38758    0.00294     0.39052
      H   28    0.10884      0.00000     0.38954    0.00162     0.39116
 =======================================================================
   * Total *   -0.00000     14.99444    39.81540    0.19016    55.00000

 Normal termination of Gaussian 16 at Thu Dec 10 15:40:33 2020.
