 Gaussian 16, Revision A.03,

 -----------------------------------------------------------
 # opt freq B3LYP/6-31G(d) empiricaldispersion=gd3bj scf=xqc
 -----------------------------------------------------------

 -------------------------------
 CID_101537175_JID_4892_neutraal
 -------------------------------
 Symbolic Z-matrix:
 Charge =  0 Multiplicity = 1

 SCF Done:  E(RB3LYP) =  -655.708490905     A.U. after   15 cycles
 SCF Done:  E(RB3LYP) =  -655.711957285     A.U. after   12 cycles
 SCF Done:  E(RB3LYP) =  -655.711615590     A.U. after   12 cycles
 SCF Done:  E(RB3LYP) =  -655.712239790     A.U. after   12 cycles
 SCF Done:  E(RB3LYP) =  -655.712803231     A.U. after   11 cycles
 SCF Done:  E(RB3LYP) =  -655.712795323     A.U. after   11 cycles
 SCF Done:  E(RB3LYP) =  -655.712835626     A.U. after   10 cycles
 SCF Done:  E(RB3LYP) =  -655.712842978     A.U. after    9 cycles
 SCF Done:  E(RB3LYP) =  -655.712842639     A.U. after    9 cycles
 SCF Done:  E(RB3LYP) =  -655.712844439     A.U. after    9 cycles
 SCF Done:  E(RB3LYP) =  -655.712845228     A.U. after    8 cycles
 Optimization completed.
    -- Stationary point found.
 Normal termination of Gaussian 16 at Thu Dec 10 10:48:25 2020.

 --------------------------------------------------------------------
 #N Geom=AllCheck Guess=TCheck SCRF=Check GenChk RB3LYP/6-31G(d) Freq
 --------------------------------------------------------------------

 Structure from the checkpoint file:  "JID_4892.chk"
 -------------------------------
 CID_101537175_JID_4892_neutraal
 -------------------------------
 Charge =  0 Multiplicity = 1

 SCF Done:  E(RB3LYP) =  -655.712845228     A.U. after    1 cycles

  Exact polarizability: 153.842 -17.540 123.929   3.946  -3.994  98.472
 Approx polarizability: 192.509 -28.145 163.260   8.092  -5.109 157.323

                      1                      2                      3
                      A                      A                      A
 Frequencies --     26.3020                38.4573                59.8290
 Red. masses --      3.8539                 2.9832                 3.2501
 Frc consts  --      0.0016                 0.0026                 0.0069
 IR Inten    --      0.8867                 0.0405                 0.5699

                      4                      5                      6
                      A                      A                      A
 Frequencies --     76.8892               107.3870               115.3181
 Red. masses --      2.5393                 3.1512                 3.0393
 Frc consts  --      0.0088                 0.0214                 0.0238
 IR Inten    --      0.0977                 1.1741                 0.2656

                      7                      8                      9
                      A                      A                      A
 Frequencies --    129.0215               154.2459               203.4601
 Red. masses --      4.5812                 1.6435                 2.4565
 Frc consts  --      0.0449                 0.0230                 0.0599
 IR Inten    --      0.7822                 1.0789                 2.3041

                     10                     11                     12
                      A                      A                      A
 Frequencies --    208.0522               209.8257               251.3565
 Red. masses --      1.1846                 1.4499                 1.1888
 Frc consts  --      0.0302                 0.0376                 0.0443
 IR Inten    --      0.5681                 0.4875                 0.0370

                     13                     14                     15
                      A                      A                      A
 Frequencies --    263.3387               272.1237               283.5390
 Red. masses --      2.4952                 1.0850                 3.4994
 Frc consts  --      0.1019                 0.0473                 0.1658
 IR Inten    --      0.9214                 0.0958                 5.5871

                     16                     17                     18
                      A                      A                      A
 Frequencies --    302.1060               337.6015               352.9353
 Red. masses --      3.8257                 3.8525                 2.5054
 Frc consts  --      0.2057                 0.2587                 0.1839
 IR Inten    --      1.5416                15.0035                 1.2351

                     19                     20                     21
                      A                      A                      A
 Frequencies --    379.6881               408.7667               432.7513
 Red. masses --      3.1558                 2.5500                 2.8058
 Frc consts  --      0.2681                 0.2510                 0.3096
 IR Inten    --      0.2375                 1.8618                 3.0755

                     22                     23                     24
                      A                      A                      A
 Frequencies --    462.3480               464.6265               519.5585
 Red. masses --      2.9193                 2.4867                 2.7470
 Frc consts  --      0.3677                 0.3163                 0.4369
 IR Inten    --      1.5789                 2.8904                 5.2365

                     25                     26                     27
                      A                      A                      A
 Frequencies --    622.5266               677.4779               742.9512
 Red. masses --      2.1796                 2.7526                 6.6449
 Frc consts  --      0.4977                 0.7444                 2.1610
 IR Inten    --      5.0857                 2.4922                 6.4661

                     28                     29                     30
                      A                      A                      A
 Frequencies --    781.1559               788.7604               826.4430
 Red. masses --      5.4567                 3.5360                 2.0400
 Frc consts  --      1.9618                 1.2961                 0.8209
 IR Inten    --     20.5111                14.6396                 2.3940

                     31                     32                     33
                      A                      A                      A
 Frequencies --    897.0486               908.2874               937.9786
 Red. masses --      3.4981                 5.3515                 1.6325
 Frc consts  --      1.6585                 2.6012                 0.8462
 IR Inten    --    104.4853                19.1183                 0.1328

                     34                     35                     36
                      A                      A                      A
 Frequencies --    940.3755               944.0603               955.7426
 Red. masses --      1.6220                 1.3984                 1.6019
 Frc consts  --      0.8451                 0.7343                 0.8621
 IR Inten    --      4.0498                29.5861                12.7562

                     37                     38                     39
                      A                      A                      A
 Frequencies --    980.0472               983.5818              1018.2685
 Red. masses --      2.4944                 1.1979                 1.0916
 Frc consts  --      1.4116                 0.6828                 0.6668
 IR Inten    --     20.1630                 0.2191                43.4239

                     40                     41                     42
                      A                      A                      A
 Frequencies --   1027.5580              1066.6369              1067.1378
 Red. masses --      1.1088                 1.6157                 1.4062
 Frc consts  --      0.6898                 1.0830                 0.9435
 IR Inten    --     11.8992                 7.4973                 0.5764

                     43                     44                     45
                      A                      A                      A
 Frequencies --   1080.8199              1085.9293              1114.3942
 Red. masses --      1.5564                 1.8568                 2.9048
 Frc consts  --      1.0712                 1.2901                 2.1254
 IR Inten    --      0.8704                 5.9591                 4.5867

                     46                     47                     48
                      A                      A                      A
 Frequencies --   1157.1852              1168.9121              1219.5497
 Red. masses --      3.4752                 2.5920                 2.5596
 Frc consts  --      2.7418                 2.0867                 2.2429
 IR Inten    --    182.9485                15.2272               411.0497

                     49                     50                     51
                      A                      A                      A
 Frequencies --   1278.1450              1287.6859              1295.6983
 Red. masses --      1.2650                 2.6912                 3.0477
 Frc consts  --      1.2176                 2.6292                 3.0146
 IR Inten    --      4.4409                15.6611               230.8748

                     52                     53                     54
                      A                      A                      A
 Frequencies --   1316.2950              1332.5427              1341.3562
 Red. masses --      2.5369                 1.3776                 1.3057
 Frc consts  --      2.5897                 1.4412                 1.3842
 IR Inten    --    314.2314                51.3349                21.9188

                     55                     56                     57
                      A                      A                      A
 Frequencies --   1373.0751              1407.0661              1424.5241
 Red. masses --      1.4556                 1.3696                 1.2836
 Frc consts  --      1.6169                 1.5976                 1.5347
 IR Inten    --    100.0657                74.4940                17.1439

                     58                     59                     60
                      A                      A                      A
 Frequencies --   1428.2242              1441.7026              1453.2070
 Red. masses --      1.2950                 1.2679                 1.2373
 Frc consts  --      1.5563                 1.5527                 1.5395
 IR Inten    --     23.7473                 2.0629                18.9304

                     61                     62                     63
                      A                      A                      A
 Frequencies --   1467.4342              1500.2549              1509.8487
 Red. masses --      1.2017                 1.0466                 1.0452
 Frc consts  --      1.5247                 1.3880                 1.4038
 IR Inten    --      5.6345                 0.4265                 6.9309

                     64                     65                     66
                      A                      A                      A
 Frequencies --   1519.0381              1519.7894              1520.3551
 Red. masses --      1.0555                 1.0468                 1.0516
 Frc consts  --      1.4350                 1.4246                 1.4322
 IR Inten    --     10.4976                 1.0888                 0.8462

                     67                     68                     69
                      A                      A                      A
 Frequencies --   1525.7399              1534.8467              1556.7799
 Red. masses --      1.0661                 1.0528                 1.0556
 Frc consts  --      1.4622                 1.4613                 1.5073
 IR Inten    --     10.5756                 0.6956                14.4306

                     70                     71                     72
                      A                      A                      A
 Frequencies --   1734.0134              1753.7249              1812.8735
 Red. masses --      4.7843                 5.8213                11.2588
 Frc consts  --      8.4756                10.5486                21.8010
 IR Inten    --      1.9980                20.4138               210.5271

                     73                     74                     75
                      A                      A                      A
 Frequencies --   3035.3324              3058.4141              3059.9140
 Red. masses --      1.0377                 1.0840                 1.0360
 Frc consts  --      5.6328                 5.9744                 5.7149
 IR Inten    --     32.9229                18.3606                 8.9519

                     76                     77                     78
                      A                      A                      A
 Frequencies --   3060.7515              3068.1938              3082.5269
 Red. masses --      1.0378                 1.0380                 1.0999
 Frc consts  --      5.7282                 5.7572                 6.1578
 IR Inten    --     21.3399                19.6743                22.3751

                     79                     80                     81
                      A                      A                      A
 Frequencies --   3121.3788              3123.0169              3125.2362
 Red. masses --      1.0962                 1.1026                 1.1024
 Frc consts  --      6.2926                 6.3359                 6.3438
 IR Inten    --      2.3153                 8.0116                17.1613

                     82                     83                     84
                      A                      A                      A
 Frequencies --   3138.5614              3138.9799              3139.3339
 Red. masses --      1.1032                 1.1027                 1.0930
 Frc consts  --      6.4028                 6.4013                 6.3464
 IR Inten    --     29.3773                39.6793                41.4154

                     85                     86                     87
                      A                      A                      A
 Frequencies --   3164.4259              3172.1658              3175.3195
 Red. masses --      1.0749                 1.0998                 1.0992
 Frc consts  --      6.3416                 6.5206                 6.5300
 IR Inten    --     13.3383                 1.0127                12.9337

                     88                     89                     90
                      A                      A                      A
 Frequencies --   3178.4287              3219.7163              3253.9051
 Red. masses --      1.0748                 1.0898                 1.1164
 Frc consts  --      6.3972                 6.6563                 6.9646
 IR Inten    --      5.6862                 4.4930                14.6693

 - Thermochemistry -
 -------------------
 Temperature   298.150 Kelvin.  Pressure   1.00000 Atm.
 Atom     1 has atomic number  6 and mass  12.00000

 Molecular mass:   198.12559 amu.
 Principal axes and moments of inertia in atomic units:
                           1         2         3
     Eigenvalues --  1688.711654826.805625734.11439
           X            0.99996  -0.00897  -0.00021
           Y            0.00897   0.99996  -0.00302
           Z            0.00023   0.00302   1.00000
 This molecule is an asymmetric top.
 Rotational symmetry number  1.
 Warning -- assumption of classical behavior for rotation
           may cause significant error
 Rotational temperatures (Kelvin)      0.05129     0.01794     0.01511
 Rotational constants (GHZ):           1.06871     0.37390     0.31474
 Zero-point vibrational energy     721959.4 (Joules/Mol)
                                  172.55243 (Kcal/Mol)
 Warning -- explicit consideration of  24 degrees of freedom as
           vibrations may cause significant error
 Vibrational temperatures:     37.84    55.33    86.08   110.63   154.51
          (Kelvin)            165.92   185.63   221.93   292.73   299.34
                              301.89   361.65   378.89   391.53   407.95
                              434.66   485.73   507.80   546.29   588.12
                              622.63   665.22   668.49   747.53   895.68
                              974.74  1068.94  1123.91  1134.85  1189.07
                             1290.65  1306.82  1349.54  1352.99  1358.29
                             1375.10  1410.07  1415.15  1465.06  1478.43
                             1534.65  1535.37  1555.06  1562.41  1603.36
                             1664.93  1681.80  1754.66  1838.97  1852.69
                             1864.22  1893.85  1917.23  1929.91  1975.55
                             2024.45  2049.57  2054.90  2074.29  2090.84
                             2111.31  2158.53  2172.34  2185.56  2186.64
                             2187.45  2195.20  2208.30  2239.86  2494.86
                             2523.22  2608.32  4367.17  4400.38  4402.53
                             4403.74  4414.45  4435.07  4490.97  4493.32
                             4496.52  4515.69  4516.29  4516.80  4552.90
                             4564.04  4568.58  4573.05  4632.45  4681.64

 Zero-point correction=                           0.274980 (Hartree/Particle)
 Thermal correction to Energy=                    0.291548
 Thermal correction to Enthalpy=                  0.292492
 Thermal correction to Gibbs Free Energy=         0.230309
 Sum of electronic and zero-point Energies=           -655.437865
 Sum of electronic and thermal Energies=              -655.421297
 Sum of electronic and thermal Enthalpies=            -655.420353
 Sum of electronic and thermal Free Energies=         -655.482536

                     E (Thermal)             CV                S
                      KCal/Mol        Cal/Mol-Kelvin    Cal/Mol-Kelvin
 Total                  182.949             60.199            130.876
 Electronic               0.000              0.000              0.000
 Translational            0.889              2.981             41.756
 Rotational               0.889              2.981             32.214
 Vibrational            181.172             54.238             56.907
 Vibration     1          0.593              1.985              6.090
 Vibration     2          0.594              1.982              5.337
 Vibration     3          0.597              1.973              4.463
 Vibration     4          0.599              1.965              3.969
 Vibration     5          0.606              1.943              3.316
 Vibration     6          0.608              1.937              3.177
 Vibration     7          0.612              1.924              2.961
 Vibration     8          0.620              1.898              2.619
 Vibration     9          0.639              1.835              2.102
 Vibration    10          0.641              1.828              2.061
 Vibration    11          0.642              1.826              2.045
 Vibration    12          0.663              1.760              1.721
 Vibration    13          0.670              1.740              1.640
 Vibration    14          0.675              1.725              1.583
 Vibration    15          0.682              1.704              1.512
 Vibration    16          0.694              1.670              1.405
 Vibration    17          0.718              1.600              1.223
 Vibration    18          0.729              1.569              1.153
 Vibration    19          0.750              1.513              1.040
 Vibration    20          0.773              1.451              0.931
 Vibration    21          0.794              1.399              0.850
 Vibration    22          0.820              1.334              0.759
 Vibration    23          0.822              1.329              0.753
 Vibration    24          0.875              1.207              0.611

                           ! Non-Optimized Parameters !
 Normal termination of Gaussian 16 at Thu Dec 10 10:56:50 2020.

 ----------------------------------------------------------------------
 # B3LYP/6-311++G(d,p) empiricaldispersion=gd3bj scf=xqc pop=npa geom=c
 heck
 ----------------------------------------------------------------------

 ---------------------------------------
 CID_101537175_JID_4892_Energie_neutraal
 ---------------------------------------
 Structure from the checkpoint file:  "JID_4892.chk"
 Charge =  0 Multiplicity = 1

 SCF Done:  E(RB3LYP) =  -655.904671638     A.U. after   14 cycles
 Normal termination of Gaussian 16 at Thu Dec 10 11:01:08 2020.

 ----------------------------------------------------------------------
 # B3LYP/6-311++G(d,p) empiricaldispersion=gd3bj scf=xqc pop=npa geom=c
 heck
 ----------------------------------------------------------------------

 -------------------------------------
 CID_101537175_JID_4892_Energie_kation
 -------------------------------------
 Structure from the checkpoint file:  "JID_4892.chk"
 Charge =  1 Multiplicity = 2

 SCF Done:  E(UB3LYP) =  -655.578577238     A.U. after   24 cycles
 Normal termination of Gaussian 16 at Thu Dec 10 11:12:30 2020.
 Gaussian 16:  ES64L-G16RevA.03 25-Dec-2016

 ----------------------------------------------------------------------
 # B3LYP/6-311++G(d,p) empiricaldispersion=gd3bj scf=xqc pop=npa geom=c
 heck
 ----------------------------------------------------------------------

 ------------------------------------
 CID_101537175_JID_4892_Energie_anion
 ------------------------------------
 Structure from the checkpoint file:  "JID_4892.chk"
 Charge = -1 Multiplicity = 2

                         Standard orientation:
 ---------------------------------------------------------------------
 Center     Atomic      Atomic             Coordinates (Angstroms)
 Number     Number       Type             X           Y           Z
 ---------------------------------------------------------------------
      1          6           0        4.256197   -2.140203   -0.293334
      2          6           0        3.518985   -1.026330    0.388175
      3          6           0        2.532774   -0.314377   -0.161122
      4          6           0        1.850715    0.813323    0.568714
      5          6           0        1.884592    2.119361   -0.189286
      6          6           0        0.884401    2.990770   -0.287600
      7          8           0        0.504616    0.490236    1.017527
      8          6           0       -0.394983    0.099891    0.095553
      9          8           0       -0.181541   -0.072871   -1.085785
     10          8           0       -1.556866   -0.054062    0.741407
     11          6           0       -2.760951   -0.478058    0.007169
     12          6           0       -3.120095    0.569155   -1.048361
     13          6           0       -2.543740   -1.866292   -0.597036
     14          6           0       -3.816791   -0.523836    1.110629
     15          1           0        3.881774   -2.306117   -1.308361
     16          1           0        4.155405   -3.078940    0.267287
     17          1           0        5.331243   -1.924545   -0.354549
     18          1           0        3.828350   -0.799543    1.410485
     19          1           0        2.194256   -0.515795   -1.172177
     20          1           0        2.369855    0.957360    1.523839
     21          1           0        2.846368    2.331496   -0.654192
     22          1           0        1.001028    3.919162   -0.838363
     23          1           0       -0.082626    2.811459    0.172524
     24          1           0       -2.357677    0.620321   -1.826619
     25          1           0       -4.079171    0.309246   -1.509211
     26          1           0       -3.221584    1.555336   -0.582711
     27          1           0       -2.234966   -2.572563    0.180886
     28          1           0       -3.482895   -2.225549   -1.031484
     29          1           0       -1.781915   -1.841013   -1.377043
     30          1           0       -3.530410   -1.239632    1.887227
     31          1           0       -3.931806    0.460977    1.573709
     32          1           0       -4.781521   -0.828505    0.692565
 ---------------------------------------------------------------------

 SCF Done:  E(UB3LYP) =  -655.888915734     A.U. after   31 cycles

 The electronic state is 2-A.
 Alpha  occ. eigenvalues --  -19.07447 -19.07018 -19.01457 -10.25198 -10.15492
 Alpha  occ. eigenvalues --  -10.15372 -10.09345 -10.08940 -10.08059 -10.07787
 Alpha  occ. eigenvalues --  -10.07594 -10.07027 -10.06773 -10.06646  -1.04694
 Alpha  occ. eigenvalues --   -0.95891  -0.92982  -0.73766  -0.71706  -0.69221
 Alpha  occ. eigenvalues --   -0.63891  -0.60536  -0.60419  -0.58456  -0.53916
 Alpha  occ. eigenvalues --   -0.49512  -0.47278  -0.43268  -0.41931  -0.41813
 Alpha  occ. eigenvalues --   -0.39829  -0.38125  -0.37316  -0.36676  -0.35196
 Alpha  occ. eigenvalues --   -0.34577  -0.33276  -0.32357  -0.31379  -0.31115
 Alpha  occ. eigenvalues --   -0.30212  -0.29881  -0.28339  -0.27890  -0.27384
 Alpha  occ. eigenvalues --   -0.27112  -0.26507  -0.26322  -0.24811  -0.21666
 Alpha  occ. eigenvalues --   -0.21324  -0.19536  -0.17885  -0.16928   0.04250
 Alpha virt. eigenvalues --    0.05560   0.06635   0.07405   0.07816   0.08122
 Alpha virt. eigenvalues --    0.08338   0.08487   0.09327   0.09611   0.10049
 Alpha virt. eigenvalues --    0.10596   0.10901   0.11153   0.11751   0.12015

  Beta  occ. eigenvalues --  -19.07440 -19.07010 -19.01454 -10.25198 -10.15484
  Beta  occ. eigenvalues --  -10.15370 -10.09337 -10.08924 -10.08044 -10.07785
  Beta  occ. eigenvalues --  -10.07555 -10.06995 -10.06747 -10.06619  -1.04684
  Beta  occ. eigenvalues --   -0.95877  -0.92974  -0.73747  -0.71683  -0.69192
  Beta  occ. eigenvalues --   -0.63859  -0.60487  -0.60371  -0.58414  -0.53875
  Beta  occ. eigenvalues --   -0.49481  -0.47224  -0.43237  -0.41904  -0.41789
  Beta  occ. eigenvalues --   -0.39811  -0.38100  -0.37286  -0.36645  -0.35174
  Beta  occ. eigenvalues --   -0.34541  -0.33246  -0.32309  -0.31350  -0.31082
  Beta  occ. eigenvalues --   -0.30181  -0.29838  -0.28311  -0.27860  -0.27349
  Beta  occ. eigenvalues --   -0.27085  -0.26475  -0.26297  -0.24787  -0.21656
  Beta  occ. eigenvalues --   -0.21309  -0.19521  -0.17860  -0.16903
  Beta virt. eigenvalues --    0.06256   0.06735   0.07153   0.07472   0.08117
  Beta virt. eigenvalues --    0.08711   0.08846   0.08887   0.09544   0.10015
  Beta virt. eigenvalues --    0.10541   0.10916   0.11169   0.11362   0.11896

 Mulliken charges and spin densities:
               1          2
     1  C    2.057410  -2.851122
     2  C   -0.464609   0.488099
     3  C   -0.653979   0.527615
     4  C    0.717442  -0.274402
     5  C   -0.889117   0.646341
     6  C    0.794741  -1.116554
     7  O    0.023807  -0.039879
     8  C   -0.152046  -0.268622
     9  O   -0.167734  -0.002826
    10  O   -0.023103   0.020895
    11  C   -1.680416   1.588966
    12  C    0.693053  -1.128831
    13  C    0.731316  -1.146098
    14  C    0.138081  -0.492214
    15  H   -0.137717   0.272657
    16  H   -0.229039   0.384095
    17  H   -0.451467   0.606878
    18  H   -0.366063   0.517312
    19  H    0.121838   0.086127
    20  H   -0.000181   0.236325
    21  H   -0.180465   0.357559
    22  H   -0.151339   0.284805
    23  H    0.146410  -0.005931
    24  H    0.074346   0.103473
    25  H   -0.294686   0.466824
    26  H    0.039657   0.091546
    27  H    0.033399   0.107225
    28  H   -0.330369   0.504277
    29  H    0.049010   0.122883
    30  H   -0.089541   0.244699
    31  H   -0.111710   0.263368
    32  H   -0.246928   0.404511
 Sum of Mulliken charges =  -1.00000   1.00000

 Dipole moment (field-independent basis, Debye):
    X=             -0.7642    Y=              2.8898    Z=              0.3736  Tot=              3.0124
 Quadrupole moment (field-independent basis, Debye-Ang):
   XX=           -193.2604   YY=           -130.7374   ZZ=           -118.4887
   XY=              4.0867   XZ=             -3.8550   YZ=             -0.1332

 Summary of Natural Population Analysis:

                                       Natural Population
                Natural  -----------------------------------------------
    Atom  No    Charge         Core      Valence    Rydberg      Total
 -----------------------------------------------------------------------
      C    1   -0.30181      0.99965     2.29627    0.00590     3.30181
      C    2   -0.06723      0.99952     2.05838    0.00933     3.06723
      C    3   -0.11609      0.99947     2.10528    0.01134     3.11609
      C    4    0.03532      0.99947     1.94937    0.01585     2.96468
      C    5   -0.09445      0.99955     2.08398    0.01092     3.09445
      C    6   -0.18434      0.99956     2.17828    0.00650     3.18434
      O    7   -0.27642      0.99986     3.26875    0.00782     4.27642
      C    8    0.52067      0.99971     1.45101    0.02860     2.47933
      O    9   -0.32613      0.99986     3.32133    0.00494     4.32613
      O   10   -0.28757      0.99984     3.27847    0.00925     4.28757
      C   11    0.13386      0.99954     1.85247    0.01413     2.86614
      C   12   -0.30251      0.99960     2.29606    0.00685     3.30251
      C   13   -0.30253      0.99960     2.29631    0.00662     3.30253
      C   14   -0.28934      0.99960     2.28236    0.00738     3.28934
      H   15    0.10118      0.00000     0.39778    0.00104     0.39882
      H   16    0.10601      0.00000     0.39255    0.00144     0.39399
      H   17    0.10601      0.00000     0.39231    0.00169     0.39399
      H   18    0.09039      0.00000     0.40797    0.00165     0.40961
      H   19    0.10672      0.00000     0.39197    0.00132     0.39328
      H   20    0.10282      0.00000     0.39498    0.00220     0.39718
      H   21    0.10032      0.00000     0.39859    0.00109     0.39968
      H   22    0.09503      0.00000     0.40394    0.00103     0.40497
      H   23    0.09589      0.00000     0.40284    0.00127     0.40411
      H   24    0.11355      0.00000     0.38538    0.00107     0.38645
      H   25    0.10567      0.00000     0.39311    0.00122     0.39433
      H   26    0.10130      0.00000     0.39760    0.00109     0.39870
      H   27    0.10290      0.00000     0.39613    0.00097     0.39710
      H   28    0.10534      0.00000     0.39342    0.00125     0.39466
      H   29    0.11363      0.00000     0.38534    0.00103     0.38637
      H   30    0.10378      0.00000     0.39517    0.00105     0.39622
      H   31    0.10332      0.00000     0.39562    0.00106     0.39668
      H   32    0.10475      0.00000     0.39373    0.00153     0.39525
 =======================================================================
   * Total *    0.00000     13.99483    39.83675    0.16842    54.00000

 Normal termination of Gaussian 16 at Thu Dec 10 11:24:47 2020.
