 Gaussian 16, Revision A.03,

 -----------------------------------------------------------
 # opt freq B3LYP/6-31G(d) empiricaldispersion=gd3bj scf=xqc
 -----------------------------------------------------------

 ------------------------------
 CID_20600496_JID_4132_neutraal
 ------------------------------
 Symbolic Z-matrix:
 Charge =  0 Multiplicity = 1

 SCF Done:  E(RB3LYP) =  -687.794937881     A.U. after   15 cycles
 SCF Done:  E(RB3LYP) =  -687.800752570     A.U. after   12 cycles
 SCF Done:  E(RB3LYP) =  -687.801118257     A.U. after   13 cycles
 SCF Done:  E(RB3LYP) =  -687.801607378     A.U. after   13 cycles
 SCF Done:  E(RB3LYP) =  -687.803310440     A.U. after   12 cycles
 SCF Done:  E(RB3LYP) =  -687.803540598     A.U. after   11 cycles
 SCF Done:  E(RB3LYP) =  -687.803748967     A.U. after   12 cycles
 SCF Done:  E(RB3LYP) =  -687.803938212     A.U. after   11 cycles
 SCF Done:  E(RB3LYP) =  -687.803985538     A.U. after   11 cycles
 SCF Done:  E(RB3LYP) =  -687.804002790     A.U. after   10 cycles
 SCF Done:  E(RB3LYP) =  -687.804445718     A.U. after    8 cycles
 SCF Done:  E(RB3LYP) =  -687.804445920     A.U. after    9 cycles
 SCF Done:  E(RB3LYP) =  -687.804446021     A.U. after    8 cycles
 SCF Done:  E(RB3LYP) =  -687.804446010     A.U. after    7 cycles
 SCF Done:  E(RB3LYP) =  -687.804446026     A.U. after    7 cycles
 Optimization completed.
    -- Stationary point found.
 Normal termination of Gaussian 16 at Thu Dec 10 09:45:09 2020.

 --------------------------------------------------------------------
 #N Geom=AllCheck Guess=TCheck SCRF=Check GenChk RB3LYP/6-31G(d) Freq
 --------------------------------------------------------------------

 Structure from the checkpoint file:  "JID_4132.chk"
 ------------------------------
 CID_20600496_JID_4132_neutraal
 ------------------------------
 Charge =  0 Multiplicity = 1

 SCF Done:  E(RB3LYP) =  -687.804446026     A.U. after    1 cycles

  Exact polarizability: 127.699   1.659 116.640   2.701   5.875  96.501
 Approx polarizability: 170.817   6.213 156.767   2.403  16.541 151.624

                      1                      2                      3
                      A                      A                      A
 Frequencies --     19.1050                49.8546                53.5321
 Red. masses --      4.0247                 5.3446                 4.2667
 Frc consts  --      0.0009                 0.0078                 0.0072
 IR Inten    --      0.2037                 0.4536                 1.5986

                      4                      5                      6
                      A                      A                      A
 Frequencies --     59.1529                87.3138               114.6632
 Red. masses --      5.7639                 3.3666                 3.9461
 Frc consts  --      0.0119                 0.0151                 0.0306
 IR Inten    --      0.2373                 0.1142                 2.3492

                      7                      8                      9
                      A                      A                      A
 Frequencies --    126.5448               140.1165               200.9760
 Red. masses --      2.9949                 4.2739                 1.7222
 Frc consts  --      0.0283                 0.0494                 0.0410
 IR Inten    --      0.7604                10.1378                 2.3010

                     10                     11                     12
                      A                      A                      A
 Frequencies --    214.7790               225.4192               231.0449
 Red. masses --      1.6676                 1.5944                 1.8482
 Frc consts  --      0.0453                 0.0477                 0.0581
 IR Inten    --      1.0052                 1.0832                 1.2520

                     13                     14                     15
                      A                      A                      A
 Frequencies --    262.0119               330.2111               346.6614
 Red. masses --      2.3088                 3.1894                 3.2013
 Frc consts  --      0.0934                 0.2049                 0.2267
 IR Inten    --      1.7358                 3.3922                 1.5135

                     16                     17                     18
                      A                      A                      A
 Frequencies --    387.1936               431.5920               478.0117
 Red. masses --      2.9555                 5.2245                 4.1508
 Frc consts  --      0.2611                 0.5734                 0.5588
 IR Inten    --      0.7787                 4.8449                 3.7127

                     19                     20                     21
                      A                      A                      A
 Frequencies --    513.9468               560.9498               612.2547
 Red. masses --      3.1923                 3.9434                 2.2320
 Frc consts  --      0.4968                 0.7311                 0.4929
 IR Inten    --     14.8221                23.7375                20.8661

                     22                     23                     24
                      A                      A                      A
 Frequencies --    625.1451               637.2033               720.2203
 Red. masses --      1.2834                 1.8672                 3.8437
 Frc consts  --      0.2955                 0.4467                 1.1747
 IR Inten    --     66.9321                98.0909                22.6586

                     25                     26                     27
                      A                      A                      A
 Frequencies --    737.0555               750.4990               812.6411
 Red. masses --      3.0926                 3.6686                 1.3284
 Frc consts  --      0.9899                 1.2175                 0.5168
 IR Inten    --     16.2277                 7.2588                 1.9152

                     28                     29                     30
                      A                      A                      A
 Frequencies --    822.0593               828.8632               861.7385
 Red. masses --      1.5451                 1.7075                 2.7693
 Frc consts  --      0.6152                 0.6911                 1.2117
 IR Inten    --      6.5178                16.7184                 9.2672

                     31                     32                     33
                      A                      A                      A
 Frequencies --    931.8557               948.7704               994.5722
 Red. masses --      2.3907                 3.3210                 2.4127
 Frc consts  --      1.2231                 1.7613                 1.4061
 IR Inten    --     56.2820                76.0273                21.2022

                     34                     35                     36
                      A                      A                      A
 Frequencies --    999.4698              1008.5959              1047.9853
 Red. masses --      4.8067                 2.5338                 2.6214
 Frc consts  --      2.8290                 1.5187                 1.6963
 IR Inten    --    103.6867                23.1164                 3.1325

                     37                     38                     39
                      A                      A                      A
 Frequencies --   1085.2190              1092.4012              1096.9580
 Red. masses --      2.0532                 2.2579                 1.8918
 Frc consts  --      1.4247                 1.5875                 1.3412
 IR Inten    --     41.6283                 2.8913                 3.0602

                     40                     41                     42
                      A                      A                      A
 Frequencies --   1120.0660              1139.1583              1171.0834
 Red. masses --      1.9910                 1.7478                 1.1331
 Frc consts  --      1.4717                 1.3363                 0.9156
 IR Inten    --     24.0389                 8.0456                 4.7727

                     43                     44                     45
                      A                      A                      A
 Frequencies --   1183.3531              1197.8158              1255.2865
 Red. masses --      2.3596                 2.3617                 1.5414
 Frc consts  --      1.9467                 1.9965                 1.4310
 IR Inten    --     33.1233                18.5003                99.0887

                     46                     47                     48
                      A                      A                      A
 Frequencies --   1274.3148              1285.7521              1333.4191
 Red. masses --      1.4153                 1.3573                 1.3543
 Frc consts  --      1.3541                 1.3220                 1.4187
 IR Inten    --      9.9212                17.2155                56.2514

                     49                     50                     51
                      A                      A                      A
 Frequencies --   1336.2998              1342.3364              1375.0213
 Red. masses --      1.3482                 1.4052                 1.5775
 Frc consts  --      1.4184                 1.4918                 1.7573
 IR Inten    --      1.5976                40.0457                32.9765

                     52                     53                     54
                      A                      A                      A
 Frequencies --   1383.2825              1393.0043              1407.6731
 Red. masses --      2.0358                 1.6656                 1.3521
 Frc consts  --      2.2952                 1.9042                 1.5785
 IR Inten    --     81.3519               109.1329                16.8073

                     55                     56                     57
                      A                      A                      A
 Frequencies --   1432.5862              1440.4103              1443.1811
 Red. masses --      1.6266                 1.2477                 1.2677
 Frc consts  --      1.9668                 1.5253                 1.5557
 IR Inten    --     56.4109                 7.2613                 9.5265

                     58                     59                     60
                      A                      A                      A
 Frequencies --   1511.0924              1515.1947              1522.2351
 Red. masses --      1.3622                 1.3103                 1.0831
 Frc consts  --      1.8326                 1.7724                 1.4787
 IR Inten    --     61.9258                31.5685                28.5141

                     61                     62                     63
                      A                      A                      A
 Frequencies --   1523.6882              1529.3954              1530.9807
 Red. masses --      1.1561                 1.1194                 1.1277
 Frc consts  --      1.5814                 1.5427                 1.5573
 IR Inten    --      4.8139                 8.4206                14.4805

                     64                     65                     66
                      A                      A                      A
 Frequencies --   1539.2717              1555.3916              1566.2221
 Red. masses --      1.0772                 1.0936                 1.1192
 Frc consts  --      1.5038                 1.5587                 1.6176
 IR Inten    --     15.4328                 8.3886                 2.5750

                     67                     68                     69
                      A                      A                      A
 Frequencies --   1778.8777              1807.7794              3045.3254
 Red. masses --      7.3724                 8.5630                 1.0745
 Frc consts  --     13.7453                16.4879                 5.8712
 IR Inten    --    357.1215               370.5704                35.6749

                     70                     71                     72
                      A                      A                      A
 Frequencies --   3052.0428              3056.7730              3063.2297
 Red. masses --      1.0354                 1.0354                 1.0562
 Frc consts  --      5.6827                 5.6999                 5.8395
 IR Inten    --     14.7691                21.0014                66.3230

                     73                     74                     75
                      A                      A                      A
 Frequencies --   3071.4292              3108.2637              3116.8857
 Red. masses --      1.0663                 1.1120                 1.1008
 Frc consts  --      5.9268                 6.3300                 6.3011
 IR Inten    --     13.5879                27.2279                23.6396

                     76                     77                     78
                      A                      A                      A
 Frequencies --   3117.8485              3127.9980              3132.9918
 Red. masses --      1.1014                 1.1026                 1.1010
 Frc consts  --      6.3083                 6.3560                 6.3672
 IR Inten    --     22.0948                38.2079                19.9520

                     79                     80                     81
                      A                      A                      A
 Frequencies --   3140.7106              3141.7280              3156.8197
 Red. masses --      1.0963                 1.0928                 1.0862
 Frc consts  --      6.3716                 6.3551                 6.3774
 IR Inten    --     32.4827                 9.5540                20.4117

                     82                     83                     84
                      A                      A                      A
 Frequencies --   3169.9403              3568.0117              3575.7971
 Red. masses --      1.0917                 1.0757                 1.0750
 Frc consts  --      6.4631                 8.0685                 8.0988
 IR Inten    --      2.5649                15.8854                17.9623

 - Thermochemistry -
 -------------------
 Temperature   298.150 Kelvin.  Pressure   1.00000 Atm.
 Atom     1 has atomic number  6 and mass  12.00000

 Molecular mass:   200.11609 amu.
 Principal axes and moments of inertia in atomic units:
                           1         2         3
     Eigenvalues --  1997.115764065.100874710.53849
           X            0.99981  -0.00635   0.01869
           Y            0.00660   0.99989  -0.01360
           Z           -0.01860   0.01372   0.99973
 This molecule is an asymmetric top.
 Rotational symmetry number  1.
 Warning -- assumption of classical behavior for rotation
           may cause significant error
 Rotational temperatures (Kelvin)      0.04337     0.02131     0.01839
 Rotational constants (GHZ):           0.90367     0.44396     0.38313
 Zero-point vibrational energy     675809.7 (Joules/Mol)
                                  161.52239 (Kcal/Mol)
 Warning -- explicit consideration of  21 degrees of freedom as
           vibrations may cause significant error
 Vibrational temperatures:     27.49    71.73    77.02    85.11   125.63
          (Kelvin)            164.97   182.07   201.60   289.16   309.02
                              324.33   332.42   376.98   475.10   498.77
                              557.09   620.96   687.75   739.45   807.08
                              880.90   899.44   916.79  1036.24  1060.46
                             1079.80  1169.21  1182.76  1192.55  1239.85
                             1340.73  1365.07  1430.97  1438.01  1451.14
                             1507.82  1561.39  1571.72  1578.28  1611.53
                             1638.99  1684.93  1702.58  1723.39  1806.08
                             1833.45  1849.91  1918.49  1922.64  1931.32
                             1978.35  1990.24  2004.22  2025.33  2061.17
                             2072.43  2076.42  2174.12  2180.03  2190.16
                             2192.25  2200.46  2202.74  2214.67  2237.86
                             2253.44  2559.41  2600.99  4381.54  4391.21
                             4398.01  4407.30  4419.10  4472.10  4484.50
                             4485.89  4500.49  4507.68  4518.78  4520.25
                             4541.96  4560.84  5133.57  5144.77

 Zero-point correction=                           0.257402 (Hartree/Particle)
 Thermal correction to Energy=                    0.272602
 Thermal correction to Enthalpy=                  0.273546
 Thermal correction to Gibbs Free Energy=         0.213144
 Sum of electronic and zero-point Energies=           -687.547044
 Sum of electronic and thermal Energies=              -687.531844
 Sum of electronic and thermal Enthalpies=            -687.530900
 Sum of electronic and thermal Free Energies=         -687.591302

                     E (Thermal)             CV                S
                      KCal/Mol        Cal/Mol-Kelvin    Cal/Mol-Kelvin
 Total                  171.061             54.589            127.127
 Electronic               0.000              0.000              0.000
 Translational            0.889              2.981             41.786
 Rotational               0.889              2.981             32.014
 Vibrational            169.283             48.627             53.327
 Vibration     1          0.593              1.986              6.725
 Vibration     2          0.595              1.978              4.823
 Vibration     3          0.596              1.976              4.682
 Vibration     4          0.597              1.974              4.485
 Vibration     5          0.601              1.958              3.719
 Vibration     6          0.608              1.937              3.188
 Vibration     7          0.611              1.927              2.998
 Vibration     8          0.615              1.913              2.802
 Vibration     9          0.638              1.839              2.124
 Vibration    10          0.645              1.818              2.003
 Vibration    11          0.650              1.802              1.915
 Vibration    12          0.653              1.794              1.871
 Vibration    13          0.669              1.742              1.648
 Vibration    14          0.713              1.615              1.259
 Vibration    15          0.725              1.582              1.181
 Vibration    16          0.756              1.498              1.011
 Vibration    17          0.793              1.401              0.853
 Vibration    18          0.835              1.299              0.715
 Vibration    19          0.869              1.219              0.624
 Vibration    20          0.917              1.116              0.522
 Vibration    21          0.971              1.006              0.429

 Optimization completed.
    -- Stationary point found.
 Normal termination of Gaussian 16 at Thu Dec 10 09:54:11 2020.

 ----------------------------------------------------------------------
 # B3LYP/6-311++G(d,p) empiricaldispersion=gd3bj scf=xqc pop=npa geom=c
 heck
 ----------------------------------------------------------------------

 --------------------------------------
 CID_20600496_JID_4132_Energie_neutraal
 --------------------------------------
 Structure from the checkpoint file:  "JID_4132.chk"
 Charge =  0 Multiplicity = 1

 SCF Done:  E(RB3LYP) =  -688.014020592     A.U. after   14 cycles
 Normal termination of Gaussian 16 at Thu Dec 10 09:57:21 2020.

 ----------------------------------------------------------------------
 # B3LYP/6-311++G(d,p) empiricaldispersion=gd3bj scf=xqc pop=npa geom=c
 heck
 ----------------------------------------------------------------------

 ------------------------------------
 CID_20600496_JID_4132_Energie_kation
 ------------------------------------
 Structure from the checkpoint file:  "JID_4132.chk"
 Charge =  1 Multiplicity = 2

 SCF Done:  E(UB3LYP) =  -687.684425846     A.U. after   33 cycles
 SCF Done:  E(UB3LYP) =  -687.684526794     a.u. after    6 cycles
 Normal termination of Gaussian 16 at Thu Dec 10 10:50:16 2020.
 Gaussian 16:  ES64L-G16RevA.03 25-Dec-2016

 ----------------------------------------------------------------------
 # B3LYP/6-311++G(d,p) empiricaldispersion=gd3bj scf=xqc pop=npa geom=c
 heck
 ----------------------------------------------------------------------

 -----------------------------------
 CID_20600496_JID_4132_Energie_anion
 -----------------------------------
 Structure from the checkpoint file:  "JID_4132.chk"
 Charge = -1 Multiplicity = 2

                         Standard orientation:
 ---------------------------------------------------------------------
 Center     Atomic      Atomic             Coordinates (Angstroms)
 Number     Number       Type             X           Y           Z
 ---------------------------------------------------------------------
      1          6           0        2.326370   -2.012523    0.903407
      2          6           0        2.686468   -1.131375   -0.305017
      3          6           0        2.744076    0.342058    0.073088
      4          8           0        3.792620    0.909832    0.330129
      5          7           0        1.537874    1.018009    0.192623
      6          6           0        0.276146    0.592554   -0.299631
      7          6           0       -0.949668    1.375912    0.228317
      8          6           0       -1.149572    1.790250   -1.245944
      9          8           0       -0.019528    0.991285   -1.673321
     10          6           0       -2.053363    0.619859    0.957348
     11          8           0       -2.454541    1.027821    2.041577
     12          7           0       -2.604461   -0.499020    0.389302
     13          6           0       -2.289223   -1.246187   -0.825213
     14          6           0       -1.718024   -2.633390   -0.520456
     15          1           0        3.041403   -1.852255    1.716351
     16          1           0        2.352909   -3.071711    0.628079
     17          1           0        1.327001   -1.787406    1.292096
     18          1           0        3.686667   -1.385327   -0.663273
     19          1           0        1.986050   -1.300671   -1.130598
     20          1           0        1.662229    2.009619    0.368912
     21          1           0        0.214210   -0.490118   -0.201612
     22          1           0       -0.675955    2.197263    0.891145
     23          1           0       -0.994642    2.855469   -1.449815
     24          1           0       -2.086027    1.466937   -1.711804
     25          1           0       -3.317611   -0.899862    0.988608
     26          1           0       -3.207459   -1.347093   -1.418398
     27          1           0       -1.587613   -0.677965   -1.434965
     28          1           0       -2.418683   -3.225006    0.079742
     29          1           0       -1.524490   -3.179898   -1.450010
     30          1           0       -0.779554   -2.559364    0.039586
 ---------------------------------------------------------------------

 SCF Done:  E(UB3LYP) =  -688.007183577     A.U. after   32 cycles

 The electronic state is 2-A.
 Alpha  occ. eigenvalues --  -19.04512 -19.00854 -18.99743 -14.25803 -14.24548
 Alpha  occ. eigenvalues --  -10.19091 -10.18748 -10.18645 -10.14490 -10.11448
 Alpha  occ. eigenvalues --  -10.11306 -10.09412 -10.08373 -10.06768  -0.97826
 Alpha  occ. eigenvalues --   -0.95800  -0.94912  -0.84156  -0.83032  -0.69818
 Alpha  occ. eigenvalues --   -0.68947  -0.66212  -0.62152  -0.57258  -0.55076
 Alpha  occ. eigenvalues --   -0.53523  -0.50631  -0.48669  -0.44901  -0.42198
 Alpha  occ. eigenvalues --   -0.40563  -0.39813  -0.38887  -0.37519  -0.35872
 Alpha  occ. eigenvalues --   -0.35212  -0.35101  -0.34545  -0.32936  -0.32161
 Alpha  occ. eigenvalues --   -0.30846  -0.30319  -0.29208  -0.28214  -0.27733
 Alpha  occ. eigenvalues --   -0.27098  -0.26387  -0.25797  -0.25197  -0.20454
 Alpha  occ. eigenvalues --   -0.18371  -0.17627  -0.16601  -0.16405   0.03964
 Alpha virt. eigenvalues --    0.06119   0.06522   0.07621   0.08546   0.08671
 Alpha virt. eigenvalues --    0.08801   0.09562   0.09798   0.10581   0.10748
 Alpha virt. eigenvalues --    0.11387   0.11909   0.12682   0.12896   0.13639

  Beta  occ. eigenvalues --  -19.04503 -19.00818 -18.99722 -14.25798 -14.24534
  Beta  occ. eigenvalues --  -10.19050 -10.18733 -10.18634 -10.14457 -10.11412
  Beta  occ. eigenvalues --  -10.11302 -10.09404 -10.08338 -10.06710  -0.97803
  Beta  occ. eigenvalues --   -0.95738  -0.94875  -0.84129  -0.82994  -0.69770
  Beta  occ. eigenvalues --   -0.68909  -0.66143  -0.62104  -0.57182  -0.54973
  Beta  occ. eigenvalues --   -0.53446  -0.50590  -0.48617  -0.44876  -0.42143
  Beta  occ. eigenvalues --   -0.40504  -0.39749  -0.38847  -0.37473  -0.35829
  Beta  occ. eigenvalues --   -0.35181  -0.35009  -0.34489  -0.32876  -0.32095
  Beta  occ. eigenvalues --   -0.30811  -0.30236  -0.29147  -0.28143  -0.27670
  Beta  occ. eigenvalues --   -0.27060  -0.26334  -0.25744  -0.25171  -0.20407
  Beta  occ. eigenvalues --   -0.18312  -0.17593  -0.16570  -0.16356
  Beta virt. eigenvalues --    0.06338   0.06805   0.07551   0.07978   0.08818
  Beta virt. eigenvalues --    0.09130   0.09382   0.10034   0.10074   0.10742
  Beta virt. eigenvalues --    0.11268   0.11861   0.12365   0.12855   0.13174

 Mulliken charges and spin densities:
               1          2
     1  C    0.176785  -0.614284
     2  C   -0.259235   0.043309
     3  C    0.168023  -0.105392
     4  O   -0.338707   0.017096
     5  N   -0.051163   0.027393
     6  C   -0.099710  -0.539462
     7  C    0.053269   0.209356
     8  C   -0.034161  -0.412700
     9  O   -0.076843   0.020437
    10  C   -0.203186   0.011286
    11  O   -0.328789   0.009636
    12  N   -0.205274   0.002668
    13  C   -0.735493   0.534520
    14  C    1.866110  -2.371647
    15  H    0.077013   0.075875
    16  H   -0.226846   0.381189
    17  H   -0.054834   0.209934
    18  H   -0.019382   0.233431
    19  H   -0.126243   0.315050
    20  H    0.284969   0.014685
    21  H    0.825884  -0.555302
    22  H    0.181354   0.068630
    23  H   -0.272302   0.426121
    24  H   -0.297131   0.506999
    25  H    0.135925   0.174058
    26  H   -1.125673   1.343597
    27  H    0.486493  -0.273979
    28  H   -0.380968   0.534308
    29  H   -0.469017   0.620181
    30  H    0.049131   0.093009
 Sum of Mulliken charges =  -1.00000   1.00000

 Dipole moment (field-independent basis, Debye):
    X=              3.3110    Y=              4.3063    Z=              1.7446  Tot=              5.7053
 Quadrupole moment (field-independent basis, Debye-Ang):
   XX=           -161.4122   YY=           -136.6527   ZZ=           -126.7617
   XY=            -10.3699   XZ=             -3.9789   YZ=             -7.1571

 Summary of Natural Population Analysis:

                                       Natural Population
                Natural  -----------------------------------------------
    Atom  No    Charge         Core      Valence    Rydberg      Total
 -----------------------------------------------------------------------
      C    1   -0.28296      0.99966     2.27770    0.00560     3.28296
      C    2   -0.23869      0.99960     2.23119    0.00789     3.23869
      C    3    0.35855      0.99968     1.61912    0.02265     2.64145
      O    4   -0.31226      0.99987     3.30668    0.00570     4.31226
      N    5   -0.32421      0.99964     2.81567    0.00889     3.82421
      C    6    0.14779      0.99959     1.83573    0.01689     2.85221
      C    7   -0.16701      0.99954     2.15643    0.01105     3.16701
      C    8   -0.00338      0.99962     1.99192    0.01184     3.00338
      O    9   -0.30542      0.99991     3.29887    0.00665     4.30542
      C   10    0.34137      0.99964     1.63595    0.02304     2.65863
      O   11   -0.32134      0.99988     3.31599    0.00547     4.32134
      N   12   -0.31488      0.99967     2.80452    0.01068     3.81488
      C   13   -0.09796      0.99961     2.08698    0.01137     3.09796
      C   14   -0.28654      0.99966     2.28152    0.00536     3.28654
      H   15    0.10024      0.00000     0.39888    0.00087     0.39976
      H   16    0.10513      0.00000     0.39370    0.00117     0.39487
      H   17    0.09744      0.00000     0.40133    0.00122     0.40256
      H   18    0.11167      0.00000     0.38730    0.00102     0.38833
      H   19    0.10752      0.00000     0.39093    0.00155     0.39248
      H   20    0.19328      0.00000     0.30418    0.00254     0.30672
      H   21    0.09773      0.00000     0.39936    0.00292     0.40227
      H   22    0.11547      0.00000     0.38342    0.00111     0.38453
      H   23    0.08745      0.00000     0.41110    0.00145     0.41255
      H   24    0.09148      0.00000     0.40679    0.00172     0.40852
      H   25    0.19539      0.00000     0.30219    0.00241     0.30461
      H   26    0.09959      0.00000     0.39645    0.00396     0.40041
      H   27    0.10228      0.00000     0.39434    0.00337     0.39772
      H   28    0.10091      0.00000     0.39701    0.00207     0.39909
      H   29    0.10629      0.00000     0.39125    0.00246     0.39371
      H   30    0.09505      0.00000     0.40334    0.00161     0.40495
 =======================================================================
   * Total *   -0.00000     13.99559    39.81986    0.18455    54.00000

 Normal termination of Gaussian 16 at Thu Dec 10 11:00:28 2020.
