 Gaussian 16, Revision A.03,

 -----------------------------------------------------------
 # opt freq B3LYP/6-31G(d) empiricaldispersion=gd3bj scf=xqc
 -----------------------------------------------------------

 -------------------------------
 CID_149692177_JID_4871_neutraal
 -------------------------------
 Symbolic Z-matrix:
 Charge =  0 Multiplicity = 1

 SCF Done:  E(RB3LYP) =  -594.804088139     A.U. after   16 cycles
 SCF Done:  E(RB3LYP) =  -594.804958578     A.U. after   14 cycles
 SCF Done:  E(RB3LYP) =  -594.806893431     A.U. after   15 cycles
 SCF Done:  E(RB3LYP) =  -594.806063671     A.U. after   13 cycles
 SCF Done:  E(RB3LYP) =  -594.807378706     A.U. after   13 cycles
 SCF Done:  E(RB3LYP) =  -594.807631997     A.U. after   14 cycles
 SCF Done:  E(RB3LYP) =  -594.802228591     A.U. after   16 cycles
 SCF Done:  E(RB3LYP) =  -594.805656623     A.U. after   14 cycles
 SCF Done:  E(RB3LYP) =  -594.807689401     A.U. after   12 cycles
 SCF Done:  E(RB3LYP) =  -594.807724513     A.U. after   12 cycles
 SCF Done:  E(RB3LYP) =  -594.807983748     A.U. after   10 cycles
 SCF Done:  E(RB3LYP) =  -594.807985216     A.U. after   10 cycles
 SCF Done:  E(RB3LYP) =  -594.807985346     A.U. after    8 cycles
 SCF Done:  E(RB3LYP) =  -594.807985381     A.U. after    8 cycles
 SCF Done:  E(RB3LYP) =  -594.807985382     A.U. after    7 cycles
 Optimization completed.
    -- Stationary point found.
 Normal termination of Gaussian 16 at Thu Dec 10 10:54:56 2020.

 --------------------------------------------------------------------
 #N Geom=AllCheck Guess=TCheck SCRF=Check GenChk RB3LYP/6-31G(d) Freq
 --------------------------------------------------------------------

 Structure from the checkpoint file:  "JID_4871.chk"
 -------------------------------
 CID_149692177_JID_4871_neutraal
 -------------------------------
 Charge =  0 Multiplicity = 1

 SCF Done:  E(RB3LYP) =  -594.807985382     A.U. after    1 cycles

  Exact polarizability: 143.066 -22.546 148.258  -3.646   6.731 105.099
 Approx polarizability: 205.439 -61.376 241.294 -14.972  20.932 151.933

                      1                      2                      3
                      A                      A                      A
 Frequencies --     14.9818                29.8176                44.6801
 Red. masses --      2.9349                 6.1628                 6.1102
 Frc consts  --      0.0004                 0.0032                 0.0072
 IR Inten    --      0.0577                 0.4827                 0.2427

                      4                      5                      6
                      A                      A                      A
 Frequencies --     66.5441                71.4242               105.5334
 Red. masses --      3.9542                 3.6648                 3.0822
 Frc consts  --      0.0103                 0.0110                 0.0202
 IR Inten    --      0.2165                 0.7401                 1.9571

                      7                      8                      9
                      A                      A                      A
 Frequencies --    143.9092               169.0943               201.2854
 Red. masses --      3.1348                 2.6940                 1.9747
 Frc consts  --      0.0383                 0.0454                 0.0471
 IR Inten    --      1.0674                 0.3921                 0.3882

                     10                     11                     12
                      A                      A                      A
 Frequencies --    229.8968               234.4825               258.8885
 Red. masses --      1.0658                 1.5742                 3.0629
 Frc consts  --      0.0332                 0.0510                 0.1209
 IR Inten    --      0.1007                 0.5774                 4.5085

                     13                     14                     15
                      A                      A                      A
 Frequencies --    281.1655               286.3883               297.6320
 Red. masses --      1.0670                 1.0537                 3.9658
 Frc consts  --      0.0497                 0.0509                 0.2070
 IR Inten    --      0.0217                 0.1643                 1.7230

                     16                     17                     18
                      A                      A                      A
 Frequencies --    307.1571               337.7420               358.2775
 Red. masses --      2.4804                 2.7110                 2.2976
 Frc consts  --      0.1379                 0.1822                 0.1738
 IR Inten    --      3.6939                 0.7667                 0.2498

                     19                     20                     21
                      A                      A                      A
 Frequencies --    359.5028               368.4785               424.5724
 Red. masses --      2.2984                 2.3435                 2.3844
 Frc consts  --      0.1750                 0.1875                 0.2532
 IR Inten    --      0.1872                 0.5449                 2.4821

                     22                     23                     24
                      A                      A                      A
 Frequencies --    447.5521               546.3360               553.4193
 Red. masses --      4.0837                 4.0591                 4.5914
 Frc consts  --      0.4819                 0.7138                 0.8285
 IR Inten    --      2.0515                 0.9518                 4.3652

                     25                     26                     27
                      A                      A                      A
 Frequencies --    568.3340               579.4204               640.7658
 Red. masses --     11.6327                 3.1825                 2.8762
 Frc consts  --      2.2138                 0.6295                 0.6958
 IR Inten    --      9.8346                 0.8919                 0.9399

                     28                     29                     30
                      A                      A                      A
 Frequencies --    689.2604               781.1913               824.3190
 Red. masses --      5.3063                 3.1594                 2.2804
 Frc consts  --      1.4853                 1.1360                 0.9130
 IR Inten    --      8.2167                 1.7117                 1.6247

                     31                     32                     33
                      A                      A                      A
 Frequencies --    868.0719               900.8666               927.9620
 Red. masses --      1.9933                 2.1156                 1.4524
 Frc consts  --      0.8850                 1.0116                 0.7369
 IR Inten    --      1.2352                 6.1367                 5.3820

                     34                     35                     36
                      A                      A                      A
 Frequencies --    940.4895               942.0058               943.7918
 Red. masses --      3.4997                 1.8487                 1.7836
 Frc consts  --      1.8239                 0.9666                 0.9360
 IR Inten    --     16.5101                 2.2195                 0.3445

                     37                     38                     39
                      A                      A                      A
 Frequencies --    979.3006              1002.8999              1013.2405
 Red. masses --      1.1962                 2.3468                 1.7815
 Frc consts  --      0.6759                 1.3907                 1.0776
 IR Inten    --      0.1221                 4.7762                 2.6887

                     40                     41                     42
                      A                      A                      A
 Frequencies --   1063.2541              1064.4706              1077.3012
 Red. masses --      1.3880                 1.3875                 1.9881
 Frc consts  --      0.9245                 0.9263                 1.3594
 IR Inten    --      0.1392                 0.3077                 2.9984

                     43                     44                     45
                      A                      A                      A
 Frequencies --   1123.5686              1140.4589              1180.4775
 Red. masses --      2.2587                 1.8032                 1.9688
 Frc consts  --      1.6800                 1.3819                 1.6165
 IR Inten    --      2.0668                 0.9547                 2.3132

                     46                     47                     48
                      A                      A                      A
 Frequencies --   1235.5356              1241.1052              1242.0036
 Red. masses --      1.2801                 2.6214                 2.3607
 Frc consts  --      1.1513                 2.3790                 2.1456
 IR Inten    --      2.5964                 4.6326                 3.8376

                     49                     50                     51
                      A                      A                      A
 Frequencies --   1275.0986              1297.7230              1308.9421
 Red. masses --      1.3076                 1.4481                 2.9417
 Frc consts  --      1.2526                 1.4368                 2.9695
 IR Inten    --      5.8194                12.4015                22.9311

                     52                     53                     54
                      A                      A                      A
 Frequencies --   1325.3046              1362.1077              1387.2484
 Red. masses --      1.3175                 2.5471                 1.3104
 Frc consts  --      1.3634                 2.7843                 1.4858
 IR Inten    --      7.2569                90.7982                14.0804

                     55                     56                     57
                      A                      A                      A
 Frequencies --   1400.2688              1404.9272              1417.2061
 Red. masses --      1.4236                 1.4041                 1.3500
 Frc consts  --      1.6445                 1.6328                 1.5976
 IR Inten    --     13.9409                 1.2098                 6.8434

                     58                     59                     60
                      A                      A                      A
 Frequencies --   1423.3466              1423.7666              1442.5196
 Red. masses --      1.2165                 1.2154                 1.2662
 Frc consts  --      1.4521                 1.4516                 1.5524
 IR Inten    --      3.6445                 4.2724                 5.2141

                     61                     62                     63
                      A                      A                      A
 Frequencies --   1455.0842              1507.2285              1507.3400
 Red. masses --      1.2166                 1.0555                 1.0731
 Frc consts  --      1.5177                 1.4128                 1.4365
 IR Inten    --      0.7209                 1.3790                 5.9249

                     64                     65                     66
                      A                      A                      A
 Frequencies --   1515.6934              1516.7295              1517.3096
 Red. masses --      1.0455                 1.0478                 1.0808
 Frc consts  --      1.4152                 1.4202                 1.4660
 IR Inten    --      0.0761                 0.4758                 2.7006

                     67                     68                     69
                      A                      A                      A
 Frequencies --   1528.7020              1530.1052              1530.3242
 Red. masses --      1.0725                 1.0528                 1.0509
 Frc consts  --      1.4768                 1.4523                 1.4500
 IR Inten    --      4.1407                 5.2048                 6.6084

                     70                     71                     72
                      A                      A                      A
 Frequencies --   1536.8012              1539.0745              1547.7329
 Red. masses --      1.0553                 1.0527                 1.0627
 Frc consts  --      1.4684                 1.4691                 1.4998
 IR Inten    --      3.8434                 7.0629                 6.0201

                     73                     74                     75
                      A                      A                      A
 Frequencies --   2258.4170              2360.2258              3028.7290
 Red. masses --     13.6373                11.8831                 1.0622
 Frc consts  --     40.9815                39.0020                 5.7407
 IR Inten    --    438.8368                 1.1515                14.5258

                     76                     77                     78
                      A                      A                      A
 Frequencies --   3032.7134              3048.1536              3048.3098
 Red. masses --      1.0778                 1.0344                 1.0345
 Frc consts  --      5.8406                 5.6626                 5.6637
 IR Inten    --      9.7040                23.2400                21.2417

                     79                     80                     81
                      A                      A                      A
 Frequencies --   3048.8305              3055.1512              3058.0274
 Red. masses --      1.0723                 1.0358                 1.0865
 Frc consts  --      5.8728                 5.6961                 5.9861
 IR Inten    --     45.7969                28.2185                48.8004

                     82                     83                     84
                      A                      A                      A
 Frequencies --   3062.9361              3064.3156              3091.2378
 Red. masses --      1.0471                 1.0575                 1.1023
 Frc consts  --      5.7876                 5.8507                 6.2059
 IR Inten    --     35.0289                 6.1862                33.1601

                     85                     86                     87
                      A                      A                      A
 Frequencies --   3117.8242              3118.3940              3118.4132
 Red. masses --      1.1076                 1.1025                 1.1030
 Frc consts  --      6.3434                 6.3165                 6.3194
 IR Inten    --     22.3523                 5.0596                 2.2240

                     88                     89                     90
                      A                      A                      A
 Frequencies --   3122.0393              3125.0348              3127.3591
 Red. masses --      1.1007                 1.1017                 1.1040
 Frc consts  --      6.3213                 6.3389                 6.3617
 IR Inten    --     27.7617                72.9272                 3.2636

                     91                     92                     93
                      A                      A                      A
 Frequencies --   3131.1324              3131.3234              3157.5277
 Red. masses --      1.1030                 1.1029                 1.0997
 Frc consts  --      6.3711                 6.3717                 6.4598
 IR Inten    --     40.6803                43.0872                15.9901

 - Thermochemistry -
 -------------------
 Temperature   298.150 Kelvin.  Pressure   1.00000 Atm.
 Atom     1 has atomic number  6 and mass  12.00000

 Molecular mass:   193.15790 amu.
 Principal axes and moments of inertia in atomic units:
                           1         2         3
     Eigenvalues --  2230.395514053.695075311.77020
           X            0.99811  -0.06138   0.00284
           Y            0.06136   0.99810   0.00520
           Z           -0.00315  -0.00502   0.99998
 This molecule is an asymmetric top.
 Rotational symmetry number  1.
 Warning -- assumption of classical behavior for rotation
           may cause significant error
 Rotational temperatures (Kelvin)      0.03883     0.02137     0.01631
 Rotational constants (GHZ):           0.80916     0.44521     0.33976
 Zero-point vibrational energy     760319.8 (Joules/Mol)
                                  181.72078 (Kcal/Mol)
 Warning -- explicit consideration of  26 degrees of freedom as
           vibrations may cause significant error
 Vibrational temperatures:     21.56    42.90    64.28    95.74   102.76
          (Kelvin)            151.84   207.05   243.29   289.60   330.77
                              337.37   372.48   404.53   412.05   428.23
                              441.93   485.94   515.48   517.24   530.16
                              610.86   643.93   786.06   796.25   817.71
                              833.66   921.92   991.69  1123.96  1186.01
                             1248.96  1296.15  1335.13  1353.15  1355.34
                             1357.91  1409.00  1442.95  1457.83  1529.79
                             1531.54  1550.00  1616.56  1640.87  1698.44
                             1777.66  1785.67  1786.97  1834.58  1867.13
                             1883.28  1906.82  1959.77  1995.94  2014.67
                             2021.38  2039.04  2047.88  2048.48  2075.46
                             2093.54  2168.57  2168.73  2180.74  2182.24
                             2183.07  2199.46  2201.48  2201.80  2211.11
                             2214.38  2226.84  3249.36  3395.84  4357.67
                             4363.40  4385.61  4385.84  4386.59  4395.68
                             4399.82  4406.88  4408.87  4447.60  4485.85
                             4486.67  4486.70  4491.92  4496.23  4499.57
                             4505.00  4505.28  4542.98

 Zero-point correction=                           0.289590 (Hartree/Particle)
 Thermal correction to Energy=                    0.306283
 Thermal correction to Enthalpy=                  0.307227
 Thermal correction to Gibbs Free Energy=         0.243740
 Sum of electronic and zero-point Energies=           -594.518395
 Sum of electronic and thermal Energies=              -594.501702
 Sum of electronic and thermal Enthalpies=            -594.500758
 Sum of electronic and thermal Free Energies=         -594.564245

                     E (Thermal)             CV                S
                      KCal/Mol        Cal/Mol-Kelvin    Cal/Mol-Kelvin
 Total                  192.196             60.519            133.620
 Electronic               0.000              0.000              0.000
 Translational            0.889              2.981             41.680
 Rotational               0.889              2.981             32.241
 Vibrational            190.418             54.557             59.699
 Vibration     1          0.593              1.986              7.208
 Vibration     2          0.594              1.984              5.842
 Vibration     3          0.595              1.980              5.040
 Vibration     4          0.598              1.970              4.253
 Vibration     5          0.598              1.968              4.114
 Vibration     6          0.605              1.945              3.349
 Vibration     7          0.616              1.909              2.751
 Vibration     8          0.625              1.881              2.446
 Vibration     9          0.638              1.838              2.121
 Vibration    10          0.652              1.795              1.880
 Vibration    11          0.654              1.788              1.844
 Vibration    12          0.668              1.748              1.669
 Vibration    13          0.681              1.708              1.527
 Vibration    14          0.684              1.699              1.495
 Vibration    15          0.691              1.678              1.430
 Vibration    16          0.697              1.660              1.378
 Vibration    17          0.718              1.600              1.223
 Vibration    18          0.733              1.558              1.130
 Vibration    19          0.734              1.556              1.124
 Vibration    20          0.741              1.537              1.086
 Vibration    21          0.787              1.417              0.877
 Vibration    22          0.807              1.366              0.803
 Vibration    23          0.902              1.148              0.552
 Vibration    24          0.909              1.132              0.537
 Vibration    25          0.924              1.100              0.507
 Vibration    26          0.936              1.076              0.486

 Optimization completed.
    -- Stationary point found.
 Normal termination of Gaussian 16 at Thu Dec 10 11:05:21 2020.

 ----------------------------------------------------------------------
 # B3LYP/6-311++G(d,p) empiricaldispersion=gd3bj scf=xqc pop=npa geom=c
 heck
 ----------------------------------------------------------------------

 ---------------------------------------
 CID_149692177_JID_4871_Energie_neutraal
 ---------------------------------------
 Structure from the checkpoint file:  "JID_4871.chk"
 Charge =  0 Multiplicity = 1

 SCF Done:  E(RB3LYP) =  -594.972329710     A.U. after   14 cycles
 Normal termination of Gaussian 16 at Thu Dec 10 11:10:16 2020.

 ----------------------------------------------------------------------
 # B3LYP/6-311++G(d,p) empiricaldispersion=gd3bj scf=xqc pop=npa geom=c
 heck
 ----------------------------------------------------------------------

 -------------------------------------
 CID_149692177_JID_4871_Energie_kation
 -------------------------------------
 Structure from the checkpoint file:  "JID_4871.chk"
 Charge =  1 Multiplicity = 2

 SCF Done:  E(UB3LYP) =  -594.654799707     A.U. after   27 cycles
 Normal termination of Gaussian 16 at Thu Dec 10 11:22:06 2020.
 Gaussian 16:  ES64L-G16RevA.03 25-Dec-2016

 ----------------------------------------------------------------------
 # B3LYP/6-311++G(d,p) empiricaldispersion=gd3bj scf=xqc pop=npa geom=c
 heck
 ----------------------------------------------------------------------

 ------------------------------------
 CID_149692177_JID_4871_Energie_anion
 ------------------------------------
 Structure from the checkpoint file:  "JID_4871.chk"
 Charge = -1 Multiplicity = 2

                         Standard orientation:
 ---------------------------------------------------------------------
 Center     Atomic      Atomic             Coordinates (Angstroms)
 Number     Number       Type             X           Y           Z
 ---------------------------------------------------------------------
      1          6           0        1.430196   -0.261734    1.659354
      2          6           0        2.168291   -0.992597    0.528673
      3          6           0        1.568034   -2.386590    0.218076
      4          6           0        0.385873   -2.442718   -0.781473
      5          6           0       -0.720793   -1.528116   -0.497910
      6          6           0       -1.594822   -0.719779   -0.280632
      7          6           0       -2.623462    0.294192    0.003139
      8          6           0       -2.927578    0.303243    1.516951
      9          6           0       -2.093426    1.680082   -0.427609
     10          6           0       -3.908973   -0.038838   -0.783514
     11          6           0        2.259261   -0.138159   -0.746001
     12          7           0        2.979309    1.139033   -0.515235
     13          7           0        2.259820    2.111998   -0.282295
     14          7           0        1.693762    3.081823   -0.064840
     15          1           0        0.406261   -0.011144    1.373027
     16          1           0        1.952977    0.658775    1.937597
     17          1           0        1.383035   -0.895402    2.551923
     18          1           0        3.198672   -1.159377    0.870129
     19          1           0        2.354050   -3.031897   -0.194443
     20          1           0        1.255063   -2.843771    1.163737
     21          1           0        0.016604   -3.476449   -0.810933
     22          1           0        0.759727   -2.236475   -1.793793
     23          1           0       -3.692666    1.055597    1.741252
     24          1           0       -3.294987   -0.673723    1.847043
     25          1           0       -2.029175    0.543558    2.094680
     26          1           0       -1.871818    1.695859   -1.499669
     27          1           0       -2.844388    2.451055   -0.219355
     28          1           0       -1.177177    1.939254    0.112824
     29          1           0       -4.678691    0.715039   -0.581170
     30          1           0       -3.714166   -0.053209   -1.860700
     31          1           0       -4.300653   -1.019335   -0.493999
     32          1           0        2.833459   -0.665915   -1.513612
     33          1           0        1.258028    0.063660   -1.142280
 ---------------------------------------------------------------------

 SCF Done:  E(UB3LYP) =  -594.963130982     A.U. after   33 cycles
 SCF Done:  E(UB3LYP) =  -594.963130982     a.u. after    1 cycles

 The electronic state is 2-A.
 Alpha  occ. eigenvalues --  -14.34901 -14.24898 -14.23713 -10.11329 -10.09830
 Alpha  occ. eigenvalues --  -10.08650 -10.07291 -10.07256 -10.07172 -10.06919
 Alpha  occ. eigenvalues --  -10.06843 -10.06026 -10.05497 -10.05158  -1.01495
 Alpha  occ. eigenvalues --   -0.85771  -0.73942  -0.71925  -0.66831  -0.61800
 Alpha  occ. eigenvalues --   -0.60307  -0.59937  -0.59730  -0.54973  -0.49639
 Alpha  occ. eigenvalues --   -0.46689  -0.42695  -0.39909  -0.39458  -0.38706
 Alpha  occ. eigenvalues --   -0.37343  -0.35303  -0.35178  -0.34557  -0.34006
 Alpha  occ. eigenvalues --   -0.32747  -0.31543  -0.30599  -0.30443  -0.30041
 Alpha  occ. eigenvalues --   -0.28896  -0.27811  -0.26979  -0.26274  -0.25181
 Alpha  occ. eigenvalues --   -0.25121  -0.24188  -0.23507  -0.22433  -0.18674
 Alpha  occ. eigenvalues --   -0.15461  -0.15152  -0.13477   0.04403
 Alpha virt. eigenvalues --    0.06150   0.07275   0.07875   0.08420   0.08942
 Alpha virt. eigenvalues --    0.09133   0.09594   0.10568   0.10838   0.11164
 Alpha virt. eigenvalues --    0.11735   0.12095   0.12466   0.12795   0.12951

  Beta  occ. eigenvalues --  -14.34717 -14.24629 -14.23761 -10.11328 -10.09751
  Beta  occ. eigenvalues --  -10.08615 -10.07284 -10.07243 -10.07149 -10.06913
  Beta  occ. eigenvalues --  -10.06812 -10.06023 -10.05489 -10.05147  -1.01127
  Beta  occ. eigenvalues --   -0.85585  -0.73929  -0.71870  -0.66769  -0.61735
  Beta  occ. eigenvalues --   -0.60202  -0.59902  -0.59708  -0.54903  -0.49604
  Beta  occ. eigenvalues --   -0.46584  -0.42605  -0.39441  -0.39338  -0.38486
  Beta  occ. eigenvalues --   -0.37177  -0.35274  -0.35150  -0.34332  -0.33892
  Beta  occ. eigenvalues --   -0.32380  -0.31446  -0.30548  -0.30417  -0.29893
  Beta  occ. eigenvalues --   -0.28824  -0.27792  -0.26956  -0.26207  -0.25161
  Beta  occ. eigenvalues --   -0.25102  -0.24133  -0.23465  -0.22373  -0.18256
  Beta  occ. eigenvalues --   -0.15434  -0.15114  -0.13404
  Beta virt. eigenvalues --    0.06326   0.07356   0.08098   0.08679   0.09103
  Beta virt. eigenvalues --    0.09248   0.09429   0.10185   0.10737   0.11003
  Beta virt. eigenvalues --    0.11452   0.12025   0.12270   0.12585   0.13009

 Mulliken charges and spin densities:
               1          2
     1  C   -0.353430  -0.424931
     2  C   -0.407531   1.007525
     3  C    0.482316  -1.011845
     4  C    0.658720  -1.224009
     5  C   -0.466331   0.519915
     6  C    0.433166  -0.247298
     7  C   -0.118483   0.688939
     8  C   -0.371657  -0.342926
     9  C   -0.388971  -0.321599
    10  C    0.078801  -0.622372
    11  C    0.425374  -1.109215
    12  N   -0.145789  -0.113652
    13  N    0.404786   0.067759
    14  N   -0.395115   0.271537
    15  H    0.299181  -0.186000
    16  H    0.094370   0.037207
    17  H   -0.048761   0.175481
    18  H   -0.113585   0.320825
    19  H   -0.460871   0.640099
    20  H   -0.065968   0.215332
    21  H   -0.577993   0.771561
    22  H   -0.052339   0.246691
    23  H    0.044013   0.093395
    24  H    0.012356   0.151618
    25  H    0.060657   0.087622
    26  H    0.067431   0.087017
    27  H    0.116582   0.016644
    28  H    0.167269   0.022715
    29  H   -0.117645   0.253525
    30  H   -0.020003   0.165520
    31  H   -0.031385   0.175809
    32  H   -0.387422   0.601282
    33  H    0.178258  -0.014172
 Sum of Mulliken charges =  -1.00000   1.00000

 Dipole moment (field-independent basis, Debye):
    X=             -3.3618    Y=              3.2372    Z=              1.6959  Tot=              4.9656
 Quadrupole moment (field-independent basis, Debye-Ang):
   XX=           -149.5078   YY=           -144.6738   ZZ=           -114.7286
   XY=             -0.0690   XZ=              3.0441   YZ=             -3.6628

 Summary of Natural Population Analysis:

                                       Natural Population
                Natural  -----------------------------------------------
    Atom  No    Charge         Core      Valence    Rydberg      Total
 -----------------------------------------------------------------------
      C    1   -0.28941      0.99964     2.28353    0.00625     3.28941
      C    2   -0.11778      0.99959     2.10702    0.01116     3.11778
      C    3   -0.17852      0.99961     2.16888    0.01004     3.17852
      C    4   -0.22880      0.99957     2.21890    0.01033     3.22880
      C    5   -0.00038      0.99926     1.99321    0.00791     3.00038
      C    6   -0.01470      0.99925     2.00403    0.01142     3.01470
      C    7   -0.07880      0.99955     2.06987    0.00939     3.07880
      C    8   -0.27531      0.99964     2.26858    0.00709     3.27531
      C    9   -0.27489      0.99964     2.26970    0.00555     3.27489
      C   10   -0.27323      0.99964     2.26804    0.00556     3.27323
      C   11   -0.09081      0.99955     2.07974    0.01153     3.09081
      N   12   -0.19698      0.99970     2.68332    0.01395     3.69698
      N   13    0.12913      0.99970     2.35614    0.01503     3.37087
      N   14   -0.03573      0.99982     2.52243    0.01348     3.53573
      H   15    0.10351      0.00000     0.39514    0.00135     0.39649
      H   16    0.09977      0.00000     0.39935    0.00088     0.40023
      H   17    0.09761      0.00000     0.40158    0.00081     0.40239
      H   18    0.09888      0.00000     0.39911    0.00201     0.40112
      H   19    0.10310      0.00000     0.39442    0.00249     0.39690
      H   20    0.09826      0.00000     0.40019    0.00155     0.40174
      H   21    0.11494      0.00000     0.38294    0.00213     0.38506
      H   22    0.11070      0.00000     0.38752    0.00178     0.38930
      H   23    0.09555      0.00000     0.40374    0.00071     0.40445
      H   24    0.10247      0.00000     0.39678    0.00075     0.39753
      H   25    0.10243      0.00000     0.39669    0.00088     0.39757
      H   26    0.10201      0.00000     0.39718    0.00081     0.39799
      H   27    0.09496      0.00000     0.40428    0.00075     0.40504
      H   28    0.10679      0.00000     0.39227    0.00093     0.39321
      H   29    0.09569      0.00000     0.40331    0.00099     0.40431
      H   30    0.10219      0.00000     0.39683    0.00098     0.39781
      H   31    0.10213      0.00000     0.39686    0.00101     0.39787
      H   32    0.10011      0.00000     0.39785    0.00204     0.39989
      H   33    0.09510      0.00000     0.40263    0.00228     0.40490
 =======================================================================
   * Total *   -0.00000     13.99415    38.84206    0.16379    53.00000

 Normal termination of Gaussian 16 at Thu Dec 10 11:35:56 2020.
