 Gaussian 16, Revision A.03,

 -----------------------------------------------------------
 # opt freq B3LYP/6-31G(d) empiricaldispersion=gd3bj scf=xqc
 -----------------------------------------------------------

 ------------------------------
 CID_57611197_JID_6096_neutraal
 ------------------------------
 Symbolic Z-matrix:
 Charge =  0 Multiplicity = 1

 SCF Done:  E(RB3LYP) =  -732.946211420     A.U. after   14 cycles
 SCF Done:  E(RB3LYP) =  -732.952054244     A.U. after   11 cycles
 SCF Done:  E(RB3LYP) =  -732.953086227     A.U. after   13 cycles
 SCF Done:  E(RB3LYP) =  -732.954666698     A.U. after   12 cycles
 SCF Done:  E(RB3LYP) =  -732.955218320     A.U. after   12 cycles
 SCF Done:  E(RB3LYP) =  -732.956414372     A.U. after   11 cycles
 SCF Done:  E(RB3LYP) =  -732.956476162     A.U. after   12 cycles
 SCF Done:  E(RB3LYP) =  -732.957925069     A.U. after   11 cycles
 SCF Done:  E(RB3LYP) =  -732.959176396     A.U. after   12 cycles
 SCF Done:  E(RB3LYP) =  -732.960434391     A.U. after   13 cycles
 SCF Done:  E(RB3LYP) =  -732.966746613     A.U. after    9 cycles
 SCF Done:  E(RB3LYP) =  -732.966748671     A.U. after    9 cycles
 SCF Done:  E(RB3LYP) =  -732.966746762     A.U. after   10 cycles
 SCF Done:  E(RB3LYP) =  -732.966748974     A.U. after   10 cycles
 SCF Done:  E(RB3LYP) =  -732.966749036     A.U. after    7 cycles
 Optimization completed.
    -- Stationary point found.
 Normal termination of Gaussian 16 at Thu Dec 10 21:53:42 2020.

 --------------------------------------------------------------------
 #N Geom=AllCheck Guess=TCheck SCRF=Check GenChk RB3LYP/6-31G(d) Freq
 --------------------------------------------------------------------

 Structure from the checkpoint file:  "JID_6096.chk"
 ------------------------------
 CID_57611197_JID_6096_neutraal
 ------------------------------
 Charge =  0 Multiplicity = 1

 SCF Done:  E(RB3LYP) =  -732.966749036     A.U. after    1 cycles

  Exact polarizability: 169.392  -1.776 141.791  -2.186   1.704 126.239
 Approx polarizability: 212.646   0.528 195.575  -4.885   5.612 195.440

                      1                      2                      3
                      A                      A                      A
 Frequencies --     13.0679                32.7073                40.5500
 Red. masses --      3.8618                 6.4912                 4.3697
 Frc consts  --      0.0004                 0.0041                 0.0042
 IR Inten    --      0.0630                 0.8450                 0.2007

                      4                      5                      6
                      A                      A                      A
 Frequencies --     57.9170                59.1334                86.4553
 Red. masses --      3.2431                 4.9025                 2.8071
 Frc consts  --      0.0064                 0.0101                 0.0124
 IR Inten    --      0.2928                 0.8997                 0.2377

                      7                      8                      9
                      A                      A                      A
 Frequencies --    108.8258               132.4868               182.8153
 Red. masses --      2.6553                 3.2628                 2.3088
 Frc consts  --      0.0185                 0.0337                 0.0455
 IR Inten    --      0.0023                 0.0801                 0.6234

                     10                     11                     12
                      A                      A                      A
 Frequencies --    205.6102               210.0303               234.2352
 Red. masses --      2.0298                 1.6291                 1.3680
 Frc consts  --      0.0506                 0.0423                 0.0442
 IR Inten    --      2.3088                 0.1909                 3.3814

                     13                     14                     15
                      A                      A                      A
 Frequencies --    249.7915               252.3877               264.6407
 Red. masses --      1.7094                 1.2985                 1.1281
 Frc consts  --      0.0628                 0.0487                 0.0465
 IR Inten    --     13.9393                12.9049                 0.2802

                     16                     17                     18
                      A                      A                      A
 Frequencies --    269.1145               287.0104               295.3206
 Red. masses --      2.3997                 2.2996                 2.5961
 Frc consts  --      0.1024                 0.1116                 0.1334
 IR Inten    --      9.2230                 5.0335                 8.6043

                     19                     20                     21
                      A                      A                      A
 Frequencies --    304.2249               326.6768               331.8240
 Red. masses --      1.8673                 1.4162                 2.0510
 Frc consts  --      0.1018                 0.0890                 0.1331
 IR Inten    --      0.2705                 0.4924                 7.4198

                     22                     23                     24
                      A                      A                      A
 Frequencies --    348.7751               364.6688               392.4867
 Red. masses --      2.5426                 2.1018                 2.2794
 Frc consts  --      0.1822                 0.1647                 0.2069
 IR Inten    --      2.2869                 0.7320                 1.3217

                     25                     26                     27
                      A                      A                      A
 Frequencies --    398.7502               453.9678               490.0527
 Red. masses --      2.5611                 2.8031                 2.5997
 Frc consts  --      0.2399                 0.3404                 0.3678
 IR Inten    --      4.7720                10.0369                 1.8748

                     28                     29                     30
                      A                      A                      A
 Frequencies --    506.6481               535.2509               555.2252
 Red. masses --      3.4761                 2.3445                 2.3107
 Frc consts  --      0.5257                 0.3957                 0.4197
 IR Inten    --      7.7237                 8.8399                13.3759

                     31                     32                     33
                      A                      A                      A
 Frequencies --    632.6944               641.2084               650.6542
 Red. masses --      1.2912                 3.0547                 1.6526
 Frc consts  --      0.3045                 0.7400                 0.4122
 IR Inten    --     68.5909                10.7382                89.1272

                     34                     35                     36
                      A                      A                      A
 Frequencies --    743.3293               773.6649               781.2240
 Red. masses --      1.8523                 3.4347                 2.2696
 Frc consts  --      0.6030                 1.2113                 0.8161
 IR Inten    --     18.9506                36.5109                 9.8769

                     37                     38                     39
                      A                      A                      A
 Frequencies --    794.0176               849.9908               878.5045
 Red. masses --      1.4327                 1.9890                 2.4949
 Frc consts  --      0.5322                 0.8467                 1.1345
 IR Inten    --      7.1309                24.3258                 6.4323

                     40                     41                     42
                      A                      A                      A
 Frequencies --    903.2732               940.9173               944.1549
 Red. masses --      2.1115                 1.7316                 1.6950
 Frc consts  --      1.0150                 0.9032                 0.8902
 IR Inten    --      3.2890                24.8822                73.1520

                     43                     44                     45
                      A                      A                      A
 Frequencies --    948.0595               949.6317               956.4174
 Red. masses --      1.7329                 1.8737                 1.8752
 Frc consts  --      0.9177                 0.9956                 1.0106
 IR Inten    --      6.9262                 1.0533                28.7420

                     46                     47                     48
                      A                      A                      A
 Frequencies --    970.7022               996.2915              1031.4733
 Red. masses --      1.2024                 2.0638                 1.8914
 Frc consts  --      0.6676                 1.2069                 1.1856
 IR Inten    --      0.0661                17.8553                27.9890

                     49                     50                     51
                      A                      A                      A
 Frequencies --   1038.9090              1052.6959              1066.8917
 Red. masses --      1.3883                 1.5715                 1.6562
 Frc consts  --      0.8829                 1.0261                 1.1107
 IR Inten    --      0.0447                 2.8603                 5.7667

                     52                     53                     54
                      A                      A                      A
 Frequencies --   1093.3872              1109.1941              1123.6260
 Red. masses --      1.9301                 2.0930                 2.1099
 Frc consts  --      1.3595                 1.5171                 1.5694
 IR Inten    --      9.2281                 5.6666                 0.4731

                     55                     56                     57
                      A                      A                      A
 Frequencies --   1142.8434              1157.4231              1168.0690
 Red. masses --      2.2120                 2.4049                 2.6630
 Frc consts  --      1.7022                 1.8982                 2.1407
 IR Inten    --     67.0694                40.8990               125.5253

                     58                     59                     60
                      A                      A                      A
 Frequencies --   1170.4059              1197.1994              1215.6707
 Red. masses --      1.9589                 1.4874                 1.4801
 Frc consts  --      1.5810                 1.2561                 1.2887
 IR Inten    --     77.6530                 4.8521                11.1987

                     61                     62                     63
                      A                      A                      A
 Frequencies --   1253.3302              1262.2299              1276.7703
 Red. masses --      1.9572                 2.2425                 1.8301
 Frc consts  --      1.8114                 2.1050                 1.7578
 IR Inten    --      4.1888                 5.0999                 7.3624

                     64                     65                     66
                      A                      A                      A
 Frequencies --   1283.1024              1308.7935              1319.7939
 Red. masses --      1.9299                 1.3725                 1.3636
 Frc consts  --      1.8720                 1.3852                 1.3994
 IR Inten    --      1.5301                 1.0383                 1.1041

                     67                     68                     69
                      A                      A                      A
 Frequencies --   1340.0829              1344.2375              1366.6018
 Red. masses --      1.1907                 1.3013                 1.3423
 Frc consts  --      1.2599                 1.3854                 1.4770
 IR Inten    --      6.0191                 3.2986                16.3772

                     70                     71                     72
                      A                      A                      A
 Frequencies --   1386.2784              1390.3665              1402.1155
 Red. masses --      1.6224                 1.3507                 1.4465
 Frc consts  --      1.8370                 1.5384                 1.6755
 IR Inten    --      8.0262                 3.0837                 1.8790

                     73                     74                     75
                      A                      A                      A
 Frequencies --   1414.3910              1426.7724              1429.1128
 Red. masses --      1.4217                 1.2514                 1.2477
 Frc consts  --      1.6757                 1.5009                 1.5014
 IR Inten    --      9.5147                 4.9337                 3.0089

                     76                     77                     78
                      A                      A                      A
 Frequencies --   1431.2664              1437.3343              1446.6690
 Red. masses --      1.2554                 1.3015                 1.4541
 Frc consts  --      1.5152                 1.5842                 1.7931
 IR Inten    --      6.7847                 3.2030                 2.1447

                     79                     80                     81
                      A                      A                      A
 Frequencies --   1460.8291              1498.8132              1506.7740
 Red. masses --      1.2246                 1.1819                 1.0852
 Frc consts  --      1.5397                 1.5643                 1.4516
 IR Inten    --      7.8862                19.8035                11.3407

                     82                     83                     84
                      A                      A                      A
 Frequencies --   1511.2928              1515.5609              1517.4952
 Red. masses --      1.0729                 1.0664                 1.0484
 Frc consts  --      1.4438                 1.4432                 1.4224
 IR Inten    --      5.4910                 2.3773                 0.5318

                     85                     86                     87
                      A                      A                      A
 Frequencies --   1522.4011              1524.2202              1527.6174
 Red. masses --      1.0748                 1.0612                 1.0934
 Frc consts  --      1.4678                 1.4527                 1.5034
 IR Inten    --      3.4198                 9.1914                 4.8045

                     88                     89                     90
                      A                      A                      A
 Frequencies --   1539.5410              1543.0087              1547.7864
 Red. masses --      1.0564                 1.0650                 1.0606
 Frc consts  --      1.4752                 1.4939                 1.4969
 IR Inten    --      2.4815                12.6350                 8.5958

                     91                     92                     93
                      A                      A                      A
 Frequencies --   1549.7155              1557.6409              1706.3345
 Red. masses --      1.0607                 1.0785                 1.0889
 Frc consts  --      1.5008                 1.5418                 1.8680
 IR Inten    --      8.3686                15.9971                26.8631

                     94                     95                     96
                      A                      A                      A
 Frequencies --   1839.3578              2976.6247              3020.3615
 Red. masses --      9.4838                 1.0727                 1.0821
 Frc consts  --     18.9045                 5.5997                 5.8160
 IR Inten    --    270.2359                68.3090                10.6987

                     97                     98                     99
                      A                      A                      A
 Frequencies --   3030.8813              3039.2379              3039.7902
 Red. masses --      1.0672                 1.0404                 1.0428
 Frc consts  --      5.7759                 5.6620                 5.6774
 IR Inten    --     28.6777                36.0274                16.5637

                    100                    101                    102
                      A                      A                      A
 Frequencies --   3041.3495              3047.3674              3048.5780
 Red. masses --      1.0373                 1.0548                 1.0698
 Frc consts  --      5.6530                 5.7713                 5.8582
 IR Inten    --     20.3479                36.9949                41.5902

                    103                    104                    105
                      A                      A                      A
 Frequencies --   3050.4042              3076.4149              3087.0681
 Red. masses --      1.0442                 1.0920                 1.0976
 Frc consts  --      5.7247                 6.0890                 6.1630
 IR Inten    --     25.8157                19.5472                27.7642

                    106                    107                    108
                      A                      A                      A
 Frequencies --   3089.6941              3097.6055              3100.6931
 Red. masses --      1.0903                 1.0996                 1.1009
 Frc consts  --      6.1324                 6.2167                 6.2360
 IR Inten    --     37.6007                24.4537                20.3183

                    109                    110                    111
                      A                      A                      A
 Frequencies --   3101.7655              3109.4728              3117.4335
 Red. masses --      1.1007                 1.1011                 1.0839
 Frc consts  --      6.2394                 6.2729                 6.2065
 IR Inten    --     37.9492                91.9934                16.4813

                    112                    113                    114
                      A                      A                      A
 Frequencies --   3123.3889              3124.7629              3128.3365
 Red. masses --      1.1008                 1.1003                 1.0985
 Frc consts  --      6.3271                 6.3296                 6.3337
 IR Inten    --     11.5708                34.3740                55.8082

                    115                    116                    117
                      A                      A                      A
 Frequencies --   3132.1516              3151.4615              3459.7497
 Red. masses --      1.0942                 1.0975                 1.0499
 Frc consts  --      6.3249                 6.4223                 7.4045
 IR Inten    --     20.0114                20.9439                 0.6952

                    118                    119                    120
                      A                      A                      A
 Frequencies --   3512.7589              3541.4309              3668.1820
 Red. masses --      1.0734                 1.0915                 1.0639
 Frc consts  --      7.8035                 8.0654                 8.4346
 IR Inten    --      0.2188                 0.9963                39.3822

 - Thermochemistry -
 -------------------
 Temperature   298.150 Kelvin.  Pressure   1.00000 Atm.
 Atom     1 has atomic number  6 and mass  12.00000

 Molecular mass:   230.19943 amu.
 Principal axes and moments of inertia in atomic units:
                           1         2         3
     Eigenvalues --  1939.482817484.813248176.29834
           X            0.99996  -0.00559  -0.00633
           Y            0.00546   0.99976  -0.02121
           Z            0.00645   0.02118   0.99975
 This molecule is an asymmetric top.
 Rotational symmetry number  1.
 Warning -- assumption of classical behavior for rotation
           may cause significant error
 Rotational temperatures (Kelvin)      0.04466     0.01157     0.01059
 Rotational constants (GHZ):           0.93053     0.24112     0.22073
 Zero-point vibrational energy    1006165.8 (Joules/Mol)
                                  240.47939 (Kcal/Mol)
 Warning -- explicit consideration of  30 degrees of freedom as
           vibrations may cause significant error
 Vibrational temperatures:     18.80    47.06    58.34    83.33    85.08
          (Kelvin)            124.39   156.58   190.62   263.03   295.83
                              302.19   337.01   359.39   363.13   380.76
                              387.20   412.94   424.90   437.71   470.02
                              477.42   501.81   524.68   564.70   573.71
                              653.16   705.08   728.95   770.11   798.85
                              910.31   922.56   936.15  1069.49  1113.13
                             1124.01  1142.41  1222.95  1263.97  1299.61
                             1353.77  1358.43  1364.05  1366.31  1376.07
                             1396.62  1433.44  1484.06  1494.76  1514.59
                             1535.02  1573.14  1595.88  1616.65  1644.30
                             1665.27  1680.59  1683.95  1722.50  1749.08
                             1803.26  1816.07  1836.99  1846.10  1883.06
                             1898.89  1928.08  1934.06  1966.24  1994.55
                             2000.43  2017.33  2034.99  2052.81  2056.17
                             2059.27  2068.00  2081.43  2101.81  2156.46
                             2167.91  2174.41  2180.55  2183.34  2190.40
                             2193.01  2197.90  2215.06  2220.05  2226.92
                             2229.69  2241.10  2455.03  2646.43  4282.70
                             4345.63  4360.76  4372.79  4373.58  4375.82
                             4384.48  4386.22  4388.85  4426.27  4441.60
                             4445.38  4456.76  4461.21  4462.75  4473.84
                             4485.29  4493.86  4495.84  4500.98  4506.47
                             4534.25  4977.81  5054.08  5095.33  5277.70

 Zero-point correction=                           0.383228 (Hartree/Particle)
 Thermal correction to Energy=                    0.402837
 Thermal correction to Enthalpy=                  0.403781
 Thermal correction to Gibbs Free Energy=         0.334152
 Sum of electronic and zero-point Energies=           -732.583521
 Sum of electronic and thermal Energies=              -732.563912
 Sum of electronic and thermal Enthalpies=            -732.562968
 Sum of electronic and thermal Free Energies=         -732.632597

                     E (Thermal)             CV                S
                      KCal/Mol        Cal/Mol-Kelvin    Cal/Mol-Kelvin
 Total                  252.784             73.411            146.548
 Electronic               0.000              0.000              0.000
 Translational            0.889              2.981             42.203
 Rotational               0.889              2.981             33.140
 Vibrational            251.007             67.449             71.205
 Vibration     1          0.593              1.987              7.479
 Vibration     2          0.594              1.983              5.658
 Vibration     3          0.594              1.981              5.232
 Vibration     4          0.596              1.974              4.527
 Vibration     5          0.596              1.974              4.486
 Vibration     6          0.601              1.959              3.739
 Vibration     7          0.606              1.942              3.290
 Vibration     8          0.613              1.921              2.910
 Vibration     9          0.630              1.863              2.299
 Vibration    10          0.640              1.832              2.082
 Vibration    11          0.642              1.825              2.043
 Vibration    12          0.654              1.788              1.846
 Vibration    13          0.663              1.763              1.732
 Vibration    14          0.664              1.759              1.714
 Vibration    15          0.671              1.738              1.631
 Vibration    16          0.674              1.730              1.602
 Vibration    17          0.684              1.698              1.492
 Vibration    18          0.690              1.682              1.443
 Vibration    19          0.695              1.666              1.394
 Vibration    20          0.710              1.622              1.276
 Vibration    21          0.714              1.612              1.251
 Vibration    22          0.726              1.578              1.172
 Vibration    23          0.738              1.545              1.102
 Vibration    24          0.760              1.486              0.991
 Vibration    25          0.765              1.473              0.967
 Vibration    26          0.812              1.352              0.784
 Vibration    27          0.846              1.272              0.683
 Vibration    28          0.862              1.235              0.642
 Vibration    29          0.890              1.172              0.576
 Vibration    30          0.911              1.128              0.533

 Optimization completed.
    -- Stationary point found.
 Normal termination of Gaussian 16 at Thu Dec 10 22:09:44 2020.

 ----------------------------------------------------------------------
 # B3LYP/6-311++G(d,p) empiricaldispersion=gd3bj scf=xqc pop=npa geom=c
 heck
 ----------------------------------------------------------------------

 --------------------------------------
 CID_57611197_JID_6096_Energie_neutraal
 --------------------------------------
 Structure from the checkpoint file:  "JID_6096.chk"
 Charge =  0 Multiplicity = 1

 SCF Done:  E(RB3LYP) =  -733.196552530     A.U. after   13 cycles
 Normal termination of Gaussian 16 at Thu Dec 10 22:17:05 2020.

 ----------------------------------------------------------------------
 # B3LYP/6-311++G(d,p) empiricaldispersion=gd3bj scf=xqc pop=npa geom=c
 heck
 ----------------------------------------------------------------------

 ------------------------------------
 CID_57611197_JID_6096_Energie_kation
 ------------------------------------
 Structure from the checkpoint file:  "JID_6096.chk"
 Charge =  1 Multiplicity = 2

 SCF Done:  E(UB3LYP) =  -732.906723596     A.U. after   25 cycles
 Normal termination of Gaussian 16 at Thu Dec 10 22:37:50 2020.
 Gaussian 16:  ES64L-G16RevA.03 25-Dec-2016

 ----------------------------------------------------------------------
 # B3LYP/6-311++G(d,p) empiricaldispersion=gd3bj scf=xqc pop=npa geom=c
 heck
 ----------------------------------------------------------------------

 -----------------------------------
 CID_57611197_JID_6096_Energie_anion
 -----------------------------------
 Structure from the checkpoint file:  "JID_6096.chk"
 Charge = -1 Multiplicity = 2

                         Standard orientation:
 ---------------------------------------------------------------------
 Center     Atomic      Atomic             Coordinates (Angstroms)
 Number     Number       Type             X           Y           Z
 ---------------------------------------------------------------------
      1          6           0        0.626346    2.567995   -0.457939
      2          6           0        1.916346    1.856483   -0.046551
      3          6           0        1.855327    0.327981   -0.247582
      4          6           0        3.260705   -0.362326   -0.154642
      5          6           0        3.964483   -0.026215    1.172400
      6          6           0        3.107821   -1.890389   -0.254298
      7          6           0        4.147643    0.097768   -1.327365
      8          7           0        0.830166   -0.211404    0.654043
      9          6           0       -0.043784   -1.275816    0.179007
     10          6           0       -1.254261   -1.447088    1.105311
     11          6           0       -2.042661   -0.156671    1.355307
     12          6           0       -2.599221    0.541133    0.097722
     13          6           0       -3.612828   -0.365946   -0.589965
     14          8           0       -4.800812   -0.388147   -0.348286
     15          8           0       -3.044474   -1.188097   -1.509535
     16          7           0       -3.175173    1.826924    0.484026
     17          1           0        0.387984    2.371080   -1.511756
     18          1           0        0.721442    3.653302   -0.338973
     19          1           0       -0.217882    2.235421    0.150750
     20          1           0        2.755818    2.276972   -0.611746
     21          1           0        2.118062    2.063997    1.012153
     22          1           0        1.488557    0.143173   -1.267540
     23          1           0        3.356384   -0.313292    2.039856
     24          1           0        4.912521   -0.571225    1.249460
     25          1           0        4.187093    1.041844    1.257610
     26          1           0        2.571422   -2.179932   -1.165415
     27          1           0        4.093829   -2.369136   -0.279774
     28          1           0        2.564720   -2.300608    0.602521
     29          1           0        3.661667   -0.104472   -2.289856
     30          1           0        4.376181    1.166752   -1.283557
     31          1           0        5.102237   -0.441626   -1.317400
     32          1           0        1.220727   -0.435034    1.565730
     33          1           0       -0.388258   -0.998055   -0.822900
     34          1           0        0.447774   -2.257251    0.068891
     35          1           0       -1.900189   -2.227074    0.684321
     36          1           0       -0.911343   -1.829134    2.077355
     37          1           0       -2.882358   -0.362611    2.032731
     38          1           0       -1.397976    0.578387    1.842823
     39          1           0       -1.775561    0.730173   -0.594898
     40          1           0       -3.765785   -1.747449   -1.856693
     41          1           0       -3.476987    2.328569   -0.350405
     42          1           0       -4.028243    1.647081    1.014362
 ---------------------------------------------------------------------

 SCF Done:  E(UB3LYP) =  -733.184850463     A.U. after   33 cycles
 SCF Done:  E(UB3LYP) =  -733.184850463     a.u. after    1 cycles

 The electronic state is 2-A.
 Alpha  occ. eigenvalues --  -19.07849 -19.02807 -14.21324 -14.19567 -10.21334
 Alpha  occ. eigenvalues --  -10.12283 -10.10200 -10.09197 -10.08948 -10.07831
 Alpha  occ. eigenvalues --  -10.07241 -10.06764 -10.06544 -10.06492 -10.06112
 Alpha  occ. eigenvalues --  -10.06063  -1.01921  -0.93156  -0.81408  -0.80912
 Alpha  occ. eigenvalues --   -0.72584  -0.69258  -0.67040  -0.62477  -0.59561
 Alpha  occ. eigenvalues --   -0.59177  -0.58241  -0.55741  -0.51385  -0.49884
 Alpha  occ. eigenvalues --   -0.47385  -0.44827  -0.43420  -0.40293  -0.39747
 Alpha  occ. eigenvalues --   -0.38901  -0.38197  -0.37111  -0.36035  -0.35199
 Alpha  occ. eigenvalues --   -0.34609  -0.34407  -0.33525  -0.32729  -0.31701
 Alpha  occ. eigenvalues --   -0.30491  -0.30200  -0.29307  -0.28858  -0.27927
 Alpha  occ. eigenvalues --   -0.27517  -0.27226  -0.26099  -0.25421  -0.25054
 Alpha  occ. eigenvalues --   -0.24282  -0.24097  -0.23261  -0.23190  -0.22339
 Alpha  occ. eigenvalues --   -0.21665  -0.19909  -0.16952  -0.12312   0.04065
 Alpha virt. eigenvalues --    0.05619   0.06632   0.06950   0.07694   0.08002
 Alpha virt. eigenvalues --    0.08373   0.08593   0.09244   0.09779   0.10088
 Alpha virt. eigenvalues --    0.10273   0.10890   0.11420   0.12075   0.12364

  Beta  occ. eigenvalues --  -19.07791 -19.02794 -14.21314 -14.19554 -10.21334
  Beta  occ. eigenvalues --  -10.12270 -10.10194 -10.09185 -10.08946 -10.07826
  Beta  occ. eigenvalues --  -10.07225 -10.06756 -10.06522 -10.06462 -10.06087
  Beta  occ. eigenvalues --  -10.06055  -1.01853  -0.93096  -0.81390  -0.80894
  Beta  occ. eigenvalues --   -0.72565  -0.69233  -0.67022  -0.62433  -0.59511
  Beta  occ. eigenvalues --   -0.59132  -0.58198  -0.55697  -0.51317  -0.49850
  Beta  occ. eigenvalues --   -0.47327  -0.44783  -0.43392  -0.40264  -0.39713
  Beta  occ. eigenvalues --   -0.38876  -0.38170  -0.37078  -0.36010  -0.35175
  Beta  occ. eigenvalues --   -0.34579  -0.34384  -0.33493  -0.32685  -0.31680
  Beta  occ. eigenvalues --   -0.30468  -0.30176  -0.29279  -0.28827  -0.27901
  Beta  occ. eigenvalues --   -0.27491  -0.27197  -0.26076  -0.25398  -0.25031
  Beta  occ. eigenvalues --   -0.24263  -0.24065  -0.23237  -0.23163  -0.22319
  Beta  occ. eigenvalues --   -0.21643  -0.19872  -0.16932  -0.12284
  Beta virt. eigenvalues --    0.06048   0.06671   0.07134   0.07417   0.08005
  Beta virt. eigenvalues --    0.08450   0.08587   0.08776   0.09492   0.10005
  Beta virt. eigenvalues --    0.10299   0.10486   0.11156   0.11628   0.12257

 Mulliken charges and spin densities:
               1          2
     1  C   -0.097297  -0.641506
     2  C   -0.416353   0.238755
     3  C    1.017502  -1.636000
     4  C   -1.591291   2.360445
     5  C    0.078001  -0.608184
     6  C    0.690988  -1.318908
     7  C    0.295506  -0.955976
     8  N    0.104795   0.019480
     9  C    0.200891  -0.479973
    10  C   -0.830063   0.379895
    11  C   -0.055699   0.156532
    12  C    0.390063  -0.811242
    13  C    0.096183  -0.409338
    14  O   -0.295697   0.038868
    15  O   -0.188585   0.050985
    16  N   -0.289871   0.043731
    17  H   -0.021029   0.151391
    18  H    0.056157   0.083052
    19  H    0.330846  -0.082385
    20  H    0.056287   0.061172
    21  H    0.046118   0.089840
    22  H    0.080959   0.091857
    23  H   -0.386564   0.509074
    24  H   -0.258365   0.433469
    25  H   -0.058560   0.214665
    26  H   -0.113125   0.263025
    27  H    0.003057   0.144270
    28  H   -0.115321   0.267253
    29  H   -0.046918   0.190306
    30  H   -0.079069   0.207555
    31  H   -0.108222   0.258362
    32  H    0.512534  -0.277067
    33  H    0.176880  -0.022805
    34  H   -0.025503   0.149179
    35  H   -0.111483   0.282210
    36  H   -0.257736   0.426402
    37  H    0.130920   0.049242
    38  H    0.018130   0.160525
    39  H    0.191147   0.008054
    40  H   -0.474140   0.781317
    41  H    0.145719   0.080196
    42  H    0.198205   0.052278
 Sum of Mulliken charges =  -1.00000   1.00000

 Dipole moment (field-independent basis, Debye):
    X=             -0.3505    Y=              3.9475    Z=              1.2933  Tot=              4.1687
 Quadrupole moment (field-independent basis, Debye-Ang):
   XX=           -202.3413   YY=           -147.4072   ZZ=           -141.0634
   XY=             -6.3318   XZ=            -10.8270   YZ=             -4.8264

 Summary of Natural Population Analysis:

                                       Natural Population
                Natural  -----------------------------------------------
    Atom  No    Charge         Core      Valence    Rydberg      Total
 -----------------------------------------------------------------------
      C    1   -0.28484      0.99966     2.28059    0.00460     3.28484
      C    2   -0.19193      0.99961     2.18376    0.00856     3.19193
      C    3    0.00035      0.99955     1.98658    0.01352     2.99965
      C    4   -0.05062      0.99957     2.03892    0.01213     3.05062
      C    5   -0.28803      0.99962     2.28084    0.00757     3.28803
      C    6   -0.28514      0.99962     2.27785    0.00767     3.28514
      C    7   -0.28476      0.99962     2.27789    0.00725     3.28476
      N    8   -0.35458      0.99973     2.84361    0.01124     3.85458
      C    9   -0.08408      0.99961     2.07442    0.01005     3.08408
      C   10   -0.19318      0.99962     2.18470    0.00886     3.19318
      C   11   -0.19004      0.99960     2.18033    0.01010     3.19004
      C   12   -0.06384      0.99955     2.05094    0.01335     3.06384
      C   13    0.40123      0.99969     1.57210    0.02699     2.59877
      O   14   -0.31350      0.99987     3.30699    0.00664     4.31350
      O   15   -0.34294      0.99988     3.33552    0.00755     4.34294
      N   16   -0.41145      0.99977     2.90289    0.00878     3.91145
      H   17    0.09223      0.00000     0.40672    0.00105     0.40777
      H   18    0.09497      0.00000     0.40429    0.00074     0.40503
      H   19    0.10638      0.00000     0.39203    0.00158     0.39362
      H   20    0.09431      0.00000     0.40458    0.00111     0.40569
      H   21    0.09541      0.00000     0.40344    0.00115     0.40459
      H   22    0.09168      0.00000     0.40635    0.00197     0.40832
      H   23    0.09738      0.00000     0.40138    0.00124     0.40262
      H   24    0.10182      0.00000     0.39719    0.00099     0.39818
      H   25    0.10031      0.00000     0.39866    0.00104     0.39969
      H   26    0.10062      0.00000     0.39829    0.00109     0.39938
      H   27    0.09955      0.00000     0.39952    0.00093     0.40045
      H   28    0.10109      0.00000     0.39755    0.00137     0.39891
      H   29    0.09962      0.00000     0.39950    0.00088     0.40038
      H   30    0.09891      0.00000     0.40003    0.00106     0.40109
      H   31    0.10001      0.00000     0.39909    0.00090     0.39999
      H   32    0.17463      0.00000     0.32277    0.00260     0.32537
      H   33    0.09392      0.00000     0.40372    0.00236     0.40608
      H   34    0.08334      0.00000     0.41511    0.00155     0.41666
      H   35    0.10220      0.00000     0.39629    0.00151     0.39780
      H   36    0.09635      0.00000     0.40262    0.00103     0.40365
      H   37    0.09694      0.00000     0.40212    0.00093     0.40306
      H   38    0.11143      0.00000     0.38707    0.00150     0.38857
      H   39    0.10797      0.00000     0.38937    0.00266     0.39203
      H   40    0.24427      0.00000     0.23630    0.01943     0.25573
      H   41    0.17458      0.00000     0.32399    0.00143     0.32542
      H   42    0.17741      0.00000     0.32080    0.00179     0.32259
 =======================================================================
   * Total *   -0.00000     15.99457    47.78670    0.21874    64.00000

 Normal termination of Gaussian 16 at Thu Dec 10 23:03:30 2020.
