 Gaussian 16, Revision A.03,

 -----------------------------------------------------------
 # opt freq B3LYP/6-31G(d) empiricaldispersion=gd3bj scf=xqc
 -----------------------------------------------------------

 -------------------------------
 CID_104366633_JID_6422_neutraal
 -------------------------------
 Symbolic Z-matrix:
 Charge =  0 Multiplicity = 1

 SCF Done:  E(RB3LYP) =  -1035.03017167     A.U. after   15 cycles
 SCF Done:  E(RB3LYP) =  -1035.03553907     A.U. after   13 cycles
 SCF Done:  E(RB3LYP) =  -1035.03502002     A.U. after   13 cycles
 SCF Done:  E(RB3LYP) =  -1035.03688103     A.U. after   13 cycles
 SCF Done:  E(RB3LYP) =  -1035.03717630     A.U. after   12 cycles
 SCF Done:  E(RB3LYP) =  -1035.03678885     A.U. after   13 cycles
 SCF Done:  E(RB3LYP) =  -1035.03733566     A.U. after   13 cycles
 SCF Done:  E(RB3LYP) =  -1035.03736566     A.U. after   10 cycles
 SCF Done:  E(RB3LYP) =  -1035.03737654     A.U. after   11 cycles
 SCF Done:  E(RB3LYP) =  -1035.03738065     A.U. after   10 cycles
 SCF Done:  E(RB3LYP) =  -1035.03738250     A.U. after   10 cycles
 SCF Done:  E(RB3LYP) =  -1035.03738278     A.U. after    8 cycles
 SCF Done:  E(RB3LYP) =  -1035.03738289     A.U. after    7 cycles
 Optimization completed.
    -- Stationary point found.
 Normal termination of Gaussian 16 at Thu Dec 10 22:47:02 2020.

 --------------------------------------------------------------------
 #N Geom=AllCheck Guess=TCheck SCRF=Check GenChk RB3LYP/6-31G(d) Freq
 --------------------------------------------------------------------

 Structure from the checkpoint file:  "JID_6422.chk"
 -------------------------------
 CID_104366633_JID_6422_neutraal
 -------------------------------
 Charge =  0 Multiplicity = 1

 SCF Done:  E(RB3LYP) =  -1035.03738289     A.U. after    1 cycles

  Exact polarizability: 194.880  15.987 132.449   6.106 -11.095 147.283
 Approx polarizability: 295.563  41.859 198.881   5.074 -30.227 247.433

                      1                      2                      3
                      A                      A                      A
 Frequencies --     35.3657                48.0516                67.8216
 Red. masses --      4.5974                 4.4311                 5.2810
 Frc consts  --      0.0034                 0.0060                 0.0143
 IR Inten    --      0.0785                 0.8810                 0.5994

                      4                      5                      6
                      A                      A                      A
 Frequencies --    118.3982               131.8106               137.8519
 Red. masses --      4.1772                 4.6185                 3.6916
 Frc consts  --      0.0345                 0.0473                 0.0413
 IR Inten    --      1.2563                 2.3986                 2.1031

                      7                      8                      9
                      A                      A                      A
 Frequencies --    167.4739               198.3144               208.0054
 Red. masses --      3.1951                 2.1372                 1.1477
 Frc consts  --      0.0528                 0.0495                 0.0293
 IR Inten    --      2.8926                 0.2401                 0.1374

                     10                     11                     12
                      A                      A                      A
 Frequencies --    225.2533               234.7751               270.0508
 Red. masses --      3.1542                 1.3681                 2.6207
 Frc consts  --      0.0943                 0.0444                 0.1126
 IR Inten    --      5.1061                 0.9190                 5.3523

                     13                     14                     15
                      A                      A                      A
 Frequencies --    284.8434               297.8482               333.3908
 Red. masses --      2.2545                 3.1072                 2.1553
 Frc consts  --      0.1078                 0.1624                 0.1411
 IR Inten    --      0.7998                 1.4163                 0.0396

                     16                     17                     18
                      A                      A                      A
 Frequencies --    340.3257               403.0332               411.7753
 Red. masses --      2.1373                 3.8082                 3.1508
 Frc consts  --      0.1459                 0.3645                 0.3148
 IR Inten    --      0.3315                 1.0354                 0.7574

                     19                     20                     21
                      A                      A                      A
 Frequencies --    429.4685               472.2586               485.1071
 Red. masses --      3.9079                 4.0178                 2.9377
 Frc consts  --      0.4247                 0.5280                 0.4073
 IR Inten    --      1.8619                 0.0101                 1.0995

                     22                     23                     24
                      A                      A                      A
 Frequencies --    501.5965               542.3050               577.5549
 Red. masses --      4.5179                 2.7227                 3.2291
 Frc consts  --      0.6697                 0.4718                 0.6346
 IR Inten    --      2.8296                 1.9845                 3.4189

                     25                     26                     27
                      A                      A                      A
 Frequencies --    631.1055               666.1958               708.6458
 Red. masses --      3.0564                 6.2137                 2.3655
 Frc consts  --      0.7172                 1.6248                 0.6999
 IR Inten    --      1.4381                31.7627                22.1444

                     28                     29                     30
                      A                      A                      A
 Frequencies --    738.7066               780.7442               796.5552
 Red. masses --      5.0629                 2.7342                 1.4724
 Frc consts  --      1.6278                 0.9820                 0.5505
 IR Inten    --     18.2593                 6.8205                 6.7568

                     31                     32                     33
                      A                      A                      A
 Frequencies --    808.4170               855.2065               860.3106
 Red. masses --      1.8366                 2.4623                 2.1171
 Frc consts  --      0.7072                 1.0610                 0.9232
 IR Inten    --      4.2385                 3.0758                12.2971

                     34                     35                     36
                      A                      A                      A
 Frequencies --    869.4033               885.2021               913.7380
 Red. masses --      1.6231                 3.0077                 1.5475
 Frc consts  --      0.7228                 1.3886                 0.7612
 IR Inten    --      6.6403                 6.2256                 6.6153

                     37                     38                     39
                      A                      A                      A
 Frequencies --    926.4722               975.7535               986.6136
 Red. masses --      2.5931                 2.2218                 1.6715
 Frc consts  --      1.3114                 1.2464                 0.9586
 IR Inten    --      6.7986                 1.1981                 1.7994

                     40                     41                     42
                      A                      A                      A
 Frequencies --   1012.5450              1013.1574              1015.4625
 Red. masses --      2.0868                 1.7101                 1.6699
 Frc consts  --      1.2605                 1.0342                 1.0145
 IR Inten    --     27.0913                 1.1617                29.7987

                     43                     44                     45
                      A                      A                      A
 Frequencies --   1056.2989              1103.3984              1115.0253
 Red. masses --      1.7977                 1.8027                 2.1456
 Frc consts  --      1.1818                 1.2931                 1.5717
 IR Inten    --      2.7850                 3.0703                 3.8603

                     46                     47                     48
                      A                      A                      A
 Frequencies --   1120.6028              1130.9082              1154.6222
 Red. masses --      1.7623                 1.5112                 1.4525
 Frc consts  --      1.3039                 1.1388                 1.1409
 IR Inten    --      9.2757                 0.9271                12.6206

                     49                     50                     51
                      A                      A                      A
 Frequencies --   1166.6318              1171.8831              1177.1080
 Red. masses --      1.9628                 1.7213                 1.8440
 Frc consts  --      1.5739                 1.3927                 1.5053
 IR Inten    --     35.3050                10.4018                 6.8597

                     52                     53                     54
                      A                      A                      A
 Frequencies --   1217.9464              1239.0256              1267.3582
 Red. masses --      1.7825                 2.3815                 1.8203
 Frc consts  --      1.5578                 2.1541                 1.7226
 IR Inten    --     63.0498                24.9038                 7.5427

                     55                     56                     57
                      A                      A                      A
 Frequencies --   1269.7070              1296.2860              1304.8770
 Red. masses --      2.2278                 1.2600                 1.3823
 Frc consts  --      2.1161                 1.2475                 1.3867
 IR Inten    --     61.7354                 5.1857                 5.8812

                     58                     59                     60
                      A                      A                      A
 Frequencies --   1344.5313              1357.5199              1379.0232
 Red. masses --      1.3345                 1.2622                 1.9859
 Frc consts  --      1.4213                 1.3705                 2.2251
 IR Inten    --      3.5632                 0.7514                 6.3109

                     61                     62                     63
                      A                      A                      A
 Frequencies --   1386.6247              1393.0848              1404.9244
 Red. masses --      1.7515                 1.4934                 1.4523
 Frc consts  --      1.9842                 1.7076                 1.6890
 IR Inten    --      8.4121                 2.1543                 3.6896

                     64                     65                     66
                      A                      A                      A
 Frequencies --   1408.5090              1410.0145              1415.4209
 Red. masses --      1.4421                 1.7200                 1.4616
 Frc consts  --      1.6857                 2.0148                 1.7253
 IR Inten    --      3.1477                12.4754                 1.5231

                     67                     68                     69
                      A                      A                      A
 Frequencies --   1439.4927              1449.2833              1475.9531
 Red. masses --      1.2489                 1.3269                 1.5110
 Frc consts  --      1.5247                 1.6421                 1.9394
 IR Inten    --      4.7470                29.5786                44.6705

                     70                     71                     72
                      A                      A                      A
 Frequencies --   1507.4883              1508.4650              1517.6153
 Red. masses --      1.3490                 1.4327                 1.0826
 Frc consts  --      1.8062                 1.9208                 1.4691
 IR Inten    --     34.7774                20.8716                 2.2673

                     73                     74                     75
                      A                      A                      A
 Frequencies --   1520.0977              1520.7999              1523.7776
 Red. masses --      1.0685                 1.0786                 1.0633
 Frc consts  --      1.4547                 1.4699                 1.4547
 IR Inten    --      8.9997                 4.0950                 6.6932

                     76                     77                     78
                      A                      A                      A
 Frequencies --   1527.4344              1535.8462              1543.5570
 Red. masses --      1.0547                 1.0971                 1.0945
 Frc consts  --      1.4498                 1.5247                 1.5365
 IR Inten    --      2.9623                 5.0335                11.0436

                     79                     80                     81
                      A                      A                      A
 Frequencies --   1603.7161              1778.1916              2921.6265
 Red. masses --      5.7107                 9.8794                 1.0838
 Frc consts  --      8.6535                18.4051                 5.4506
 IR Inten    --     23.9403               347.2690               114.4262

                     82                     83                     84
                      A                      A                      A
 Frequencies --   2965.6741              2991.6931              3019.6577
 Red. masses --      1.0592                 1.0826                 1.0675
 Frc consts  --      5.4885                 5.7088                 5.7350
 IR Inten    --     65.9149                19.7481                30.3257

                     85                     86                     87
                      A                      A                      A
 Frequencies --   3025.7460              3045.6774              3049.5705
 Red. masses --      1.0660                 1.0628                 1.0683
 Frc consts  --      5.7502                 5.8085                 5.8538
 IR Inten    --     19.9936                25.7090                20.3093

                     88                     89                     90
                      A                      A                      A
 Frequencies --   3051.6341              3054.8158              3066.8376
 Red. masses --      1.0565                 1.0685                 1.0978
 Frc consts  --      5.7965                 5.8749                 6.0837
 IR Inten    --     73.1303                41.6140                40.0887

                     91                     92                     93
                      A                      A                      A
 Frequencies --   3074.7135              3085.7648              3099.1821
 Red. masses --      1.0941                 1.0740                 1.0961
 Frc consts  --      6.0943                 6.0251                 6.2031
 IR Inten    --     41.6070                40.1967                 6.5759

                     94                     95                     96
                      A                      A                      A
 Frequencies --   3106.4547              3109.7960              3135.2375
 Red. masses --      1.0965                 1.1022                 1.1028
 Frc consts  --      6.2341                 6.2800                 6.3868
 IR Inten    --     78.0184                34.7015                 7.2391

                     97                     98                     99
                      A                      A                      A
 Frequencies --   3136.2067              3224.7316              3282.5664
 Red. masses --      1.0992                 1.0924                 1.0932
 Frc consts  --      6.3698                 6.6931                 6.9405
 IR Inten    --     70.7615                 2.1392                 1.1482

 - Thermochemistry -
 -------------------
 Temperature   298.150 Kelvin.  Pressure   1.00000 Atm.
 Atom     1 has atomic number  6 and mass  12.00000

 Molecular mass:   237.11874 amu.
 Principal axes and moments of inertia in atomic units:
                           1         2         3
     Eigenvalues --  2315.193405730.977695961.54117
           X            0.99987  -0.00814   0.01405
           Y            0.00850   0.99962  -0.02616
           Z           -0.01383   0.02628   0.99956
 This molecule is an asymmetric top.
 Rotational symmetry number  1.
 Warning -- assumption of classical behavior for rotation
           may cause significant error
 Rotational temperatures (Kelvin)      0.03741     0.01511     0.01453
 Rotational constants (GHZ):           0.77952     0.31491     0.30273
 Zero-point vibrational energy     792870.2 (Joules/Mol)
                                  189.50053 (Kcal/Mol)
 Warning -- explicit consideration of  24 degrees of freedom as
           vibrations may cause significant error
 Vibrational temperatures:     50.88    69.14    97.58   170.35   189.65
          (Kelvin)            198.34   240.96   285.33   299.27   324.09
                              337.79   388.54   409.83   428.54   479.68
                              489.65   579.87   592.45   617.91   679.47
                              697.96   721.69   780.26   830.97   908.02
                              958.51  1019.58  1062.83  1123.32  1146.07
                             1163.13  1230.45  1237.80  1250.88  1273.61
                             1314.67  1332.99  1403.89  1419.52  1456.83
                             1457.71  1461.02  1519.78  1587.54  1604.27
                             1612.30  1627.12  1661.24  1678.52  1686.08
                             1693.60  1752.35  1782.68  1823.45  1826.83
                             1865.07  1877.43  1934.48  1953.17  1984.11
                             1995.04  2004.34  2021.37  2026.53  2028.70
                             2036.47  2071.11  2085.20  2123.57  2168.94
                             2170.34  2183.51  2187.08  2188.09  2192.38
                             2197.64  2209.74  2220.83  2307.39  2558.42
                             4203.57  4266.94  4304.38  4344.61  4353.37
                             4382.05  4387.65  4390.62  4395.20  4412.50
                             4423.83  4439.73  4459.03  4469.50  4474.30
                             4510.91  4512.30  4639.67  4722.88

 Zero-point correction=                           0.301988 (Hartree/Particle)
 Thermal correction to Energy=                    0.317806
 Thermal correction to Enthalpy=                  0.318751
 Thermal correction to Gibbs Free Energy=         0.258831
 Sum of electronic and zero-point Energies=          -1034.735395
 Sum of electronic and thermal Energies=             -1034.719577
 Sum of electronic and thermal Enthalpies=           -1034.718632
 Sum of electronic and thermal Free Energies=        -1034.778552

                     E (Thermal)             CV                S
                      KCal/Mol        Cal/Mol-Kelvin    Cal/Mol-Kelvin
 Total                  199.426             61.181            126.112
 Electronic               0.000              0.000              0.000
 Translational            0.889              2.981             42.292
 Rotational               0.889              2.981             32.736
 Vibrational            197.649             55.219             51.084
 Vibration     1          0.594              1.982              5.503
 Vibration     2          0.595              1.978              4.896
 Vibration     3          0.598              1.970              4.216
 Vibration     4          0.609              1.934              3.126
 Vibration     5          0.612              1.922              2.919
 Vibration     6          0.614              1.916              2.833
 Vibration     7          0.624              1.882              2.464
 Vibration     8          0.637              1.842              2.149
 Vibration     9          0.641              1.828              2.061
 Vibration    10          0.650              1.803              1.916
 Vibration    11          0.655              1.788              1.842
 Vibration    12          0.674              1.728              1.596
 Vibration    13          0.683              1.702              1.504
 Vibration    14          0.691              1.678              1.429
 Vibration    15          0.715              1.609              1.244
 Vibration    16          0.720              1.595              1.211
 Vibration    17          0.768              1.464              0.952
 Vibration    18          0.776              1.445              0.920
 Vibration    19          0.791              1.406              0.860
 Vibration    20          0.829              1.312              0.731
 Vibration    21          0.841              1.283              0.696
 Vibration    22          0.857              1.246              0.654
 Vibration    23          0.897              1.157              0.560
 Vibration    24          0.934              1.080              0.490

 Optimization completed.
    -- Stationary point found.
 Normal termination of Gaussian 16 at Thu Dec 10 23:00:52 2020.

 ----------------------------------------------------------------------
 # B3LYP/6-311++G(d,p) empiricaldispersion=gd3bj scf=xqc pop=npa geom=c
 heck
 ----------------------------------------------------------------------

 ---------------------------------------
 CID_104366633_JID_6422_Energie_neutraal
 ---------------------------------------
 Structure from the checkpoint file:  "JID_6422.chk"
 Charge =  0 Multiplicity = 1

 SCF Done:  E(RB3LYP) =  -1035.23590587     A.U. after   15 cycles
 Normal termination of Gaussian 16 at Thu Dec 10 23:08:04 2020.

 ----------------------------------------------------------------------
 # B3LYP/6-311++G(d,p) empiricaldispersion=gd3bj scf=xqc pop=npa geom=c
 heck
 ----------------------------------------------------------------------

 -------------------------------------
 CID_104366633_JID_6422_Energie_kation
 -------------------------------------
 Structure from the checkpoint file:  "JID_6422.chk"
 Charge =  1 Multiplicity = 2

 SCF Done:  E(UB3LYP) =  -1034.95080143     A.U. after   23 cycles
 Normal termination of Gaussian 16 at Thu Dec 10 23:22:48 2020.
 Gaussian 16:  ES64L-G16RevA.03 25-Dec-2016

 ----------------------------------------------------------------------
 # B3LYP/6-311++G(d,p) empiricaldispersion=gd3bj scf=xqc pop=npa geom=c
 heck
 ----------------------------------------------------------------------

 ------------------------------------
 CID_104366633_JID_6422_Energie_anion
 ------------------------------------
 Structure from the checkpoint file:  "JID_6422.chk"
 Charge = -1 Multiplicity = 2

                         Standard orientation:
 ---------------------------------------------------------------------
 Center     Atomic      Atomic             Coordinates (Angstroms)
 Number     Number       Type             X           Y           Z
 ---------------------------------------------------------------------
      1          6           0        3.114611    0.545151    1.718840
      2          6           0        2.793315   -0.236609    0.444000
      3          6           0        2.126656   -1.592695    0.732545
      4          6           0        1.861834   -2.378567   -0.556304
      5          6           0        1.005153   -1.562030   -1.529808
      6          6           0        1.659499   -0.208102   -1.845036
      7          6           0        2.044208    0.628923   -0.601854
      8          7           0        0.951120    1.471711   -0.047908
      9          6           0        0.829990    2.750925   -0.743778
     10          6           0       -0.306963    0.872585    0.218642
     11          6           0       -0.637275    0.307071    1.433573
     12         16           0       -2.226575   -0.363733    1.469415
     13          6           0       -2.509720    0.165482   -0.171450
     14          6           0       -1.406600    0.802302   -0.694053
     15          6           0       -3.780549   -0.097144   -0.830429
     16          8           0       -4.715379   -0.694690   -0.325662
     17          1           0        2.205405    0.819975    2.260571
     18          1           0        3.747681   -0.049627    2.387198
     19          1           0        3.644947    1.476597    1.488436
     20          1           0        3.751274   -0.474391   -0.045825
     21          1           0        2.778106   -2.169980    1.401492
     22          1           0        1.182015   -1.448831    1.267774
     23          1           0        1.370607   -3.331669   -0.326251
     24          1           0        2.821550   -2.625641   -1.034339
     25          1           0        0.010259   -1.413970   -1.096858
     26          1           0        0.857889   -2.117317   -2.464668
     27          1           0        1.015411    0.387987   -2.504218
     28          1           0        2.581673   -0.397355   -2.412446
     29          1           0        2.777360    1.373324   -0.933265
     30          1           0        0.585470    2.660699   -1.817423
     31          1           0        0.048445    3.348556   -0.266496
     32          1           0        1.775257    3.296923   -0.661342
     33          1           0       -0.007129    0.261220    2.309766
     34          1           0       -1.380146    1.194643   -1.704617
     35          1           0       -3.840634    0.300374   -1.866808
 ---------------------------------------------------------------------

 SCF Done:  E(UB3LYP) =  -1035.25329330     A.U. after   29 cycles

 The electronic state is 2-A.
 Alpha  occ. eigenvalues --  -88.70686 -18.91208 -14.18978 -10.09498 -10.08168
 Alpha  occ. eigenvalues --  -10.07238 -10.06286 -10.06121 -10.05953 -10.05586
 Alpha  occ. eigenvalues --  -10.05305 -10.05284 -10.05241 -10.02663 -10.02497
 Alpha  occ. eigenvalues --  -10.00829  -7.79339  -5.75626  -5.75278  -5.74966
 Alpha  occ. eigenvalues --   -0.85051  -0.81217  -0.72603  -0.71156  -0.66316
 Alpha  occ. eigenvalues --   -0.63574  -0.59199  -0.58145  -0.57682  -0.54061
 Alpha  occ. eigenvalues --   -0.50273  -0.48583  -0.46468  -0.44900  -0.39481
 Alpha  occ. eigenvalues --   -0.38571  -0.36969  -0.35577  -0.35198  -0.34287
 Alpha  occ. eigenvalues --   -0.33246  -0.32239  -0.31030  -0.30180  -0.30079
 Alpha  occ. eigenvalues --   -0.28096  -0.26979  -0.26484  -0.26005  -0.25322
 Alpha  occ. eigenvalues --   -0.25138  -0.24564  -0.24052  -0.22956  -0.22478
 Alpha  occ. eigenvalues --   -0.21849  -0.20518  -0.19672  -0.19260  -0.18807
 Alpha  occ. eigenvalues --   -0.11660  -0.09990  -0.07870  -0.07525   0.04658
 Alpha virt. eigenvalues --    0.06497   0.08046   0.08125   0.09138   0.10086
 Alpha virt. eigenvalues --    0.10460   0.11145   0.11398   0.11813   0.12851
 Alpha virt. eigenvalues --    0.13017   0.13470   0.13579   0.14134   0.14936

  Beta  occ. eigenvalues --  -88.70616 -18.90629 -14.18979 -10.09505 -10.08172
  Beta  occ. eigenvalues --  -10.07238 -10.06286 -10.06117 -10.05953 -10.05576
  Beta  occ. eigenvalues --  -10.05372 -10.05302 -10.04967 -10.02398 -10.02259
  Beta  occ. eigenvalues --  -10.00526  -7.79276  -5.75594  -5.75247  -5.74732
  Beta  occ. eigenvalues --   -0.83997  -0.81232  -0.72535  -0.70858  -0.66311
  Beta  occ. eigenvalues --   -0.63564  -0.59025  -0.57879  -0.57258  -0.53883
  Beta  occ. eigenvalues --   -0.50121  -0.48544  -0.45448  -0.44824  -0.39358
  Beta  occ. eigenvalues --   -0.38358  -0.36794  -0.35575  -0.35114  -0.34046
  Beta  occ. eigenvalues --   -0.33195  -0.32225  -0.30967  -0.30110  -0.29978
  Beta  occ. eigenvalues --   -0.28001  -0.26955  -0.26440  -0.25953  -0.25097
  Beta  occ. eigenvalues --   -0.25015  -0.23747  -0.23372  -0.22820  -0.22338
  Beta  occ. eigenvalues --   -0.20913  -0.20409  -0.19652  -0.18527  -0.17366
  Beta  occ. eigenvalues --   -0.11277  -0.08301  -0.07207  -0.06276
  Beta virt. eigenvalues --    0.06458   0.08014   0.08082   0.09095   0.10007
  Beta virt. eigenvalues --    0.10430   0.11092   0.11206   0.11611   0.11871
  Beta virt. eigenvalues --    0.12808   0.13015   0.13447   0.13557   0.14151

 Mulliken charges and spin densities:
               1          2
     1  C   -0.576722  -0.002851
     2  C   -0.223832   0.001342
     3  C   -0.040136  -0.020277
     4  C   -0.605816   0.000003
     5  C   -0.226469  -0.016989
     6  C   -0.522225   0.048538
     7  C    0.102464  -0.013163
     8  N    0.257342  -0.002332
     9  C   -0.195280   0.004416
    10  C   -0.791348  -0.077935
    11  C    0.355799   0.283696
    12  S   -0.310068   0.134595
    13  C    0.169981   0.031278
    14  C   -0.350338   0.208730
    15  C   -0.132878   0.251856
    16  O   -0.409080   0.194600
    17  H    0.140232   0.003621
    18  H    0.119279   0.001620
    19  H    0.116902   0.000193
    20  H    0.136736   0.003183
    21  H    0.144169   0.008880
    22  H    0.199405   0.001163
    23  H    0.160508  -0.000763
    24  H    0.088717   0.000338
    25  H    0.185702   0.003888
    26  H    0.151408  -0.001391
    27  H    0.125982   0.000178
    28  H    0.111398   0.012647
    29  H    0.151791  -0.000372
    30  H    0.110677  -0.000202
    31  H    0.159972   0.000701
    32  H    0.102863   0.002737
    33  H    0.190476  -0.023600
    34  H    0.088973  -0.018112
    35  H    0.013417  -0.020215
 Sum of Mulliken charges =  -1.00000   1.00000

 Dipole moment (field-independent basis, Debye):
    X=             12.3280    Y=              1.2246    Z=             -1.4443  Tot=             12.4726
 Quadrupole moment (field-independent basis, Debye-Ang):
   XX=           -177.2637   YY=           -118.5004   ZZ=           -116.8300
   XY=             -7.6767   XZ=             -0.3486   YZ=             -2.2887

 Summary of Natural Population Analysis:

                                       Natural Population
                Natural  -----------------------------------------------
    Atom  No    Charge         Core      Valence    Rydberg      Total
 -----------------------------------------------------------------------
      C    1   -0.28168      0.99965     2.27668    0.00535     3.28168
      C    2   -0.10970      0.99958     2.10151    0.00861     3.10970
      C    3   -0.19397      0.99961     2.18634    0.00802     3.19397
      C    4   -0.18547      0.99964     2.17896    0.00688     3.18547
      C    5   -0.19625      0.99963     2.18892    0.00771     3.19625
      C    6   -0.19740      0.99961     2.19030    0.00748     3.19740
      C    7    0.01155      0.99955     1.97750    0.01140     2.98845
      N    8   -0.28434      0.99966     2.77092    0.01375     3.78434
      C    9   -0.17128      0.99965     2.16476    0.00688     3.17128
      C   10    0.00400      0.99943     1.97988    0.01668     2.99600
      C   11   -0.12520      0.99948     2.11488    0.01084     3.12520
      S   12    0.22580      4.99942     2.75158    0.02320     7.77420
      C   13   -0.13159      0.99947     2.12054    0.01158     3.13159
      C   14   -0.07331      0.99944     2.06554    0.00833     3.07331
      C   15    0.22873      0.99963     1.75026    0.02138     2.77127
      O   16   -0.24730      0.99988     3.23923    0.00819     4.24730
      H   17    0.10614      0.00000     0.39268    0.00118     0.39386
      H   18    0.09117      0.00000     0.40788    0.00095     0.40883
      H   19    0.09435      0.00000     0.40469    0.00096     0.40565
      H   20    0.08606      0.00000     0.41213    0.00181     0.41394
      H   21    0.08986      0.00000     0.40901    0.00114     0.41014
      H   22    0.11084      0.00000     0.38764    0.00151     0.38916
      H   23    0.09676      0.00000     0.40215    0.00110     0.40324
      H   24    0.08335      0.00000     0.41523    0.00142     0.41665
      H   25    0.11569      0.00000     0.38284    0.00148     0.38431
      H   26    0.09133      0.00000     0.40743    0.00124     0.40867
      H   27    0.10250      0.00000     0.39638    0.00112     0.39750
      H   28    0.08882      0.00000     0.40978    0.00140     0.41118
      H   29    0.08920      0.00000     0.40959    0.00121     0.41080
      H   30    0.07633      0.00000     0.42180    0.00187     0.42367
      H   31    0.10114      0.00000     0.39799    0.00087     0.39886
      H   32    0.08498      0.00000     0.41399    0.00103     0.41502
      H   33    0.09484      0.00000     0.40415    0.00100     0.40516
      H   34    0.09435      0.00000     0.40438    0.00127     0.40565
      H   35    0.02969      0.00000     0.46712    0.00319     0.47031
 =======================================================================
   * Total *    0.00000     19.99333    43.80466    0.20201    64.00000

 Normal termination of Gaussian 16 at Thu Dec 10 23:41:12 2020.
