 Gaussian 16, Revision A.03,

 -----------------------------------------------------------
 # opt freq B3LYP/6-31G(d) empiricaldispersion=gd3bj scf=xqc
 -----------------------------------------------------------

 ----------------------------
 CID_881008_JID_8080_neutraal
 ----------------------------
 Symbolic Z-matrix:
 Charge =  0 Multiplicity = 1

 SCF Done:  E(RB3LYP) =  -785.890664834     A.U. after   15 cycles
 SCF Done:  E(RB3LYP) =  -785.896436048     A.U. after   13 cycles
 SCF Done:  E(RB3LYP) =  -785.899183824     A.U. after   13 cycles
 SCF Done:  E(RB3LYP) =  -785.882200686     A.U. after   15 cycles
 SCF Done:  E(RB3LYP) =  -785.898828481     A.U. after   14 cycles
 SCF Done:  E(RB3LYP) =  -785.900539237     A.U. after   11 cycles
 SCF Done:  E(RB3LYP) =  -785.901461785     A.U. after   12 cycles
 SCF Done:  E(RB3LYP) =  -785.901621938     A.U. after   12 cycles
 SCF Done:  E(RB3LYP) =  -785.902078520     A.U. after   12 cycles
 SCF Done:  E(RB3LYP) =  -785.902284610     A.U. after   11 cycles
 SCF Done:  E(RB3LYP) =  -785.909017638     A.U. after    9 cycles
 SCF Done:  E(RB3LYP) =  -785.909018276     A.U. after    8 cycles
 SCF Done:  E(RB3LYP) =  -785.909018634     A.U. after    8 cycles
 SCF Done:  E(RB3LYP) =  -785.909018882     A.U. after    8 cycles
 SCF Done:  E(RB3LYP) =  -785.909018978     A.U. after    7 cycles
 Optimization completed.
    -- Stationary point found.
 Normal termination of Gaussian 16 at Fri Dec 11 19:05:41 2020.

 --------------------------------------------------------------------
 #N Geom=AllCheck Guess=TCheck SCRF=Check GenChk RB3LYP/6-31G(d) Freq
 --------------------------------------------------------------------

 Structure from the checkpoint file:  "JID_8080.chk"
 ----------------------------
 CID_881008_JID_8080_neutraal
 ----------------------------
 Charge =  0 Multiplicity = 1

 SCF Done:  E(RB3LYP) =  -785.909018978     A.U. after    1 cycles

  Exact polarizability: 151.271   4.204 176.814  34.180   5.315 126.623
 Approx polarizability: 231.830  10.715 310.301  76.658  12.203 215.075

                      1                      2                      3
                      A                      A                      A
 Frequencies --     17.6752                54.0663                64.1633
 Red. masses --      4.9701                 7.7016                 4.0230
 Frc consts  --      0.0009                 0.0133                 0.0098
 IR Inten    --      0.2260                 0.8094                 0.0859

                      4                      5                      6
                      A                      A                      A
 Frequencies --     92.1278                97.3479               103.2381
 Red. masses --      5.2018                 5.1916                 3.6368
 Frc consts  --      0.0260                 0.0290                 0.0228
 IR Inten    --      0.2375                 0.3443                 1.7261

                      7                      8                      9
                      A                      A                      A
 Frequencies --    125.5260               174.1020               218.0799
 Red. masses --      4.6313                 3.1006                 4.6933
 Frc consts  --      0.0430                 0.0554                 0.1315
 IR Inten    --      1.6135                 0.9977                 0.9269

                     10                     11                     12
                      A                      A                      A
 Frequencies --    239.0081               294.1320               321.6931
 Red. masses --      4.0894                 4.0970                 3.8525
 Frc consts  --      0.1376                 0.2088                 0.2349
 IR Inten    --      0.4230                 0.8787                 1.9620

                     13                     14                     15
                      A                      A                      A
 Frequencies --    345.8197               397.8372               414.7998
 Red. masses --      3.7478                 4.1242                 2.3648
 Frc consts  --      0.2641                 0.3846                 0.2397
 IR Inten    --      4.8911                 0.5563                15.8928

                     16                     17                     18
                      A                      A                      A
 Frequencies --    423.3225               444.1760               482.1401
 Red. masses --      1.4324                 2.9794                 3.5966
 Frc consts  --      0.1512                 0.3463                 0.4926
 IR Inten    --     60.3697                 2.1929                 9.9163

                     19                     20                     21
                      A                      A                      A
 Frequencies --    486.0435               497.4718               521.0391
 Red. masses --      2.5346                 2.5354                 4.2115
 Frc consts  --      0.3528                 0.3697                 0.6736
 IR Inten    --      5.0908                31.5011                 1.9208

                     22                     23                     24
                      A                      A                      A
 Frequencies --    555.4275               580.6210               609.5386
 Red. masses --      3.4230                 2.0716                 4.8166
 Frc consts  --      0.6222                 0.4115                 1.0544
 IR Inten    --     22.7161                66.0932                10.6913

                     25                     26                     27
                      A                      A                      A
 Frequencies --    636.1186               658.1219               705.6525
 Red. masses --      6.0567                 4.5380                 4.1290
 Frc consts  --      1.4440                 1.1580                 1.2114
 IR Inten    --      0.8301                 8.7183                 6.7172

                     28                     29                     30
                      A                      A                      A
 Frequencies --    723.2331               750.7321               759.1571
 Red. masses --      2.5238                 3.3496                 1.5156
 Frc consts  --      0.7778                 1.1123                 0.5146
 IR Inten    --     46.3535                22.5064                 8.4329

                     31                     32                     33
                      A                      A                      A
 Frequencies --    776.8013               810.3345               841.8179
 Red. masses --      1.5709                 3.6905                 3.8366
 Frc consts  --      0.5585                 1.4278                 1.6019
 IR Inten    --     35.7873                 3.3547                 1.8888

                     34                     35                     36
                      A                      A                      A
 Frequencies --    863.9308               868.1348               894.2155
 Red. masses --      3.3917                 1.2556                 1.3427
 Frc consts  --      1.4915                 0.5575                 0.6326
 IR Inten    --      1.5953                 0.3065                 0.1871

                     37                     38                     39
                      A                      A                      A
 Frequencies --    923.3350               937.6350               958.7900
 Red. masses --      2.4679                 1.8611                 1.4403
 Frc consts  --      1.2397                 0.9640                 0.7801
 IR Inten    --      2.1860                 3.5710                 3.2318

                     40                     41                     42
                      A                      A                      A
 Frequencies --    974.3384               977.8341               992.1902
 Red. masses --      1.8976                 1.3502                 1.3037
 Frc consts  --      1.0614                 0.7606                 0.7562
 IR Inten    --      4.7183                 0.2002                 1.8619

                     43                     44                     45
                      A                      A                      A
 Frequencies --    997.1117              1000.8818              1023.5351
 Red. masses --      1.2927                 1.5248                 6.1767
 Frc consts  --      0.7572                 0.9000                 3.8125
 IR Inten    --      1.9369                12.0746                 0.6736

                     46                     47                     48
                      A                      A                      A
 Frequencies --   1059.6197              1071.8567              1080.6395
 Red. masses --      2.2616                 2.1566                 4.8607
 Frc consts  --      1.4961                 1.4598                 3.3444
 IR Inten    --      0.5533                 9.8114                47.8703

                     49                     50                     51
                      A                      A                      A
 Frequencies --   1113.3798              1133.4403              1183.2285
 Red. masses --      1.5983                 2.3205                 1.2427
 Frc consts  --      1.1673                 1.7564                 1.0251
 IR Inten    --      3.1950                 3.8308                43.2737

                     52                     53                     54
                      A                      A                      A
 Frequencies --   1191.3401              1193.3612              1213.0460
 Red. masses --      1.1147                 1.1010                 1.7696
 Frc consts  --      0.9321                 0.9238                 1.5342
 IR Inten    --      1.8522                 0.0158                 4.8254

                     55                     56                     57
                      A                      A                      A
 Frequencies --   1217.7701              1227.0150              1239.7464
 Red. masses --      1.2111                 2.3238                 1.1819
 Frc consts  --      1.0582                 2.0613                 1.0703
 IR Inten    --      2.0198                 2.0611                 8.1552

                     58                     59                     60
                      A                      A                      A
 Frequencies --   1265.7343              1310.3008              1320.3442
 Red. masses --      2.4873                 1.6096                 1.5853
 Frc consts  --      2.3478                 1.6282                 1.6283
 IR Inten    --      9.0033                 7.0523                 2.7529

                     61                     62                     63
                      A                      A                      A
 Frequencies --   1341.1725              1350.8778              1369.0282
 Red. masses --      4.9997                 3.6209                 2.4121
 Frc consts  --      5.2987                 3.8931                 2.6636
 IR Inten    --      1.9507               103.4590                26.9335

                     64                     65                     66
                      A                      A                      A
 Frequencies --   1382.8346              1418.3793              1440.2214
 Red. masses --      1.6894                 1.4170                 1.1923
 Frc consts  --      1.9034                 1.6796                 1.4571
 IR Inten    --     70.6108                 8.8789                36.8014

                     67                     68                     69
                      A                      A                      A
 Frequencies --   1448.4383              1500.4490              1501.7658
 Red. masses --      1.8396                 1.6706                 2.0665
 Frc consts  --      2.2740                 2.2160                 2.7459
 IR Inten    --     31.5424                 4.4616                15.5034

                     70                     71                     72
                      A                      A                      A
 Frequencies --   1507.5219              1522.2691              1541.1743
 Red. masses --      1.3923                 1.1921                 2.2592
 Frc consts  --      1.8643                 1.6276                 3.1617
 IR Inten    --     13.0341                12.6505                27.5363

                     73                     74                     75
                      A                      A                      A
 Frequencies --   1546.1062              1638.3453              1642.2483
 Red. masses --      2.1683                 6.1269                 5.5259
 Frc consts  --      3.0539                 9.6896                 8.7807
 IR Inten    --     12.5737                 2.8250                 2.0354

                     76                     77                     78
                      A                      A                      A
 Frequencies --   1663.6233              1664.6831              1791.5790
 Red. masses --      6.0658                 5.4844                 8.6080
 Frc consts  --      9.8912                 8.9545                16.2788
 IR Inten    --      5.8897                 7.8825               389.6315

                     79                     80                     81
                      A                      A                      A
 Frequencies --   3040.9405              3076.8342              3089.8201
 Red. masses --      1.0567                 1.1064                 1.0588
 Frc consts  --      5.7575                 6.1714                 5.9554
 IR Inten    --     27.8709                31.0070                 8.5746

                     82                     83                     84
                      A                      A                      A
 Frequencies --   3137.8951              3186.0088              3187.9730
 Red. masses --      1.1054                 1.0852                 1.0857
 Frc consts  --      6.4129                 6.4902                 6.5013
 IR Inten    --      9.1334                 0.3507                 0.9676

                     85                     86                     87
                      A                      A                      A
 Frequencies --   3192.3362              3199.0203              3199.0725
 Red. masses --      1.0878                 1.0907                 1.0906
 Frc consts  --      6.5316                 6.5761                 6.5762
 IR Inten    --      0.2958                 6.5241                18.7726

                     88                     89                     90
                      A                      A                      A
 Frequencies --   3207.3442              3211.2412              3214.8607
 Red. masses --      1.0944                 1.0950                 1.0980
 Frc consts  --      6.6332                 6.6526                 6.6861
 IR Inten    --     23.3834                14.6079                10.6121

                     91                     92                     93
                      A                      A                      A
 Frequencies --   3220.2446              3573.3415              3698.5928
 Red. masses --      1.0941                 1.0753                 1.0659
 Frc consts  --      6.6849                 8.0899                 8.5906
 IR Inten    --      8.8274                24.2726               109.9298

 - Thermochemistry -
 -------------------
 Temperature   298.150 Kelvin.  Pressure   1.00000 Atm.
 Atom     1 has atomic number  6 and mass  12.00000

 Molecular mass:   241.11028 amu.
 Principal axes and moments of inertia in atomic units:
                           1         2         3
     Eigenvalues --  3442.997863911.807515170.99043
           X            0.99960  -0.01980   0.02013
           Y            0.01988   0.99979  -0.00398
           Z           -0.02005   0.00438   0.99979
 This molecule is an asymmetric top.
 Rotational symmetry number  1.
 Warning -- assumption of classical behavior for rotation
           may cause significant error
 Rotational temperatures (Kelvin)      0.02516     0.02214     0.01675
 Rotational constants (GHZ):           0.52418     0.46136     0.34901
 Zero-point vibrational energy     712737.3 (Joules/Mol)
                                  170.34829 (Kcal/Mol)
 Warning -- explicit consideration of  24 degrees of freedom as
           vibrations may cause significant error
 Vibrational temperatures:     25.43    77.79    92.32   132.55   140.06
          (Kelvin)            148.54   180.60   250.49   313.77   343.88
                              423.19   462.84   497.56   572.40   596.80
                              609.07   639.07   693.69   699.31   715.75
                              749.66   799.14   835.38   876.99   915.23
                              946.89  1015.28  1040.57  1080.14  1092.26
                             1117.64  1165.89  1211.19  1243.00  1249.05
                             1286.58  1328.47  1349.05  1379.48  1401.86
                             1406.89  1427.54  1434.62  1440.05  1472.64
                             1524.56  1542.16  1554.80  1601.91  1630.77
                             1702.40  1714.07  1716.98  1745.30  1752.10
                             1765.40  1783.72  1821.11  1885.23  1899.68
                             1929.65  1943.61  1969.73  1989.59  2040.73
                             2072.16  2083.98  2158.81  2160.71  2168.99
                             2190.21  2217.41  2224.50  2357.21  2362.83
                             2393.58  2395.11  2577.68  4375.24  4426.88
                             4445.56  4514.73  4583.96  4586.78  4593.06
                             4602.68  4602.75  4614.65  4620.26  4625.47
                             4633.21  5141.24  5321.45

 Zero-point correction=                           0.271467 (Hartree/Particle)
 Thermal correction to Energy=                    0.286960
 Thermal correction to Enthalpy=                  0.287905
 Thermal correction to Gibbs Free Energy=         0.227616
 Sum of electronic and zero-point Energies=           -785.637552
 Sum of electronic and thermal Energies=              -785.622059
 Sum of electronic and thermal Enthalpies=            -785.621114
 Sum of electronic and thermal Free Energies=         -785.681403

                     E (Thermal)             CV                S
                      KCal/Mol        Cal/Mol-Kelvin    Cal/Mol-Kelvin
 Total                  180.070             60.747            126.887
 Electronic               0.000              0.000              0.000
 Translational            0.889              2.981             42.341
 Rotational               0.889              2.981             32.610
 Vibrational            178.293             54.785             51.936
 Vibration     1          0.593              1.986              6.880
 Vibration     2          0.596              1.976              4.663
 Vibration     3          0.597              1.971              4.325
 Vibration     4          0.602              1.955              3.614
 Vibration     5          0.603              1.951              3.507
 Vibration     6          0.605              1.947              3.392
 Vibration     7          0.610              1.928              3.013
 Vibration     8          0.627              1.874              2.391
 Vibration     9          0.646              1.814              1.975
 Vibration    10          0.657              1.781              1.810
 Vibration    11          0.689              1.685              1.450
 Vibration    12          0.707              1.632              1.301
 Vibration    13          0.724              1.584              1.185
 Vibration    14          0.764              1.475              0.971
 Vibration    15          0.778              1.438              0.910
 Vibration    16          0.785              1.420              0.881
 Vibration    17          0.804              1.374              0.814
 Vibration    18          0.838              1.290              0.704
 Vibration    19          0.842              1.281              0.694
 Vibration    20          0.853              1.256              0.664
 Vibration    21          0.876              1.203              0.608
 Vibration    22          0.911              1.128              0.533
 Vibration    23          0.937              1.073              0.484
 Vibration    24          0.969              1.012              0.434

 Optimization completed.
    -- Stationary point found.
 Normal termination of Gaussian 16 at Fri Dec 11 19:23:10 2020.

 ----------------------------------------------------------------------
 # B3LYP/6-311++G(d,p) empiricaldispersion=gd3bj scf=xqc pop=npa geom=c
 heck
 ----------------------------------------------------------------------

 ------------------------------------
 CID_881008_JID_8080_Energie_neutraal
 ------------------------------------
 Structure from the checkpoint file:  "JID_8080.chk"
 Charge =  0 Multiplicity = 1

 SCF Done:  E(RB3LYP) =  -786.131905354     A.U. after   16 cycles
 Normal termination of Gaussian 16 at Fri Dec 11 19:31:23 2020.

 ----------------------------------------------------------------------
 # B3LYP/6-311++G(d,p) empiricaldispersion=gd3bj scf=xqc pop=npa geom=c
 heck
 ----------------------------------------------------------------------

 ----------------------------------
 CID_881008_JID_8080_Energie_kation
 ----------------------------------
 Structure from the checkpoint file:  "JID_8080.chk"
 Charge =  1 Multiplicity = 2

 SCF Done:  E(UB3LYP) =  -785.822535217     A.U. after   30 cycles
 Normal termination of Gaussian 16 at Fri Dec 11 19:53:36 2020.
 Gaussian 16:  ES64L-G16RevA.03 25-Dec-2016

 ----------------------------------------------------------------------
 # B3LYP/6-311++G(d,p) empiricaldispersion=gd3bj scf=xqc pop=npa geom=c
 heck
 ----------------------------------------------------------------------

 ---------------------------------
 CID_881008_JID_8080_Energie_anion
 ---------------------------------
 Structure from the checkpoint file:  "JID_8080.chk"
 Charge = -1 Multiplicity = 2

                         Standard orientation:
 ---------------------------------------------------------------------
 Center     Atomic      Atomic             Coordinates (Angstroms)
 Number     Number       Type             X           Y           Z
 ---------------------------------------------------------------------
      1          6           0        2.599185   -1.893659   -0.552186
      2          6           0        3.050002   -0.745500    0.107749
      3          6           0        2.416682    0.478504   -0.105883
      4          6           0        1.321802    0.572266   -0.975499
      5          6           0        0.872558   -0.581318   -1.624861
      6          6           0        1.506922   -1.806438   -1.418916
      7          6           0        0.620202    1.903549   -1.163776
      8          6           0        0.163957    2.480702    0.177282
      9          8           0        0.739906    3.416479    0.712818
     10          7           0       -0.904853    1.858164    0.784964
     11          6           0       -1.548664    0.659982    0.344515
     12          6           0       -2.469722    0.729609   -0.704895
     13          6           0       -3.070755   -0.429027   -1.191750
     14          6           0       -2.764684   -1.660356   -0.608668
     15          6           0       -1.860084   -1.725561    0.448903
     16          6           0       -1.234545   -0.574119    0.935415
     17          6           0       -0.213156   -0.685990    2.052119
     18          8           0        0.461280   -1.932317    2.065301
     19          1           0        3.095395   -2.846500   -0.390719
     20          1           0        3.893844   -0.805278    0.788939
     21          1           0        2.759203    1.370278    0.412297
     22          1           0        0.002239   -0.525356   -2.272085
     23          1           0        1.140868   -2.694424   -1.926027
     24          1           0        1.302573    2.645435   -1.587050
     25          1           0       -0.224912    1.784834   -1.846497
     26          1           0       -1.075664    2.189882    1.727593
     27          1           0       -2.701047    1.700983   -1.131672
     28          1           0       -3.780076   -0.369062   -2.011995
     29          1           0       -3.231934   -2.569017   -0.977826
     30          1           0       -1.594857   -2.678290    0.895241
     31          1           0        0.495043    0.149682    1.987895
     32          1           0       -0.714280   -0.611326    3.025528
     33          1           0        1.019890   -1.958156    1.269375
 ---------------------------------------------------------------------

 SCF Done:  E(UB3LYP) =  -786.123591241     A.U. after   33 cycles
 SCF Done:  E(UB3LYP) =  -786.123591241     a.u. after    1 cycles

 The electronic state is 2-A.
 Alpha  occ. eigenvalues --  -19.01688 -18.99202 -14.24107 -10.17511 -10.11867
 Alpha  occ. eigenvalues --  -10.11134 -10.07927 -10.07671 -10.07568 -10.07400
 Alpha  occ. eigenvalues --  -10.07073 -10.06861 -10.06849 -10.06790 -10.06713
 Alpha  occ. eigenvalues --  -10.06618 -10.06592 -10.06288  -0.94321  -0.92062
 Alpha  occ. eigenvalues --   -0.83470  -0.75642  -0.74619  -0.68148  -0.66304
 Alpha  occ. eigenvalues --   -0.64301  -0.64015  -0.60450  -0.57746  -0.52204
 Alpha  occ. eigenvalues --   -0.50469  -0.49556  -0.49284  -0.47061  -0.43390
 Alpha  occ. eigenvalues --   -0.41432  -0.41081  -0.38529  -0.37683  -0.36169
 Alpha  occ. eigenvalues --   -0.35698  -0.34353  -0.34096  -0.33290  -0.32790
 Alpha  occ. eigenvalues --   -0.32254  -0.31906  -0.31411  -0.29644  -0.28506
 Alpha  occ. eigenvalues --   -0.26723  -0.26387  -0.25916  -0.25444  -0.24282
 Alpha  occ. eigenvalues --   -0.23811  -0.23024  -0.18644  -0.17368  -0.16832
 Alpha  occ. eigenvalues --   -0.15806  -0.15081  -0.14519  -0.13688   0.04567
 Alpha virt. eigenvalues --    0.06860   0.07384   0.07687   0.07878   0.07998
 Alpha virt. eigenvalues --    0.08610   0.08950   0.09193   0.09564   0.09974
 Alpha virt. eigenvalues --    0.10805   0.11160   0.11453   0.11940   0.12530

  Beta  occ. eigenvalues --  -19.01674 -18.99188 -14.24103 -10.17466 -10.11866
  Beta  occ. eigenvalues --  -10.11151 -10.07939 -10.07635 -10.07429 -10.07402
  Beta  occ. eigenvalues --  -10.07072 -10.06827 -10.06789 -10.06698 -10.06676
  Beta  occ. eigenvalues --  -10.06587 -10.06489 -10.06203  -0.94280  -0.92027
  Beta  occ. eigenvalues --   -0.83441  -0.75480  -0.74509  -0.67979  -0.66170
  Beta  occ. eigenvalues --   -0.64183  -0.63888  -0.60313  -0.57679  -0.52098
  Beta  occ. eigenvalues --   -0.50413  -0.49423  -0.49097  -0.46964  -0.43328
  Beta  occ. eigenvalues --   -0.41355  -0.41024  -0.38470  -0.37617  -0.36076
  Beta  occ. eigenvalues --   -0.35597  -0.34273  -0.34026  -0.33207  -0.32693
  Beta  occ. eigenvalues --   -0.32174  -0.31857  -0.31316  -0.29579  -0.28401
  Beta  occ. eigenvalues --   -0.26508  -0.26212  -0.25837  -0.25227  -0.24204
  Beta  occ. eigenvalues --   -0.23743  -0.22954  -0.18574  -0.17233  -0.16705
  Beta  occ. eigenvalues --   -0.15498  -0.14679  -0.14065  -0.13370
  Beta virt. eigenvalues --    0.07022   0.07702   0.07793   0.07997   0.08139
  Beta virt. eigenvalues --    0.08339   0.08764   0.09336   0.09451   0.10067
  Beta virt. eigenvalues --    0.10416   0.10914   0.11417   0.11685   0.12214

 Mulliken charges and spin densities:
               1          2
     1  C   -0.116639  -0.322609
     2  C   -0.418056   0.148460
     3  C   -0.421514   0.324716
     4  C    0.059502   0.559783
     5  C   -0.133037   0.103650
     6  C    0.069252  -0.409104
     7  C    0.699740  -1.082229
     8  C   -0.207552  -0.075168
     9  O   -0.305092   0.013054
    10  N   -0.207242   0.014201
    11  C   -0.814923   0.300238
    12  C   -0.370651   0.210978
    13  C    0.934664  -1.210062
    14  C    0.178255  -0.601993
    15  C   -0.285955   0.202182
    16  C    0.838916   0.247902
    17  C   -0.054176  -0.528474
    18  O   -0.251242  -0.026547
    19  H    0.014355   0.112239
    20  H    0.037944   0.114709
    21  H    0.178872   0.007790
    22  H   -0.219684   0.405354
    23  H   -0.213602   0.387203
    24  H    0.059887   0.161549
    25  H    0.118613   0.030676
    26  H    0.312596  -0.000593
    27  H   -0.249466   0.421975
    28  H   -0.642644   0.814195
    29  H   -0.311308   0.478206
    30  H    0.011332   0.179042
    31  H    0.264574  -0.035961
    32  H    0.104152   0.074177
    33  H    0.340128  -0.019539
 Sum of Mulliken charges =  -1.00000   1.00000

 Dipole moment (field-independent basis, Debye):
    X=              2.2985    Y=              0.7144    Z=              3.4296  Tot=              4.1900
 Quadrupole moment (field-independent basis, Debye-Ang):
   XX=           -153.2709   YY=           -154.9786   ZZ=           -142.3228
   XY=             -6.6624   XZ=             -9.7175   YZ=             -1.8723

 Summary of Natural Population Analysis:

                                       Natural Population
                Natural  -----------------------------------------------
    Atom  No    Charge         Core      Valence    Rydberg      Total
 -----------------------------------------------------------------------
      C    1   -0.10497      0.99957     2.09476    0.01065     3.10497
      C    2   -0.10689      0.99956     2.09767    0.00966     3.10689
      C    3   -0.10155      0.99950     2.09283    0.00921     3.10155
      C    4    0.00176      0.99949     1.98816    0.01059     2.99824
      C    5   -0.09646      0.99950     2.08616    0.01079     3.09646
      C    6   -0.09681      0.99955     2.08686    0.01039     3.09681
      C    7   -0.24203      0.99955     2.23409    0.00838     3.24203
      C    8    0.35709      0.99967     1.61901    0.02423     2.64291
      O    9   -0.32484      0.99987     3.31930    0.00566     4.32484
      N   10   -0.32337      0.99964     2.81394    0.00980     3.82337
      C   11    0.05924      0.99941     1.92918    0.01217     2.94076
      C   12   -0.08786      0.99951     2.07802    0.01033     3.08786
      C   13   -0.09614      0.99956     2.08588    0.01070     3.09614
      C   14   -0.09790      0.99956     2.08793    0.01040     3.09790
      C   15   -0.08439      0.99951     2.07483    0.01005     3.08439
      C   16   -0.02460      0.99944     2.01514    0.01002     3.02460
      C   17   -0.01817      0.99955     2.00609    0.01254     3.01817
      O   18   -0.37181      0.99990     3.36601    0.00590     4.37181
      H   19    0.09904      0.00000     0.40023    0.00074     0.40096
      H   20    0.09859      0.00000     0.40064    0.00078     0.40141
      H   21    0.10391      0.00000     0.39485    0.00125     0.39609
      H   22    0.10575      0.00000     0.39224    0.00201     0.39425
      H   23    0.10180      0.00000     0.39721    0.00099     0.39820
      H   24    0.11558      0.00000     0.38342    0.00101     0.38442
      H   25    0.11335      0.00000     0.38515    0.00151     0.38665
      H   26    0.19474      0.00000     0.30340    0.00186     0.30526
      H   27    0.10269      0.00000     0.39605    0.00126     0.39731
      H   28    0.10233      0.00000     0.39592    0.00175     0.39767
      H   29    0.10032      0.00000     0.39854    0.00114     0.39968
      H   30    0.10734      0.00000     0.39149    0.00118     0.39266
      H   31    0.08839      0.00000     0.41031    0.00130     0.41161
      H   32    0.08723      0.00000     0.41180    0.00097     0.41277
      H   33    0.23866      0.00000     0.25760    0.00375     0.26134
 =======================================================================
   * Total *    0.00000     17.99235    45.79470    0.21295    64.00000

 Normal termination of Gaussian 16 at Fri Dec 11 20:18:19 2020.
