 Gaussian 16, Revision A.03,

 -----------------------------------------------------------
 # opt freq B3LYP/6-31G(d) empiricaldispersion=gd3bj scf=xqc
 -----------------------------------------------------------

 -------------------------------
 CID_130036899_JID_3375_neutraal
 -------------------------------
 Symbolic Z-matrix:
 Charge =  0 Multiplicity = 1

 SCF Done:  E(RB3LYP) =  -576.860239297     A.U. after   15 cycles
 SCF Done:  E(RB3LYP) =  -576.867460759     A.U. after   13 cycles
 SCF Done:  E(RB3LYP) =  -576.867875933     A.U. after   13 cycles
 SCF Done:  E(RB3LYP) =  -576.868405103     A.U. after   12 cycles
 SCF Done:  E(RB3LYP) =  -576.868539742     A.U. after   12 cycles
 SCF Done:  E(RB3LYP) =  -576.868605240     A.U. after   12 cycles
 SCF Done:  E(RB3LYP) =  -576.868630328     A.U. after   11 cycles
 SCF Done:  E(RB3LYP) =  -576.868654746     A.U. after   10 cycles
 SCF Done:  E(RB3LYP) =  -576.868659854     A.U. after   10 cycles
 SCF Done:  E(RB3LYP) =  -576.868661194     A.U. after    9 cycles
 SCF Done:  E(RB3LYP) =  -576.868661956     A.U. after    8 cycles
 Optimization completed.
    -- Stationary point found.
 Normal termination of Gaussian 16 at Wed Dec  9 23:02:10 2020.

 --------------------------------------------------------------------
 #N Geom=AllCheck Guess=TCheck SCRF=Check GenChk RB3LYP/6-31G(d) Freq
 --------------------------------------------------------------------

 Structure from the checkpoint file:  "JID_3375.chk"
 -------------------------------
 CID_130036899_JID_3375_neutraal
 -------------------------------
 Charge =  0 Multiplicity = 1

 SCF Done:  E(RB3LYP) =  -576.868661956     A.U. after    1 cycles

  Exact polarizability: 158.706   3.893 104.465  -2.786 -11.408  85.811
 Approx polarizability: 293.575  26.972 157.725 -18.856 -26.975 133.060

                      1                      2                      3
                      A                      A                      A
 Frequencies --     55.4687                82.7067               126.4405
 Red. masses --      6.3082                 2.5126                 3.7560
 Frc consts  --      0.0114                 0.0101                 0.0354
 IR Inten    --      8.2190                 0.3041                 1.8962

                      4                      5                      6
                      A                      A                      A
 Frequencies --    171.5619               198.2807               215.9574
 Red. masses --      3.9365                 1.6848                 3.5194
 Frc consts  --      0.0683                 0.0390                 0.0967
 IR Inten    --      0.3161                 1.6145                 2.9492

                      7                      8                      9
                      A                      A                      A
 Frequencies --    243.8108               293.2213               305.9585
 Red. masses --      3.4696                 1.9530                 3.2535
 Frc consts  --      0.1215                 0.0989                 0.1794
 IR Inten    --      1.9918                 1.7847                 1.6188

                     10                     11                     12
                      A                      A                      A
 Frequencies --    334.1491               372.0907               407.5444
 Red. masses --      2.1135                 2.6677                 7.0761
 Frc consts  --      0.1390                 0.2176                 0.6925
 IR Inten    --      0.5661                 0.3606                 5.8249

                     13                     14                     15
                      A                      A                      A
 Frequencies --    447.9142               521.4643               566.8497
 Red. masses --      3.5576                 4.4851                 2.3609
 Frc consts  --      0.4205                 0.7186                 0.4470
 IR Inten    --      2.9521                 2.7891                 4.9601

                     16                     17                     18
                      A                      A                      A
 Frequencies --    578.8934               632.2615               646.6112
 Red. masses --      4.4941                 3.8712                 3.2282
 Frc consts  --      0.8873                 0.9118                 0.7952
 IR Inten    --      8.3538                 9.5173                 2.4589

                     19                     20                     21
                      A                      A                      A
 Frequencies --    684.0639               740.6199               752.7017
 Red. masses --      4.5777                 2.8877                 4.0583
 Frc consts  --      1.2621                 0.9333                 1.3547
 IR Inten    --      5.6647                 1.7070                 6.5840

                     22                     23                     24
                      A                      A                      A
 Frequencies --    784.5687               798.7360               832.6321
 Red. masses --      2.2744                 1.4340                 1.6976
 Frc consts  --      0.8248                 0.5390                 0.6934
 IR Inten    --      2.2748                 1.5132                 9.1124

                     25                     26                     27
                      A                      A                      A
 Frequencies --    876.5194               909.1613               931.5354
 Red. masses --      2.1310                 1.7865                 2.2549
 Frc consts  --      0.9646                 0.8700                 1.1529
 IR Inten    --      3.2802                34.5786                10.3001

                     28                     29                     30
                      A                      A                      A
 Frequencies --    973.1262               997.5391               999.9559
 Red. masses --      2.4721                 1.3715                 1.8745
 Frc consts  --      1.3793                 0.8041                 1.1043
 IR Inten    --      8.8997                 4.4414                 8.7307

                     31                     32                     33
                      A                      A                      A
 Frequencies --   1035.7497              1062.7803              1094.4079
 Red. masses --      2.6241                 1.8801                 1.3921
 Frc consts  --      1.6586                 1.2511                 0.9824
 IR Inten    --      1.7649                 0.1501                10.3409

                     34                     35                     36
                      A                      A                      A
 Frequencies --   1107.9824              1117.7455              1155.0441
 Red. masses --      2.2638                 1.9338                 2.2437
 Frc consts  --      1.6374                 1.4235                 1.7637
 IR Inten    --      1.8705                18.2700                31.6984

                     37                     38                     39
                      A                      A                      A
 Frequencies --   1179.1817              1234.1181              1236.6668
 Red. masses --      2.6567                 1.9091                 2.1170
 Frc consts  --      2.1765                 1.7131                 1.9075
 IR Inten    --     13.6630                 3.4406                31.1378

                     40                     41                     42
                      A                      A                      A
 Frequencies --   1249.6027              1286.3297              1330.2402
 Red. masses --      1.7975                 1.5995                 1.4936
 Frc consts  --      1.6538                 1.5594                 1.5572
 IR Inten    --     48.1294                14.4698                14.8364

                     43                     44                     45
                      A                      A                      A
 Frequencies --   1360.0084              1374.9021              1377.9987
 Red. masses --      1.4402                 1.5019                 1.7228
 Frc consts  --      1.5695                 1.6728                 1.9275
 IR Inten    --      6.2477                 6.3755                 5.5884

                     46                     47                     48
                      A                      A                      A
 Frequencies --   1393.0775              1409.5065              1442.2813
 Red. masses --      1.9507                 1.4295                 1.2407
 Frc consts  --      2.2305                 1.6733                 1.5206
 IR Inten    --      6.9493                10.0408                 7.0798

                     49                     50                     51
                      A                      A                      A
 Frequencies --   1488.6932              1515.2303              1524.9655
 Red. masses --      1.0745                 1.0848                 1.0803
 Frc consts  --      1.4030                 1.4675                 1.4802
 IR Inten    --      3.0577                 3.7419                 1.4609

                     52                     53                     54
                      A                      A                      A
 Frequencies --   1534.7289              1544.0221              1608.8131
 Red. masses --      1.0435                 1.0549                 6.1320
 Frc consts  --      1.4482                 1.4817                 9.3511
 IR Inten    --      8.6433                 7.8864                11.3865

                     55                     56                     57
                      A                      A                      A
 Frequencies --   1696.7224              1766.5810              1818.8316
 Red. masses --      8.6470                11.6975                12.3691
 Frc consts  --     14.6668                21.5085                24.1086
 IR Inten    --     50.4686               273.8839               240.7515

                     58                     59                     60
                      A                      A                      A
 Frequencies --   3045.8836              3056.4165              3061.7161
 Red. masses --      1.0613                 1.0646                 1.0371
 Frc consts  --      5.8014                 5.8596                 5.7279
 IR Inten    --     18.9334                21.5736                13.8720

                     61                     62                     63
                      A                      A                      A
 Frequencies --   3080.8255              3087.0552              3101.0774
 Red. masses --      1.0640                 1.1008                 1.0993
 Frc consts  --      5.9499                 6.1807                 6.2285
 IR Inten    --     12.6672                 7.0611                15.8170

                     64                     65                     66
                      A                      A                      A
 Frequencies --   3117.3781              3124.1557              3144.2876
 Red. masses --      1.1022                 1.1002                 1.1014
 Frc consts  --      6.3109                 6.3266                 6.4155
 IR Inten    --     36.5771                12.0118                28.0988

                     67                     68                     69
                      A                      A                      A
 Frequencies --   3193.3317              3217.2165              3249.8739
 Red. masses --      1.0914                 1.0908                 1.1009
 Frc consts  --      6.5575                 6.6518                 6.8507
 IR Inten    --      6.6287                 5.4221                 3.9184

 - Thermochemistry -
 -------------------
 Temperature   298.150 Kelvin.  Pressure   1.00000 Atm.
 Atom     1 has atomic number  6 and mass  12.00000

 Molecular mass:   176.08373 amu.
 Principal axes and moments of inertia in atomic units:
                           1         2         3
     Eigenvalues --  1371.383692707.771903034.42217
           X            0.99951  -0.02918   0.01139
           Y            0.02881   0.99910   0.03115
           Z           -0.01229  -0.03080   0.99945
 This molecule is an asymmetric top.
 Rotational symmetry number  1.
 Warning -- assumption of classical behavior for rotation
           may cause significant error
 Rotational temperatures (Kelvin)      0.06316     0.03199     0.02854
 Rotational constants (GHZ):           1.31600     0.66650     0.59476
 Zero-point vibrational energy     543749.2 (Joules/Mol)
                                  129.95919 (Kcal/Mol)
 Warning -- explicit consideration of  16 degrees of freedom as
           vibrations may cause significant error
 Vibrational temperatures:     79.81   119.00   181.92   246.84   285.28
          (Kelvin)            310.71   350.79   421.88   440.21   480.77
                              535.36   586.37   644.45   750.27   815.57
                              832.90   909.68   930.33   984.22  1065.59
                             1082.97  1128.82  1149.20  1197.97  1261.12
                             1308.08  1340.27  1400.11  1435.24  1438.71
                             1490.21  1529.10  1574.61  1594.14  1608.19
                             1661.85  1696.58  1775.62  1779.29  1797.90
                             1850.74  1913.92  1956.75  1978.18  1982.63
                             2004.33  2027.97  2075.12  2141.90  2180.08
                             2194.09  2208.13  2221.50  2314.72  2441.21
                             2541.72  2616.89  4382.35  4397.50  4405.13
                             4432.62  4441.58  4461.76  4485.21  4494.96
                             4523.93  4594.49  4628.86  4675.84

 Zero-point correction=                           0.207103 (Hartree/Particle)
 Thermal correction to Energy=                    0.218507
 Thermal correction to Enthalpy=                  0.219452
 Thermal correction to Gibbs Free Energy=         0.169959
 Sum of electronic and zero-point Energies=           -576.661559
 Sum of electronic and thermal Energies=              -576.650155
 Sum of electronic and thermal Enthalpies=            -576.649210
 Sum of electronic and thermal Free Energies=         -576.698703

                     E (Thermal)             CV                S
                      KCal/Mol        Cal/Mol-Kelvin    Cal/Mol-Kelvin
 Total                  137.115             44.540            104.167
 Electronic               0.000              0.000              0.000
 Translational            0.889              2.981             41.405
 Rotational               0.889              2.981             30.800
 Vibrational            135.338             38.579             31.962
 Vibration     1          0.596              1.975              4.612
 Vibration     2          0.600              1.961              3.826
 Vibration     3          0.611              1.927              2.999
 Vibration     4          0.626              1.877              2.418
 Vibration     5          0.637              1.842              2.149
 Vibration     6          0.645              1.817              1.993
 Vibration     7          0.659              1.773              1.775
 Vibration     8          0.688              1.686              1.455
 Vibration     9          0.696              1.662              1.384
 Vibration    10          0.716              1.607              1.240
 Vibration    11          0.744              1.529              1.071
 Vibration    12          0.772              1.454              0.935
 Vibration    13          0.807              1.365              0.802
 Vibration    14          0.876              1.202              0.607
 Vibration    15          0.923              1.103              0.510
 Vibration    16          0.935              1.077              0.487

 Optimization completed.
    -- Stationary point found.
 Normal termination of Gaussian 16 at Wed Dec  9 23:08:41 2020.

 ----------------------------------------------------------------------
 # B3LYP/6-311++G(d,p) empiricaldispersion=gd3bj scf=xqc pop=npa geom=c
 heck
 ----------------------------------------------------------------------

 ---------------------------------------
 CID_130036899_JID_3375_Energie_neutraal
 ---------------------------------------
 Structure from the checkpoint file:  "JID_3375.chk"
 Charge =  0 Multiplicity = 1

 SCF Done:  E(RB3LYP) =  -577.028891065     A.U. after   16 cycles
 Normal termination of Gaussian 16 at Wed Dec  9 23:11:05 2020.

 ----------------------------------------------------------------------
 # B3LYP/6-311++G(d,p) empiricaldispersion=gd3bj scf=xqc pop=npa geom=c
 heck
 ----------------------------------------------------------------------

 -------------------------------------
 CID_130036899_JID_3375_Energie_kation
 -------------------------------------
 Structure from the checkpoint file:  "JID_3375.chk"
 Charge =  1 Multiplicity = 2

 SCF Done:  E(UB3LYP) =  -576.702950025     A.U. after   29 cycles
 Normal termination of Gaussian 16 at Wed Dec  9 23:17:35 2020.
 Gaussian 16:  ES64L-G16RevA.03 25-Dec-2016

 ----------------------------------------------------------------------
 # B3LYP/6-311++G(d,p) empiricaldispersion=gd3bj scf=xqc pop=npa geom=c
 heck
 ----------------------------------------------------------------------

 ------------------------------------
 CID_130036899_JID_3375_Energie_anion
 ------------------------------------
 Structure from the checkpoint file:  "JID_3375.chk"
 Charge = -1 Multiplicity = 2

                         Standard orientation:
 ---------------------------------------------------------------------
 Center     Atomic      Atomic             Coordinates (Angstroms)
 Number     Number       Type             X           Y           Z
 ---------------------------------------------------------------------
      1          6           0       -0.522905    1.927286    1.656141
      2          6           0        0.749212    1.406485    0.983168
      3          6           0        0.595578    0.321463   -0.131367
      4          6           0       -0.241390    0.762036   -1.341209
      5          6           0       -1.756483    0.709966   -1.065768
      6          6           0       -2.243164   -0.493318   -0.252883
      7          8           0       -3.432925   -0.770145   -0.194675
      8          6           0       -1.229755   -1.332980    0.415830
      9          6           0        0.072455   -0.983807    0.423646
     10          6           0        1.213981   -1.832657    0.754302
     11          6           0        2.350635   -1.333399    0.218852
     12          6           0        2.055076   -0.054939   -0.480123
     13          8           0        2.813831    0.604015   -1.162987
     14          1           0       -1.104983    2.574644    0.995299
     15          1           0       -0.253042    2.522443    2.535208
     16          1           0       -1.168692    1.110989    1.995429
     17          1           0        1.300757    2.238831    0.529995
     18          1           0        1.404994    0.988158    1.757014
     19          1           0       -0.010251    0.088537   -2.175234
     20          1           0        0.059835    1.764777   -1.661215
     21          1           0       -2.096472    1.603560   -0.533310
     22          1           0       -2.317614    0.697559   -2.006120
     23          1           0       -1.577252   -2.282716    0.815187
     24          1           0        1.118727   -2.773517    1.287391
     25          1           0        3.337304   -1.781045    0.238114
 ---------------------------------------------------------------------

 SCF Done:  E(UB3LYP) =  -577.075556342     A.U. after   22 cycles

 The electronic state is 2-A.
 Alpha  occ. eigenvalues --  -18.94765 -18.93758 -10.08980 -10.08899 -10.05076
 Alpha  occ. eigenvalues --  -10.04866 -10.04538 -10.04406 -10.03900 -10.03309
 Alpha  occ. eigenvalues --  -10.02987 -10.01558 -10.01095  -0.88495  -0.87588
 Alpha  occ. eigenvalues --   -0.72955  -0.66021  -0.64053  -0.60477  -0.57569
 Alpha  occ. eigenvalues --   -0.50961  -0.48794  -0.47282  -0.40723  -0.39308
 Alpha  occ. eigenvalues --   -0.36959  -0.34068  -0.33086  -0.31789  -0.30193
 Alpha  occ. eigenvalues --   -0.29795  -0.28650  -0.28098  -0.26994  -0.26522
 Alpha  occ. eigenvalues --   -0.25307  -0.24096  -0.23759  -0.23137  -0.22207
 Alpha  occ. eigenvalues --   -0.21555  -0.18753  -0.18653  -0.17374  -0.10690
 Alpha  occ. eigenvalues --   -0.09451  -0.09153   0.01681
 Alpha virt. eigenvalues --    0.08766   0.09817   0.10300   0.11124   0.11188
 Alpha virt. eigenvalues --    0.12024   0.12301   0.13255   0.13592   0.13845
 Alpha virt. eigenvalues --    0.15029   0.15611   0.16716   0.17277   0.17567

  Beta  occ. eigenvalues --  -18.94414 -18.93393 -10.08869 -10.08788 -10.05087
  Beta  occ. eigenvalues --  -10.04880 -10.04536 -10.04408 -10.03914 -10.03137
  Beta  occ. eigenvalues --  -10.02767 -10.01279 -10.00921  -0.87884  -0.86954
  Beta  occ. eigenvalues --   -0.72593  -0.65672  -0.63938  -0.60058  -0.57393
  Beta  occ. eigenvalues --   -0.50726  -0.48054  -0.47019  -0.40353  -0.38972
  Beta  occ. eigenvalues --   -0.36826  -0.33848  -0.32963  -0.31464  -0.29933
  Beta  occ. eigenvalues --   -0.29636  -0.28274  -0.27891  -0.26689  -0.26305
  Beta  occ. eigenvalues --   -0.24989  -0.23766  -0.23460  -0.22372  -0.21901
  Beta  occ. eigenvalues --   -0.20480  -0.18515  -0.18210  -0.15729  -0.09495
  Beta  occ. eigenvalues --   -0.09060  -0.07985
  Beta virt. eigenvalues --    0.07825   0.08797   0.09817   0.10281   0.11125
  Beta virt. eigenvalues --    0.11823   0.12237   0.12863   0.13518   0.13603
  Beta virt. eigenvalues --    0.13978   0.15066   0.15614   0.16751   0.17602

 Mulliken charges and spin densities:
               1          2
     1  C   -0.617527  -0.003494
     2  C   -0.554047   0.005175
     3  C    1.875812  -0.059429
     4  C   -0.815432   0.004475
     5  C   -0.065984  -0.008690
     6  C   -0.487437   0.082395
     7  O   -0.373838   0.126743
     8  C   -0.020190   0.181886
     9  C   -0.383229   0.123521
    10  C   -0.457715   0.100215
    11  C    0.094701   0.256017
    12  C   -0.546547   0.080397
    13  O   -0.362279   0.118430
    14  H    0.116885   0.004173
    15  H    0.128904  -0.000876
    16  H    0.167095  -0.000324
    17  H    0.148462   0.007512
    18  H    0.156858  -0.000826
    19  H    0.165815   0.003008
    20  H    0.157652  -0.002770
    21  H    0.112841   0.015214
    22  H    0.178015   0.004848
    23  H    0.141813  -0.006919
    24  H    0.110119  -0.015525
    25  H    0.129255  -0.015159
 Sum of Mulliken charges =  -1.00000   1.00000

 Dipole moment (field-independent basis, Debye):
    X=              0.8482    Y=              1.7282    Z=              1.6185  Tot=              2.5151
 Quadrupole moment (field-independent basis, Debye-Ang):
   XX=           -130.5756   YY=            -87.3422   ZZ=            -87.3514
   XY=             -8.8802   XZ=              6.2482   YZ=              1.1679

 Summary of Natural Population Analysis:

                                       Natural Population
                Natural  -----------------------------------------------
    Atom  No    Charge         Core      Valence    Rydberg      Total
 -----------------------------------------------------------------------
      C    1   -0.28764      0.99967     2.28370    0.00428     3.28764
      C    2   -0.18175      0.99960     2.17429    0.00786     3.18175
      C    3   -0.08391      0.99947     2.06888    0.01556     3.08391
      C    4   -0.18474      0.99961     2.17639    0.00875     3.18474
      C    5   -0.23111      0.99960     2.22358    0.00794     3.23111
      C    6    0.27425      0.99964     1.70513    0.02098     2.72575
      O    7   -0.27602      0.99988     3.26770    0.00845     4.27602
      C    8   -0.11698      0.99942     2.10782    0.00973     3.11698
      C    9    0.03840      0.99949     1.95138    0.01073     2.96160
      C   10   -0.04535      0.99951     2.03706    0.00878     3.04535
      C   11   -0.08612      0.99949     2.07693    0.00970     3.08612
      C   12    0.28878      0.99960     1.68698    0.02464     2.71122
      O   13   -0.27101      0.99987     3.26336    0.00777     4.27101
      H   14    0.09202      0.00000     0.40699    0.00100     0.40798
      H   15    0.09126      0.00000     0.40775    0.00099     0.40874
      H   16    0.10547      0.00000     0.39352    0.00101     0.39453
      H   17    0.09773      0.00000     0.40104    0.00123     0.40227
      H   18    0.09992      0.00000     0.39897    0.00111     0.40008
      H   19    0.09971      0.00000     0.39928    0.00101     0.40029
      H   20    0.09795      0.00000     0.40085    0.00120     0.40205
      H   21    0.10221      0.00000     0.39658    0.00120     0.39779
      H   22    0.10347      0.00000     0.39525    0.00128     0.39653
      H   23    0.09372      0.00000     0.40386    0.00242     0.40628
      H   24    0.08878      0.00000     0.40936    0.00186     0.41122
      H   25    0.09098      0.00000     0.40730    0.00171     0.40902
 =======================================================================
   * Total *   -0.00000     12.99485    33.84395    0.16120    47.00000

 Normal termination of Gaussian 16 at Wed Dec  9 23:22:31 2020.
