 Gaussian 16, Revision A.03,

 -----------------------------------------------------------
 # opt freq B3LYP/6-31G(d) empiricaldispersion=gd3bj scf=xqc
 -----------------------------------------------------------

 -------------------------------
 CID_131087958_JID_1222_neutraal
 -------------------------------
 Symbolic Z-matrix:
 Charge =  0 Multiplicity = 1

 SCF Done:  E(RB3LYP) =  -858.111656509     A.U. after   14 cycles
 SCF Done:  E(RB3LYP) =  -858.119050649     A.U. after   12 cycles
 SCF Done:  E(RB3LYP) =  -858.119550804     A.U. after   12 cycles
 SCF Done:  E(RB3LYP) =  -858.117525142     A.U. after   13 cycles
 SCF Done:  E(RB3LYP) =  -858.119052034     A.U. after   13 cycles
 SCF Done:  E(RB3LYP) =  -858.120988961     A.U. after   10 cycles
 SCF Done:  E(RB3LYP) =  -858.121845317     A.U. after   12 cycles
 SCF Done:  E(RB3LYP) =  -858.122094125     A.U. after   12 cycles
 SCF Done:  E(RB3LYP) =  -858.122170766     A.U. after   11 cycles
 SCF Done:  E(RB3LYP) =  -858.122234479     A.U. after   10 cycles
 SCF Done:  E(RB3LYP) =  -858.122296748     A.U. after    9 cycles
 SCF Done:  E(RB3LYP) =  -858.122300772     A.U. after    9 cycles
 SCF Done:  E(RB3LYP) =  -858.122307741     A.U. after   10 cycles
 SCF Done:  E(RB3LYP) =  -858.122314348     A.U. after    8 cycles
 SCF Done:  E(RB3LYP) =  -858.122318568     A.U. after    9 cycles
 SCF Done:  E(RB3LYP) =  -858.122318869     A.U. after    7 cycles
 Optimization completed.
    -- Stationary point found.
 Normal termination of Gaussian 16 at Tue Dec  8 19:33:36 2020.

 --------------------------------------------------------------------
 #N Geom=AllCheck Guess=TCheck SCRF=Check GenChk RB3LYP/6-31G(d) Freq
 --------------------------------------------------------------------

 Structure from the checkpoint file:  "JID_1222.chk"
 -------------------------------
 CID_131087958_JID_1222_neutraal
 -------------------------------
 Charge =  0 Multiplicity = 1

 SCF Done:  E(RB3LYP) =  -858.122318869     A.U. after    1 cycles

  Exact polarizability: 113.693  -7.128 107.762  -4.624  -4.920  82.733
 Approx polarizability: 145.173 -10.682 167.149  -9.821 -12.006 130.413

                      1                      2                      3
                      A                      A                      A
 Frequencies --     61.4273                75.1908                89.9014
 Red. masses --      4.1196                 2.9686                 1.4076
 Frc consts  --      0.0092                 0.0099                 0.0067
 IR Inten    --      0.6626                 4.2721                 1.8664

                      4                      5                      6
                      A                      A                      A
 Frequencies --    131.5771               143.3484               155.0239
 Red. masses --      3.9131                 3.0236                 2.6268
 Frc consts  --      0.0399                 0.0366                 0.0372
 IR Inten    --      1.0499                 2.2759                 4.0457

                      7                      8                      9
                      A                      A                      A
 Frequencies --    175.6533               179.2995               225.5904
 Red. masses --      3.2212                 4.7119                 1.3033
 Frc consts  --      0.0586                 0.0892                 0.0391
 IR Inten    --      3.9397                 2.8577                 0.4284

                     10                     11                     12
                      A                      A                      A
 Frequencies --    237.4736               312.0861               363.0519
 Red. masses --      1.8524                 3.6571                 3.1424
 Frc consts  --      0.0615                 0.2099                 0.2440
 IR Inten    --      0.5785                 3.5902                 0.1832

                     13                     14                     15
                      A                      A                      A
 Frequencies --    406.6484               455.3589               532.0001
 Red. masses --      2.8051                 4.5656                 1.6415
 Frc consts  --      0.2733                 0.5578                 0.2737
 IR Inten    --      6.2197                 8.1965                34.3630

                     16                     17                     18
                      A                      A                      A
 Frequencies --    547.2817               630.3798               650.4204
 Red. masses --      5.1831                 3.5119                 2.2967
 Frc consts  --      0.9147                 0.8222                 0.5725
 IR Inten    --     13.4037                13.3237                41.4440

                     19                     20                     21
                      A                      A                      A
 Frequencies --    687.5613               712.8784               746.7437
 Red. masses --      2.0752                 5.0882                 1.5520
 Frc consts  --      0.5780                 1.5235                 0.5099
 IR Inten    --     11.6621                 0.5470                 4.7975

                     22                     23                     24
                      A                      A                      A
 Frequencies --    803.2710               844.5041               892.5147
 Red. masses --      5.8490                 1.7610                 2.3962
 Frc consts  --      2.2236                 0.7400                 1.1246
 IR Inten    --     50.8873                48.2992                 9.4087

                     25                     26                     27
                      A                      A                      A
 Frequencies --    915.5694               958.9012               968.9300
 Red. masses --      2.3880                 2.4744                 2.0103
 Frc consts  --      1.1794                 1.3405                 1.1120
 IR Inten    --      0.4551                 0.4075                 6.5256

                     28                     29                     30
                      A                      A                      A
 Frequencies --    993.6173              1016.8464              1027.5138
 Red. masses --      1.3047                 1.2091                 2.8154
 Frc consts  --      0.7589                 0.7366                 1.7513
 IR Inten    --     11.8516                 8.3476                 2.5989

                     31                     32                     33
                      A                      A                      A
 Frequencies --   1078.3097              1101.7419              1130.2422
 Red. masses --      1.8419                 1.6859                 1.9362
 Frc consts  --      1.2618                 1.2057                 1.4573
 IR Inten    --     13.0723                12.0580                15.9686

                     34                     35                     36
                      A                      A                      A
 Frequencies --   1168.5854              1193.3017              1205.5818
 Red. masses --      1.3199                 1.9587                 1.8756
 Frc consts  --      1.0620                 1.6433                 1.6062
 IR Inten    --      4.2959                19.6564                 9.0439

                     37                     38                     39
                      A                      A                      A
 Frequencies --   1215.7868              1258.0428              1274.3710
 Red. masses --      1.6086                 1.3572                 1.3045
 Frc consts  --      1.4009                 1.2656                 1.2482
 IR Inten    --     21.9488                 2.0317                 6.9513

                     40                     41                     42
                      A                      A                      A
 Frequencies --   1282.8637              1292.0086              1320.8385
 Red. masses --      1.4367                 1.4691                 1.2721
 Frc consts  --      1.3931                 1.4448                 1.3076
 IR Inten    --      5.7754                 4.0806                 6.1962

                     43                     44                     45
                      A                      A                      A
 Frequencies --   1374.7333              1401.3843              1422.1876
 Red. masses --      1.5022                 1.1529                 1.9867
 Frc consts  --      1.6727                 1.3340                 2.3675
 IR Inten    --    113.1589                 4.9560               175.9293

                     46                     47                     48
                      A                      A                      A
 Frequencies --   1463.7608              1477.8967              1500.8653
 Red. masses --      1.4285                 1.3829                 1.2131
 Frc consts  --      1.8034                 1.7796                 1.6100
 IR Inten    --     65.1532                15.6406                35.1207

                     49                     50                     51
                      A                      A                      A
 Frequencies --   1504.1686              1510.1702              1524.6862
 Red. masses --      1.0994                 1.1069                 1.1452
 Frc consts  --      1.4656                 1.4873                 1.5685
 IR Inten    --      2.8892                20.6735                19.7708

                     52                     53                     54
                      A                      A                      A
 Frequencies --   1528.8616              1529.2764              1554.3586
 Red. masses --      1.1242                 1.0763                 1.0532
 Frc consts  --      1.5483                 1.4830                 1.4992
 IR Inten    --     11.4167                18.0473                29.0991

                     55                     56                     57
                      A                      A                      A
 Frequencies --   1787.5432              3037.9197              3047.2694
 Red. masses --      6.1852                 1.0791                 1.0443
 Frc consts  --     11.6443                 5.8677                 5.7137
 IR Inten    --    396.9887                13.1309                67.1053

                     58                     59                     60
                      A                      A                      A
 Frequencies --   3067.4468              3080.4441              3092.5727
 Red. masses --      1.0301                 1.0620                 1.0599
 Frc consts  --      5.7107                 5.9373                 5.9727
 IR Inten    --     16.9973                29.0851                29.2566

                     61                     62                     63
                      A                      A                      A
 Frequencies --   3102.4148              3105.2302              3129.5270
 Red. masses --      1.0857                 1.0981                 1.1070
 Frc consts  --      6.1570                 6.2385                 6.3878
 IR Inten    --     18.2848                28.6486                 7.3456

                     64                     65                     66
                      A                      A                      A
 Frequencies --   3141.1552              3148.1221              3155.5160
 Red. masses --      1.1044                 1.1079                 1.1043
 Frc consts  --      6.4202                 6.4694                 6.4787
 IR Inten    --     22.3367                36.6935                 5.2287

                     67                     68                     69
                      A                      A                      A
 Frequencies --   3161.7499              3504.0302              3628.7236
 Red. masses --      1.1085                 1.0746                 1.0765
 Frc consts  --      6.5287                 7.7735                 8.3516
 IR Inten    --      1.1254                74.2326                34.4072

 - Thermochemistry -
 -------------------
 Temperature   298.150 Kelvin.  Pressure   1.00000 Atm.
 Atom     1 has atomic number  6 and mass  12.00000

 Molecular mass:   174.08268 amu.
 Principal axes and moments of inertia in atomic units:
                           1         2         3
     Eigenvalues --  1203.406692607.467013218.29529
           X            0.99949  -0.02623   0.01811
           Y            0.02652   0.99952  -0.01588
           Z           -0.01769   0.01635   0.99971
 This molecule is an asymmetric top.
 Rotational symmetry number  1.
 Warning -- assumption of classical behavior for rotation
           may cause significant error
 Rotational temperatures (Kelvin)      0.07197     0.03322     0.02691
 Rotational constants (GHZ):           1.49969     0.69214     0.56078
 Zero-point vibrational energy     564902.1 (Joules/Mol)
                                  135.01484 (Kcal/Mol)
 Warning -- explicit consideration of  16 degrees of freedom as
           vibrations may cause significant error
 Vibrational temperatures:     88.38   108.18   129.35   189.31   206.25
          (Kelvin)            223.04   252.73   257.97   324.57   341.67
                              449.02   522.35   585.08   655.16   765.43
                              787.42   906.98   935.81   989.25  1025.67
                             1074.40  1155.73  1215.05  1284.13  1317.30
                             1379.64  1394.07  1429.59  1463.02  1478.36
                             1551.45  1585.16  1626.17  1681.33  1716.89
                             1734.56  1749.25  1810.04  1833.54  1845.75
                             1858.91  1900.39  1977.93  2016.28  2046.21
                             2106.03  2126.36  2159.41  2164.16  2172.80
                             2193.68  2199.69  2200.29  2236.38  2571.88
                             4370.89  4384.34  4413.37  4432.07  4449.52
                             4463.68  4467.73  4502.69  4519.42  4529.45
                             4540.08  4549.05  5041.52  5220.92

 Zero-point correction=                           0.215160 (Hartree/Particle)
 Thermal correction to Energy=                    0.227541
 Thermal correction to Enthalpy=                  0.228486
 Thermal correction to Gibbs Free Energy=         0.176397
 Sum of electronic and zero-point Energies=           -857.907159
 Sum of electronic and thermal Energies=              -857.894777
 Sum of electronic and thermal Enthalpies=            -857.893833
 Sum of electronic and thermal Free Energies=         -857.945922

                     E (Thermal)             CV                S
                      KCal/Mol        Cal/Mol-Kelvin    Cal/Mol-Kelvin
 Total                  142.784             45.119            109.630
 Electronic               0.000              0.000              0.000
 Translational            0.889              2.981             41.370
 Rotational               0.889              2.981             30.691
 Vibrational            141.007             39.158             37.568
 Vibration     1          0.597              1.973              4.411
 Vibration     2          0.599              1.966              4.013
 Vibration     3          0.602              1.956              3.662
 Vibration     4          0.612              1.922              2.923
 Vibration     5          0.616              1.910              2.759
 Vibration     6          0.620              1.897              2.610
 Vibration     7          0.628              1.872              2.374
 Vibration     8          0.629              1.868              2.336
 Vibration     9          0.650              1.802              1.914
 Vibration    10          0.656              1.783              1.822
 Vibration    11          0.700              1.651              1.351
 Vibration    12          0.737              1.548              1.109
 Vibration    13          0.771              1.456              0.939
 Vibration    14          0.814              1.349              0.780
 Vibration    15          0.887              1.179              0.583
 Vibration    16          0.902              1.146              0.550

                           ! Non-Optimized Parameters !
 Normal termination of Gaussian 16 at Tue Dec  8 19:38:57 2020.

 ----------------------------------------------------------------------
 # B3LYP/6-311++G(d,p) empiricaldispersion=gd3bj scf=xqc pop=npa geom=c
 heck
 ----------------------------------------------------------------------

 ---------------------------------------
 CID_131087958_JID_1222_Energie_neutraal
 ---------------------------------------
 Structure from the checkpoint file:  "JID_1222.chk"
 Charge =  0 Multiplicity = 1

 SCF Done:  E(RB3LYP) =  -858.288249274     A.U. after   15 cycles
 Normal termination of Gaussian 16 at Tue Dec  8 19:41:31 2020.

 ----------------------------------------------------------------------
 # B3LYP/6-311++G(d,p) empiricaldispersion=gd3bj scf=xqc pop=npa geom=c
 heck
 ----------------------------------------------------------------------

 -------------------------------------
 CID_131087958_JID_1222_Energie_kation
 -------------------------------------
 Structure from the checkpoint file:  "JID_1222.chk"
 Charge =  1 Multiplicity = 2

 SCF Done:  E(UB3LYP) =  -857.981940661     A.U. after   28 cycles
 Normal termination of Gaussian 16 at Tue Dec  8 19:48:54 2020.
 Gaussian 16:  ES64L-G16RevA.03 25-Dec-2016

 ----------------------------------------------------------------------
 # B3LYP/6-311++G(d,p) empiricaldispersion=gd3bj scf=xqc pop=npa geom=c
 heck
 ----------------------------------------------------------------------

 ------------------------------------
 CID_131087958_JID_1222_Energie_anion
 ------------------------------------
 Structure from the checkpoint file:  "JID_1222.chk"
 Charge = -1 Multiplicity = 2

                         Standard orientation:
 ---------------------------------------------------------------------
 Center     Atomic      Atomic             Coordinates (Angstroms)
 Number     Number       Type             X           Y           Z
 ---------------------------------------------------------------------
      1          6           0       -3.169597    0.950296   -0.347649
      2          7           0       -2.658735   -0.211103    0.367494
      3          6           0       -1.606713   -0.991586   -0.057392
      4          8           0       -1.500807   -2.174359    0.262095
      5          7           0       -0.676806   -0.351374   -0.869154
      6          6           0       -0.092643    0.931468   -0.507337
      7          6           0       -0.013485    1.362145    0.983011
      8          6           0        1.447369    1.822439    0.745328
      9          6           0        1.471265    1.022334   -0.583508
     10         16           0        2.419996   -0.537661   -0.621467
     11          6           0        1.954998   -1.381085    0.937177
     12          1           0       -2.745579    1.889307    0.028622
     13          1           0       -4.254535    0.997362   -0.222001
     14          1           0       -2.947423    0.873238   -1.416535
     15          1           0       -3.317878   -0.746474    0.914806
     16          1           0        0.032645   -1.018849   -1.163840
     17          1           0       -0.519722    1.739931   -1.113591
     18          1           0       -0.731302    2.116412    1.315464
     19          1           0       -0.074138    0.501967    1.653558
     20          1           0        2.187834    1.542202    1.498676
     21          1           0        1.532861    2.898469    0.565079
     22          1           0        1.852836    1.559893   -1.456040
     23          1           0        2.127671   -0.735692    1.801990
     24          1           0        0.921583   -1.736358    0.921347
     25          1           0        2.623303   -2.242692    1.013023
 ---------------------------------------------------------------------

 SCF Done:  E(UB3LYP) =  -858.277234105     A.U. after   28 cycles

 The electronic state is 2-A.
 Alpha  occ. eigenvalues --  -88.75200 -18.98142 -14.22894 -14.22150 -10.18988
 Alpha  occ. eigenvalues --  -10.11356 -10.11131 -10.10156 -10.09364 -10.07649
 Alpha  occ. eigenvalues --  -10.07028  -7.83791  -5.80188  -5.79802  -5.79177
 Alpha  occ. eigenvalues --   -0.94499  -0.83299  -0.80549  -0.74569  -0.68314
 Alpha  occ. eigenvalues --   -0.60086  -0.59604  -0.56826  -0.52221  -0.49916
 Alpha  occ. eigenvalues --   -0.45397  -0.40763  -0.40445  -0.39312  -0.37851
 Alpha  occ. eigenvalues --   -0.35435  -0.34024  -0.33481  -0.32307  -0.31123
 Alpha  occ. eigenvalues --   -0.29193  -0.28902  -0.28189  -0.27159  -0.26209
 Alpha  occ. eigenvalues --   -0.25437  -0.22975  -0.20389  -0.17613  -0.15469
 Alpha  occ. eigenvalues --   -0.14490  -0.13855   0.04447
 Alpha virt. eigenvalues --    0.06739   0.07078   0.08321   0.09117   0.09925
 Alpha virt. eigenvalues --    0.10237   0.10724   0.11120   0.12233   0.12774
 Alpha virt. eigenvalues --    0.13066   0.13692   0.14234   0.14490   0.14881

  Beta  occ. eigenvalues --  -88.75199 -18.98139 -14.22881 -14.22148 -10.18987
  Beta  occ. eigenvalues --  -10.11337 -10.11119 -10.10145 -10.09299 -10.07621
  Beta  occ. eigenvalues --  -10.07006  -7.83789  -5.80184  -5.79801  -5.79175
  Beta  occ. eigenvalues --   -0.94491  -0.83282  -0.80518  -0.74533  -0.68296
  Beta  occ. eigenvalues --   -0.59997  -0.59565  -0.56769  -0.52173  -0.49883
  Beta  occ. eigenvalues --   -0.45352  -0.40725  -0.40357  -0.39262  -0.37792
  Beta  occ. eigenvalues --   -0.35405  -0.33992  -0.33461  -0.32282  -0.31082
  Beta  occ. eigenvalues --   -0.29135  -0.28866  -0.28164  -0.27122  -0.26178
  Beta  occ. eigenvalues --   -0.25397  -0.22924  -0.20361  -0.17603  -0.15445
  Beta  occ. eigenvalues --   -0.14475  -0.13845
  Beta virt. eigenvalues --    0.06826   0.07640   0.08106   0.08648   0.09867
  Beta virt. eigenvalues --    0.10467   0.10694   0.11084   0.11569   0.12562
  Beta virt. eigenvalues --    0.13036   0.13348   0.14030   0.14534   0.14720

 Mulliken charges and spin densities:
               1          2
     1  C    1.232095  -1.629119
     2  N   -0.480725   0.219128
     3  C    0.157623  -0.103282
     4  O   -0.372332   0.010172
     5  N   -0.140808  -0.038051
     6  C   -1.143386   0.567179
     7  C    0.745594  -0.855830
     8  C   -0.009567  -0.847511
     9  C    1.530237  -0.960788
    10  S    0.044725  -0.183170
    11  C   -0.415066  -0.193802
    12  H   -0.385004   0.554519
    13  H   -1.150906   1.319625
    14  H   -0.123811   0.295575
    15  H    0.182988   0.137338
    16  H    0.265124   0.026242
    17  H   -0.358121   0.599826
    18  H   -0.201759   0.394945
    19  H    0.083740   0.068849
    20  H   -0.008865   0.164885
    21  H   -0.455533   0.615789
    22  H   -0.443857   0.751750
    23  H    0.097306   0.067518
    24  H    0.195115   0.019573
    25  H    0.155192  -0.001363
 Sum of Mulliken charges =  -1.00000   1.00000

 Dipole moment (field-independent basis, Debye):
    X=              5.7594    Y=             -5.8603    Z=              1.7354  Tot=              8.3980
 Quadrupole moment (field-independent basis, Debye-Ang):
   XX=           -141.1618   YY=           -132.5485   ZZ=           -101.5067
   XY=              2.9785   XZ=              2.2447   YZ=              2.1402

 Summary of Natural Population Analysis:

                                       Natural Population
                Natural  -----------------------------------------------
    Atom  No    Charge         Core      Valence    Rydberg      Total
 -----------------------------------------------------------------------
      C    1   -0.18274      0.99964     2.17455    0.00854     3.18274
      N    2   -0.32788      0.99968     2.81774    0.01046     3.82788
      C    3    0.40691      0.99969     1.56910    0.02431     2.59309
      O    4   -0.34585      0.99988     3.34099    0.00499     4.34585
      N    5   -0.34699      0.99966     2.83700    0.01034     3.84699
      C    6   -0.01809      0.99955     2.00189    0.01665     3.01809
      C    7   -0.19263      0.99962     2.18361    0.00940     3.19263
      C    8   -0.19317      0.99961     2.18350    0.01006     3.19317
      C    9   -0.16945      0.99956     2.15369    0.01620     3.16945
      S   10    0.09059      4.99961     2.89184    0.01796     7.90941
      C   11   -0.35801      0.99960     2.35276    0.00565     3.35801
      H   12    0.09679      0.00000     0.40053    0.00268     0.40321
      H   13    0.10235      0.00000     0.39439    0.00325     0.39765
      H   14    0.09932      0.00000     0.39884    0.00184     0.40068
      H   15    0.19466      0.00000     0.30351    0.00182     0.30534
      H   16    0.19690      0.00000     0.30027    0.00283     0.30310
      H   17    0.10294      0.00000     0.39400    0.00306     0.39706
      H   18    0.10621      0.00000     0.39214    0.00165     0.39379
      H   19    0.09893      0.00000     0.39928    0.00179     0.40107
      H   20    0.09730      0.00000     0.40170    0.00100     0.40270
      H   21    0.10885      0.00000     0.38781    0.00334     0.39115
      H   22    0.11231      0.00000     0.38593    0.00175     0.38769
      H   23    0.10107      0.00000     0.39773    0.00120     0.39893
      H   24    0.11471      0.00000     0.38359    0.00170     0.38529
      H   25    0.10495      0.00000     0.39413    0.00092     0.39505
 =======================================================================
   * Total *   -0.00000     14.99610    31.84050    0.16340    47.00000

 Normal termination of Gaussian 16 at Tue Dec  8 19:56:05 2020.
