 Gaussian 16, Revision A.03,

 -----------------------------------------------------------
 # opt freq B3LYP/6-31G(d) empiricaldispersion=gd3bj scf=xqc
 -----------------------------------------------------------

 -------------------------------
 CID_144449141_JID_4092_neutraal
 -------------------------------
 Symbolic Z-matrix:
 Charge =  0 Multiplicity = 1

 SCF Done:  E(RB3LYP) =  -543.104518387     A.U. after   14 cycles
 SCF Done:  E(RB3LYP) =  -543.108134836     A.U. after   12 cycles
 SCF Done:  E(RB3LYP) =  -543.108937549     A.U. after   11 cycles
 SCF Done:  E(RB3LYP) =  -543.109469324     A.U. after   11 cycles
 SCF Done:  E(RB3LYP) =  -543.109601424     A.U. after   11 cycles
 SCF Done:  E(RB3LYP) =  -543.109660193     A.U. after   11 cycles
 SCF Done:  E(RB3LYP) =  -543.109670666     A.U. after   10 cycles
 SCF Done:  E(RB3LYP) =  -543.109671887     A.U. after    8 cycles
 SCF Done:  E(RB3LYP) =  -543.109672013     A.U. after    7 cycles
 SCF Done:  E(RB3LYP) =  -543.109672023     A.U. after    6 cycles
 Optimization completed.
    -- Stationary point found.
 Normal termination of Gaussian 16 at Thu Dec 10 09:15:24 2020.

 --------------------------------------------------------------------
 #N Geom=AllCheck Guess=TCheck SCRF=Check GenChk RB3LYP/6-31G(d) Freq
 --------------------------------------------------------------------

 Structure from the checkpoint file:  "JID_4092.chk"
 -------------------------------
 CID_144449141_JID_4092_neutraal
 -------------------------------
 Charge =  0 Multiplicity = 1

 SCF Done:  E(RB3LYP) =  -543.109672023     A.U. after    1 cycles

  Exact polarizability: 163.551   2.304 149.452 -26.180  17.451 114.035
 Approx polarizability: 245.517  -1.995 260.537 -54.880  46.155 183.601

                      1                      2                      3
                      A                      A                      A
 Frequencies --     42.3597                66.1139                90.0719
 Red. masses --      4.2367                 3.3356                 2.7284
 Frc consts  --      0.0045                 0.0086                 0.0130
 IR Inten    --      0.1282                 0.0724                 0.0247

                      4                      5                      6
                      A                      A                      A
 Frequencies --    113.5382               138.3835               193.4461
 Red. masses --      2.7683                 2.6233                 2.8910
 Frc consts  --      0.0210                 0.0296                 0.0637
 IR Inten    --      0.1102                 0.5650                 0.2645

                      7                      8                      9
                      A                      A                      A
 Frequencies --    225.4360               274.4831               301.6556
 Red. masses --      2.3518                 2.7355                 2.8498
 Frc consts  --      0.0704                 0.1214                 0.1528
 IR Inten    --      0.7146                 0.8133                 1.2897

                     10                     11                     12
                      A                      A                      A
 Frequencies --    308.5424               388.7587               423.8321
 Red. masses --      2.5224                 2.4602                 2.5401
 Frc consts  --      0.1415                 0.2191                 0.2688
 IR Inten    --      5.1914                 0.8675                 0.4744

                     13                     14                     15
                      A                      A                      A
 Frequencies --    430.3729               472.0172               487.2233
 Red. masses --      3.0788                 3.9297                 4.5160
 Frc consts  --      0.3360                 0.5159                 0.6316
 IR Inten    --      0.6924                 1.4771                 0.4861

                     16                     17                     18
                      A                      A                      A
 Frequencies --    493.1284               549.2626               606.1753
 Red. masses --      2.9758                 2.2440                 2.6131
 Frc consts  --      0.4264                 0.3989                 0.5657
 IR Inten    --      2.9084                 8.2301                 7.7182

                     19                     20                     21
                      A                      A                      A
 Frequencies --    631.2037               653.4897               703.6705
 Red. masses --      1.7023                 2.6566                 2.2400
 Frc consts  --      0.3996                 0.6684                 0.6535
 IR Inten    --      3.4684                 2.2675                 3.1173

                     22                     23                     24
                      A                      A                      A
 Frequencies --    713.7205               727.3469               777.2691
 Red. masses --      1.4644                 1.7023                 2.2438
 Frc consts  --      0.4395                 0.5306                 0.7987
 IR Inten    --      0.5756                 8.6871                19.1392

                     25                     26                     27
                      A                      A                      A
 Frequencies --    807.1742               813.7604               841.7274
 Red. masses --      3.1883                 2.4047                 2.1737
 Frc consts  --      1.2239                 0.9382                 0.9074
 IR Inten    --      0.8162                14.5120                 9.6319

                     28                     29                     30
                      A                      A                      A
 Frequencies --    875.8323               886.7264               915.6162
 Red. masses --      2.0641                 1.5567                 2.4054
 Frc consts  --      0.9329                 0.7212                 1.1881
 IR Inten    --     11.2878                30.9719                 4.4804

                     31                     32                     33
                      A                      A                      A
 Frequencies --    923.5107               931.0557               952.9830
 Red. masses --      1.7468                 1.4190                 2.0983
 Frc consts  --      0.8778                 0.7247                 1.1227
 IR Inten    --     12.2881                29.5751                 0.1550

                     34                     35                     36
                      A                      A                      A
 Frequencies --    973.6183               984.9784              1012.1938
 Red. masses --      1.2443                 1.2805                 2.0094
 Frc consts  --      0.6949                 0.7320                 1.2130
 IR Inten    --      1.0215                 0.9964                 0.9862

                     37                     38                     39
                      A                      A                      A
 Frequencies --   1031.7133              1041.8031              1050.8845
 Red. masses --      1.3549                 2.0220                 1.6533
 Frc consts  --      0.8497                 1.2930                 1.0758
 IR Inten    --      9.8698                 7.5860                 5.1187

                     40                     41                     42
                      A                      A                      A
 Frequencies --   1056.4966              1097.2012              1141.4437
 Red. masses --      2.1714                 2.4016                 1.6982
 Frc consts  --      1.4280                 1.7034                 1.3036
 IR Inten    --      2.7516                 1.8866                 3.1355

                     43                     44                     45
                      A                      A                      A
 Frequencies --   1164.4846              1195.1572              1200.5875
 Red. masses --      2.3246                 1.2293                 1.1262
 Frc consts  --      1.8572                 1.0345                 0.9564
 IR Inten    --      0.7892                 0.4021                 1.6560

                     46                     47                     48
                      A                      A                      A
 Frequencies --   1214.5776              1223.4649              1238.0029
 Red. masses --      1.4761                 1.5387                 1.3289
 Frc consts  --      1.2830                 1.3570                 1.2000
 IR Inten    --      2.7778                 2.3473                 2.9691

                     49                     50                     51
                      A                      A                      A
 Frequencies --   1270.3252              1283.2922              1332.4999
 Red. masses --      1.2937                 1.2401                 1.2375
 Frc consts  --      1.2300                 1.2033                 1.2946
 IR Inten    --      0.6206                 7.8591                 1.3483

                     52                     53                     54
                      A                      A                      A
 Frequencies --   1347.1082              1368.7655              1372.7696
 Red. masses --      1.6323                 1.5739                 1.4828
 Frc consts  --      1.7453                 1.7373                 1.6464
 IR Inten    --      3.3231                 1.7842                 3.8402

                     55                     56                     57
                      A                      A                      A
 Frequencies --   1380.9779              1419.1875              1438.2031
 Red. masses --      1.6200                 2.1058                 1.6198
 Frc consts  --      1.8203                 2.4989                 1.9740
 IR Inten    --      5.0316                 0.4280                 0.2009

                     58                     59                     60
                      A                      A                      A
 Frequencies --   1462.0633              1472.5227              1475.6359
 Red. masses --      2.1128                 1.2819                 1.2148
 Frc consts  --      2.6609                 1.6377                 1.5585
 IR Inten    --      2.3633                 1.3230                 0.5306

                     61                     62                     63
                      A                      A                      A
 Frequencies --   1498.9178              1505.5347              1509.7176
 Red. masses --      1.0842                 1.1274                 1.1106
 Frc consts  --      1.4352                 1.5056                 1.4914
 IR Inten    --      2.3685                 9.8039                 1.3182

                     64                     65                     66
                      A                      A                      A
 Frequencies --   1605.1544              1673.9058              1688.8142
 Red. masses --      7.8725                 4.1938                 6.5267
 Frc consts  --     11.9507                 6.9235                10.9675
 IR Inten    --      2.3800                20.1798                 3.3706

                     67                     68                     69
                      A                      A                      A
 Frequencies --   1728.8453              1733.1807              2990.3844
 Red. masses --      6.4722                 4.4934                 1.0737
 Frc consts  --     11.3976                 7.9526                 5.6569
 IR Inten    --      0.2223                 5.1254                13.9747

                     70                     71                     72
                      A                      A                      A
 Frequencies --   3002.2012              3018.3040              3045.4479
 Red. masses --      1.0697                 1.0646                 1.0844
 Frc consts  --      5.6803                 5.7142                 5.9258
 IR Inten    --     47.0311                32.0056                33.9788

                     73                     74                     75
                      A                      A                      A
 Frequencies --   3081.2487              3081.7106              3097.9845
 Red. masses --      1.0972                 1.0901                 1.0892
 Frc consts  --      6.1372                 6.0995                 6.1591
 IR Inten    --     12.2961                38.7512                19.8778

                     76                     77                     78
                      A                      A                      A
 Frequencies --   3153.6238              3165.1108              3169.0323
 Red. masses --      1.0583                 1.0851                 1.0851
 Frc consts  --      6.2010                 6.4045                 6.4207
 IR Inten    --     10.8168                 2.2060                16.8529

                     79                     80                     81
                      A                      A                      A
 Frequencies --   3170.1142              3170.3031              3188.8592
 Red. masses --      1.0667                 1.0844                 1.0971
 Frc consts  --      6.3157                 6.4217                 6.5732
 IR Inten    --      1.4028                 8.9642                34.4255

                     82                     83                     84
                      A                      A                      A
 Frequencies --   3193.7938              3233.9243              3250.2729
 Red. masses --      1.0967                 1.1157                 1.1142
 Frc consts  --      6.5910                 6.8747                 6.9349
 IR Inten    --     40.7935                17.3107                11.8800

 - Thermochemistry -
 -------------------
 Temperature   298.150 Kelvin.  Pressure   1.00000 Atm.
 Atom     1 has atomic number  6 and mass  12.00000

 Molecular mass:   184.12520 amu.
 Principal axes and moments of inertia in atomic units:
                           1         2         3
     Eigenvalues --  1802.150953086.481493301.76774
           X            0.99993   0.00975  -0.00650
           Y           -0.00936   0.99830   0.05750
           Z            0.00705  -0.05743   0.99832
 This molecule is an asymmetric top.
 Rotational symmetry number  1.
 Warning -- assumption of classical behavior for rotation
           may cause significant error
 Rotational temperatures (Kelvin)      0.04806     0.02806     0.02623
 Rotational constants (GHZ):           1.00144     0.58472     0.54660
 Zero-point vibrational energy     681669.4 (Joules/Mol)
                                  162.92291 (Kcal/Mol)
 Warning -- explicit consideration of  18 degrees of freedom as
           vibrations may cause significant error
 Vibrational temperatures:     60.95    95.12   129.59   163.36   199.10
          (Kelvin)            278.33   324.35   394.92   434.02   443.92
                              559.34   609.80   619.21   679.13   701.01
                              709.50   790.27   872.15   908.16   940.23
                             1012.42  1026.88  1046.49  1118.32  1161.34
                             1170.82  1211.06  1260.13  1275.80  1317.37
                             1328.73  1339.58  1371.13  1400.82  1417.16
                             1456.32  1484.41  1498.92  1511.99  1520.06
                             1578.63  1642.28  1675.43  1719.56  1727.38
                             1747.51  1760.29  1781.21  1827.71  1846.37
                             1917.17  1938.19  1969.35  1975.11  1986.92
                             2041.89  2069.25  2103.58  2118.63  2123.11
                             2156.61  2166.13  2172.15  2309.46  2408.38
                             2429.83  2487.42  2493.66  4302.50  4319.50
                             4342.67  4381.72  4433.23  4433.89  4457.31
                             4537.36  4553.89  4559.53  4561.09  4561.36
                             4588.06  4595.16  4652.90  4676.42

 Zero-point correction=                           0.259634 (Hartree/Particle)
 Thermal correction to Energy=                    0.272280
 Thermal correction to Enthalpy=                  0.273224
 Thermal correction to Gibbs Free Energy=         0.220628
 Sum of electronic and zero-point Energies=           -542.850038
 Sum of electronic and thermal Energies=              -542.837392
 Sum of electronic and thermal Enthalpies=            -542.836448
 Sum of electronic and thermal Free Energies=         -542.889044

                     E (Thermal)             CV                S
                      KCal/Mol        Cal/Mol-Kelvin    Cal/Mol-Kelvin
 Total                  170.858             50.485            110.698
 Electronic               0.000              0.000              0.000
 Translational            0.889              2.981             41.538
 Rotational               0.889              2.981             31.285
 Vibrational            169.081             44.524             37.875
 Vibration     1          0.595              1.980              5.146
 Vibration     2          0.598              1.970              4.266
 Vibration     3          0.602              1.956              3.659
 Vibration     4          0.607              1.938              3.208
 Vibration     5          0.614              1.915              2.826
 Vibration     6          0.635              1.849              2.195
 Vibration     7          0.650              1.802              1.915
 Vibration     8          0.677              1.720              1.568
 Vibration     9          0.694              1.671              1.408
 Vibration    10          0.698              1.657              1.370
 Vibration    11          0.757              1.494              1.005
 Vibration    12          0.786              1.418              0.879
 Vibration    13          0.792              1.404              0.857
 Vibration    14          0.829              1.312              0.732
 Vibration    15          0.843              1.278              0.691
 Vibration    16          0.849              1.265              0.676
 Vibration    17          0.905              1.141              0.546
 Vibration    18          0.965              1.019              0.439

 Optimization completed.
    -- Stationary point found.
 Normal termination of Gaussian 16 at Thu Dec 10 09:24:54 2020.

 ----------------------------------------------------------------------
 # B3LYP/6-311++G(d,p) empiricaldispersion=gd3bj scf=xqc pop=npa geom=c
 heck
 ----------------------------------------------------------------------

 ---------------------------------------
 CID_144449141_JID_4092_Energie_neutraal
 ---------------------------------------
 Structure from the checkpoint file:  "JID_4092.chk"
 Charge =  0 Multiplicity = 1

 SCF Done:  E(RB3LYP) =  -543.252252735     A.U. after   15 cycles
 Normal termination of Gaussian 16 at Thu Dec 10 09:28:37 2020.

 ----------------------------------------------------------------------
 # B3LYP/6-311++G(d,p) empiricaldispersion=gd3bj scf=xqc pop=npa geom=c
 heck
 ----------------------------------------------------------------------

 -------------------------------------
 CID_144449141_JID_4092_Energie_kation
 -------------------------------------
 Structure from the checkpoint file:  "JID_4092.chk"
 Charge =  1 Multiplicity = 2

 SCF Done:  E(UB3LYP) =  -542.998132634     A.U. after   21 cycles
 Normal termination of Gaussian 16 at Thu Dec 10 09:36:19 2020.
 Gaussian 16:  ES64L-G16RevA.03 25-Dec-2016

 ----------------------------------------------------------------------
 # B3LYP/6-311++G(d,p) empiricaldispersion=gd3bj scf=xqc pop=npa geom=c
 heck
 ----------------------------------------------------------------------

 ------------------------------------
 CID_144449141_JID_4092_Energie_anion
 ------------------------------------
 Structure from the checkpoint file:  "JID_4092.chk"
 Charge = -1 Multiplicity = 2

                         Standard orientation:
 ---------------------------------------------------------------------
 Center     Atomic      Atomic             Coordinates (Angstroms)
 Number     Number       Type             X           Y           Z
 ---------------------------------------------------------------------
      1          6           0        1.651765   -1.714311    2.034172
      2          6           0        1.788072   -0.460383    1.602891
      3          6           0        2.634409   -0.053436    0.431967
      4          6           0        1.832027    0.643130   -0.718277
      5          6           0        1.306681    1.971771   -0.245126
      6          6           0        0.019077    2.129518    0.090827
      7          6           0       -0.941993    1.034084   -0.030236
      8          6           0       -0.592998   -0.136895   -0.645986
      9          6           0        0.740072   -0.290861   -1.221174
     10          6           0        1.042504   -1.243737   -2.123845
     11          6           0       -1.649767   -1.202786   -0.838783
     12          6           0       -2.680215   -1.209173    0.298682
     13          6           0       -3.139777    0.185111    0.638335
     14          6           0       -2.300884    1.220744    0.481796
     15          1           0        2.165605   -2.542537    1.550689
     16          1           0        1.021897   -1.961731    2.884546
     17          1           0        1.249165    0.342007    2.104526
     18          1           0        3.420299    0.642212    0.762073
     19          1           0        3.130382   -0.935344    0.009486
     20          1           0        2.552279    0.811648   -1.528603
     21          1           0        2.021533    2.782447   -0.124839
     22          1           0       -0.343924    3.080122    0.475842
     23          1           0        0.322726   -1.982783   -2.458305
     24          1           0        2.035095   -1.303531   -2.562162
     25          1           0       -2.162572   -1.027545   -1.798610
     26          1           0       -1.184263   -2.190318   -0.910074
     27          1           0       -3.528415   -1.848843    0.030295
     28          1           0       -2.226987   -1.658185    1.198204
     29          1           0       -4.128850    0.328500    1.066061
     30          1           0       -2.597802    2.227227    0.769413
 ---------------------------------------------------------------------

 SCF Done:  E(UB3LYP) =  -543.263142587     A.U. after   26 cycles

 The electronic state is 2-A.
 Alpha  occ. eigenvalues --  -10.04842 -10.04187 -10.03867 -10.03773 -10.03046
 Alpha  occ. eigenvalues --  -10.02182 -10.01670 -10.01447 -10.01422 -10.00767
 Alpha  occ. eigenvalues --  -10.00715 -10.00151  -9.99723  -9.99071  -0.71120
 Alpha  occ. eigenvalues --   -0.67978  -0.64821  -0.62335  -0.59790  -0.57989
 Alpha  occ. eigenvalues --   -0.55118  -0.50085  -0.47558  -0.45640  -0.42466
 Alpha  occ. eigenvalues --   -0.41136  -0.37093  -0.35125  -0.34407  -0.32763
 Alpha  occ. eigenvalues --   -0.31558  -0.30603  -0.29307  -0.28377  -0.27891
 Alpha  occ. eigenvalues --   -0.25909  -0.24850  -0.24530  -0.23338  -0.22651
 Alpha  occ. eigenvalues --   -0.22571  -0.21201  -0.19619  -0.18092  -0.16985
 Alpha  occ. eigenvalues --   -0.15899  -0.13742  -0.12238  -0.11012  -0.04374
 Alpha  occ. eigenvalues --    0.04462
 Alpha virt. eigenvalues --    0.08797   0.09350   0.09911   0.10416   0.11109
 Alpha virt. eigenvalues --    0.11234   0.12029   0.12151   0.12440   0.13271
 Alpha virt. eigenvalues --    0.13574   0.13796   0.14704   0.15094   0.15528

  Beta  occ. eigenvalues --  -10.04842 -10.04126 -10.03892 -10.03775 -10.03061
  Beta  occ. eigenvalues --  -10.02198 -10.01687 -10.01463 -10.01463 -10.00471
  Beta  occ. eigenvalues --  -10.00461  -9.99994  -9.99395  -9.98760  -0.70782
  Beta  occ. eigenvalues --   -0.67784  -0.64670  -0.61987  -0.59434  -0.57782
  Beta  occ. eigenvalues --   -0.54785  -0.49774  -0.47396  -0.45176  -0.42342
  Beta  occ. eigenvalues --   -0.40808  -0.36778  -0.35021  -0.34291  -0.32607
  Beta  occ. eigenvalues --   -0.31295  -0.30500  -0.29144  -0.28245  -0.27631
  Beta  occ. eigenvalues --   -0.25762  -0.24713  -0.24299  -0.23234  -0.22410
  Beta  occ. eigenvalues --   -0.22297  -0.21029  -0.19476  -0.17122  -0.16791
  Beta  occ. eigenvalues --   -0.15712  -0.13655  -0.11033  -0.10163  -0.02459
  Beta virt. eigenvalues --    0.08702   0.09253   0.09814   0.09905   0.10438
  Beta virt. eigenvalues --    0.11073   0.11252   0.11999   0.12167   0.12476
  Beta virt. eigenvalues --    0.13236   0.13523   0.13745   0.14703   0.15118

 Mulliken charges and spin densities:
               1          2
     1  C   -0.669762   0.011894
     2  C    0.466599   0.009013
     3  C   -0.670800  -0.048527
     4  C    0.258324  -0.030905
     5  C   -0.621127   0.214948
     6  C   -0.415958  -0.037293
     7  C    0.002861   0.152679
     8  C    0.838547   0.198054
     9  C    0.407506  -0.048661
    10  C   -0.203431   0.340071
    11  C   -0.802678  -0.016424
    12  C   -0.634552  -0.015260
    13  C   -0.124793   0.219665
    14  C   -0.504310  -0.039883
    15  H    0.110849   0.001743
    16  H    0.095486  -0.000157
    17  H    0.185649  -0.003530
    18  H    0.077635   0.030061
    19  H    0.102803  -0.003637
    20  H    0.141140   0.051166
    21  H    0.108765  -0.010638
    22  H    0.090750   0.001205
    23  H    0.114154  -0.011377
    24  H    0.077156  -0.011509
    25  H    0.077386   0.023859
    26  H    0.087842   0.018470
    27  H    0.099048   0.006032
    28  H    0.095479   0.011306
    29  H    0.121570  -0.015952
    30  H    0.087861   0.003587
 Sum of Mulliken charges =  -1.00000   1.00000

 Dipole moment (field-independent basis, Debye):
    X=              0.9266    Y=             -0.5188    Z=              1.8440  Tot=              2.1280
 Quadrupole moment (field-independent basis, Debye-Ang):
   XX=           -111.6782   YY=           -101.4238   ZZ=           -106.8264
   XY=              3.0272   XZ=             -0.2536   YZ=             -0.0262

 Summary of Natural Population Analysis:

                                       Natural Population
                Natural  -----------------------------------------------
    Atom  No    Charge         Core      Valence    Rydberg      Total
 -----------------------------------------------------------------------
      C    1   -0.20617      0.99957     2.19985    0.00675     3.20617
      C    2   -0.07232      0.99957     2.06353    0.00922     3.07232
      C    3   -0.19088      0.99959     2.18102    0.01027     3.19088
      C    4   -0.12882      0.99955     2.11593    0.01333     3.12882
      C    5   -0.04807      0.99954     2.03871    0.00982     3.04807
      C    6   -0.10631      0.99951     2.09804    0.00876     3.10631
      C    7   -0.02709      0.99943     2.01567    0.01198     3.02709
      C    8    0.05016      0.99941     1.93909    0.01133     2.94984
      C    9   -0.01954      0.99949     2.00820    0.01185     3.01954
      C   10   -0.14875      0.99954     2.13993    0.00929     3.14875
      C   11   -0.19234      0.99961     2.18589    0.00683     3.19234
      C   12   -0.20117      0.99963     2.19465    0.00689     3.20117
      C   13   -0.03963      0.99955     2.03036    0.00972     3.03963
      C   14   -0.11585      0.99952     2.10721    0.00912     3.11585
      H   15    0.08609      0.00000     0.41271    0.00120     0.41391
      H   16    0.08731      0.00000     0.41154    0.00115     0.41269
      H   17    0.09821      0.00000     0.40045    0.00135     0.40179
      H   18    0.09402      0.00000     0.40431    0.00166     0.40598
      H   19    0.09571      0.00000     0.40285    0.00144     0.40429
      H   20    0.10006      0.00000     0.39834    0.00160     0.39994
      H   21    0.08410      0.00000     0.41489    0.00100     0.41590
      H   22    0.08833      0.00000     0.41013    0.00154     0.41167
      H   23    0.08502      0.00000     0.41406    0.00093     0.41498
      H   24    0.07945      0.00000     0.41952    0.00103     0.42055
      H   25    0.09341      0.00000     0.40458    0.00202     0.40659
      H   26    0.09827      0.00000     0.40026    0.00147     0.40173
      H   27    0.09055      0.00000     0.40822    0.00123     0.40945
      H   28    0.09654      0.00000     0.40191    0.00155     0.40346
      H   29    0.08139      0.00000     0.41746    0.00114     0.41861
      H   30    0.08830      0.00000     0.41023    0.00147     0.41170
 =======================================================================
   * Total *    0.00000     13.99353    35.84953    0.15694    50.00000

 Normal termination of Gaussian 16 at Thu Dec 10 09:45:29 2020.
