 Gaussian 16, Revision A.03,

 -----------------------------------------------------------
 # opt freq B3LYP/6-31G(d) empiricaldispersion=gd3bj scf=xqc
 -----------------------------------------------------------

 -------------------------------
 CID_154019167_JID_9981_neutraal
 -------------------------------
 Symbolic Z-matrix:
 Charge =  0 Multiplicity = 1

 SCF Done:  E(RB3LYP) =  -789.271222652     A.U. after   17 cycles
 SCF Done:  E(RB3LYP) =  -789.275592461     A.U. after   14 cycles
 SCF Done:  E(RB3LYP) =  -789.275917614     A.U. after   13 cycles
 SCF Done:  E(RB3LYP) =  -789.276003682     A.U. after   12 cycles
 SCF Done:  E(RB3LYP) =  -789.276248757     A.U. after   11 cycles
 SCF Done:  E(RB3LYP) =  -789.276271727     A.U. after   12 cycles
 SCF Done:  E(RB3LYP) =  -789.276274049     A.U. after   10 cycles
 SCF Done:  E(RB3LYP) =  -789.276275004     A.U. after    9 cycles
 SCF Done:  E(RB3LYP) =  -789.276275122     A.U. after    8 cycles
 Optimization completed.
    -- Stationary point found.
 Normal termination of Gaussian 16 at Sat Dec 12 10:11:30 2020.

 --------------------------------------------------------------------
 #N Geom=AllCheck Guess=TCheck SCRF=Check GenChk RB3LYP/6-31G(d) Freq
 --------------------------------------------------------------------

 Structure from the checkpoint file:  "JID_9981.chk"
 -------------------------------
 CID_154019167_JID_9981_neutraal
 -------------------------------
 Charge =  0 Multiplicity = 1

 SCF Done:  E(RB3LYP) =  -789.276275122     A.U. after    1 cycles

  Exact polarizability: 378.291 -29.349 171.365  -0.342  -0.039 109.436
 Approx polarizability: 658.417-110.934 294.993  -0.970  -2.498 163.885

                      1                      2                      3
                      A                      A                      A
 Frequencies --     28.7417                68.1493                72.9278
 Red. masses --      3.7709                 3.8338                 3.5935
 Frc consts  --      0.0018                 0.0105                 0.0113
 IR Inten    --      1.1015                 0.0366                 0.1004

                      4                      5                      6
                      A                      A                      A
 Frequencies --     96.6207               140.6804               157.7569
 Red. masses --      3.9121                 3.9871                 4.3077
 Frc consts  --      0.0215                 0.0465                 0.0632
 IR Inten    --      2.2210                 0.1253                 0.3061

                      7                      8                      9
                      A                      A                      A
 Frequencies --    186.8759               234.7255               243.5085
 Red. masses --      3.6681                 2.3033                 1.0613
 Frc consts  --      0.0755                 0.0748                 0.0371
 IR Inten    --      0.6911                 0.3305                 0.0337

                     10                     11                     12
                      A                      A                      A
 Frequencies --    245.3921               257.1052               269.5695
 Red. masses --      1.2612                 2.5216                 1.2262
 Frc consts  --      0.0447                 0.0982                 0.0525
 IR Inten    --      0.1177                 0.2066                 0.0084

                     13                     14                     15
                      A                      A                      A
 Frequencies --    272.0119               303.1863               309.6554
 Red. masses --      1.2484                 2.1138                 3.0812
 Frc consts  --      0.0544                 0.1145                 0.1741
 IR Inten    --      0.2891                 2.6216                 0.0923

                     16                     17                     18
                      A                      A                      A
 Frequencies --    318.6033               324.6682               350.7867
 Red. masses --      3.2482                 2.9397                 2.6769
 Frc consts  --      0.1943                 0.1826                 0.1941
 IR Inten    --      1.3003                 0.8774                 1.2282

                     19                     20                     21
                      A                      A                      A
 Frequencies --    401.5021               417.1910               440.7357
 Red. masses --      2.8915                 3.0678                 2.9735
 Frc consts  --      0.2746                 0.3146                 0.3403
 IR Inten    --      0.6778                 1.1812                 1.5852

                     22                     23                     24
                      A                      A                      A
 Frequencies --    457.5272               465.9459               475.2576
 Red. masses --      3.0659                 2.8455                 3.7521
 Frc consts  --      0.3781                 0.3640                 0.4993
 IR Inten    --      0.7931                 2.8159                 1.2551

                     25                     26                     27
                      A                      A                      A
 Frequencies --    493.8297               525.9922               536.4553
 Red. masses --      4.2879                 3.6594                 3.7673
 Frc consts  --      0.6161                 0.5965                 0.6388
 IR Inten    --      0.9503                 0.9086                 0.6649

                     28                     29                     30
                      A                      A                      A
 Frequencies --    572.5938               601.4018               641.7729
 Red. masses --      4.7093                 5.2263                 5.8599
 Frc consts  --      0.9097                 1.1137                 1.4220
 IR Inten    --     11.2691                 2.0796                 3.3341

                     31                     32                     33
                      A                      A                      A
 Frequencies --    658.4646               706.6431               718.7263
 Red. masses --      5.1395                 3.9581                 4.9454
 Frc consts  --      1.3129                 1.1645                 1.5052
 IR Inten    --      5.4747                 2.5561                 3.7762

                     34                     35                     36
                      A                      A                      A
 Frequencies --    754.3954               772.3388               803.8471
 Red. masses --      4.6461                 3.5741                 1.6105
 Frc consts  --      1.5579                 1.2561                 0.6131
 IR Inten    --      0.6298                 5.5031                11.4955

                     37                     38                     39
                      A                      A                      A
 Frequencies --    842.2149               852.3017               856.6902
 Red. masses --      3.3668                 3.6657                 1.5797
 Frc consts  --      1.4071                 1.5689                 0.6831
 IR Inten    --      0.5537                10.7108                 0.7871

                     40                     41                     42
                      A                      A                      A
 Frequencies --    896.5034               901.7768               916.0735
 Red. masses --      3.3147                 1.4989                 1.5376
 Frc consts  --      1.5696                 0.7182                 0.7602
 IR Inten    --      2.4652                21.8533                26.9387

                     43                     44                     45
                      A                      A                      A
 Frequencies --    939.7475               949.5131               949.7872
 Red. masses --      2.1639                 1.8526                 1.7516
 Frc consts  --      1.1259                 0.9841                 0.9310
 IR Inten    --      2.1558                 7.3145                 4.7513

                     46                     47                     48
                      A                      A                      A
 Frequencies --    958.3114               963.9167               973.1035
 Red. masses --      1.5819                 1.8023                 2.0580
 Frc consts  --      0.8560                 0.9867                 1.1482
 IR Inten    --      0.5471                 0.6842                 3.0953

                     49                     50                     51
                      A                      A                      A
 Frequencies --    993.1396               996.9839              1039.7898
 Red. masses --      1.8167                 1.2700                 1.3040
 Frc consts  --      1.0558                 0.7438                 0.8307
 IR Inten    --     46.8155                 0.3320                 0.0290

                     52                     53                     54
                      A                      A                      A
 Frequencies --   1045.3598              1069.4910              1136.5498
 Red. masses --      1.3653                 4.0249                 1.7357
 Frc consts  --      0.8791                 2.7125                 1.3210
 IR Inten    --      3.4115                21.3142                15.0684

                     55                     56                     57
                      A                      A                      A
 Frequencies --   1145.6728              1162.7147              1168.7720
 Red. masses --      3.2882                 1.8480                 2.4810
 Frc consts  --      2.5429                 1.4720                 1.9968
 IR Inten    --      6.3327                 5.8102                 4.5327

                     58                     59                     60
                      A                      A                      A
 Frequencies --   1193.9971              1216.4506              1227.7051
 Red. masses --      1.7997                 1.5339                 2.8230
 Frc consts  --      1.5117                 1.3373                 2.5070
 IR Inten    --      1.0465                 1.7080                46.8241

                     61                     62                     63
                      A                      A                      A
 Frequencies --   1250.5183              1261.5080              1301.7250
 Red. masses --      1.9877                 2.2903                 2.1575
 Frc consts  --      1.8314                 2.1474                 2.1540
 IR Inten    --     21.0457                 4.8213                 3.5579

                     64                     65                     66
                      A                      A                      A
 Frequencies --   1308.8419              1317.2089              1339.8102
 Red. masses --      1.7724                 1.8423                 2.6126
 Frc consts  --      1.7889                 1.8833                 2.7632
 IR Inten    --     33.8603                36.8169                 1.9830

                     67                     68                     69
                      A                      A                      A
 Frequencies --   1350.1430              1410.5766              1416.1306
 Red. masses --      2.0095                 2.4821                 1.1956
 Frc consts  --      2.1582                 2.9098                 1.4127
 IR Inten    --      8.3524                25.0021                 2.1567

                     70                     71                     72
                      A                      A                      A
 Frequencies --   1424.8364              1427.6621              1445.6171
 Red. masses --      1.2168                 1.3419                 1.2854
 Frc consts  --      1.4554                 1.6115                 1.5826
 IR Inten    --      7.0093                 1.0397                 0.4140

                     73                     74                     75
                      A                      A                      A
 Frequencies --   1451.8004              1462.1843              1488.8558
 Red. masses --      1.5492                 3.1851                 1.0935
 Frc consts  --      1.9238                 4.0121                 1.4281
 IR Inten    --      1.2392                 5.6183                 5.5082

                     76                     77                     78
                      A                      A                      A
 Frequencies --   1512.9618              1513.0570              1514.8670
 Red. masses --      1.0485                 1.0473                 1.0468
 Frc consts  --      1.4140                 1.4126                 1.4154
 IR Inten    --      3.4121                 1.7016                 0.2114

                     79                     80                     81
                      A                      A                      A
 Frequencies --   1519.0551              1527.4567              1531.0628
 Red. masses --      1.0515                 1.0560                 1.0535
 Frc consts  --      1.4296                 1.4516                 1.4551
 IR Inten    --      4.7035                 2.3567                 4.1549

                     82                     83                     84
                      A                      A                      A
 Frequencies --   1536.8257              1538.9472              1606.2280
 Red. masses --      1.0599                 1.0693                10.0707
 Frc consts  --      1.4748                 1.4921                15.3083
 IR Inten    --      5.7490                 7.5519                30.3459

                     85                     86                     87
                      A                      A                      A
 Frequencies --   1643.2555              1663.9344              1689.9904
 Red. masses --      7.5777                 8.2894                 8.2042
 Frc consts  --     12.0559                13.5221                13.8056
 IR Inten    --      2.4611                11.3766                16.8637

                     88                     89                     90
                      A                      A                      A
 Frequencies --   1730.1672              1815.0653              3028.5693
 Red. masses --      7.5381                12.1182                 1.0664
 Frc consts  --     13.2951                23.5218                 5.7631
 IR Inten    --     26.2749               129.3371                11.4106

                     91                     92                     93
                      A                      A                      A
 Frequencies --   3042.6519              3044.4757              3047.2739
 Red. masses --      1.0344                 1.0346                 1.0357
 Frc consts  --      5.6421                 5.6498                 5.6664
 IR Inten    --     23.4014                18.8315                83.3318

                     94                     95                     96
                      A                      A                      A
 Frequencies --   3048.3359              3111.0469              3111.7949
 Red. masses --      1.0349                 1.1025                 1.1028
 Frc consts  --      5.6660                 6.2868                 6.2920
 IR Inten    --     53.7825                 5.2336                 0.2187

                     97                     98                     99
                      A                      A                      A
 Frequencies --   3114.9708              3116.0993              3116.4367
 Red. masses --      1.0996                 1.1009                 1.1023
 Frc consts  --      6.2864                 6.2985                 6.3075
 IR Inten    --     11.4482                21.9642                46.0925

                    100                    101                    102
                      A                      A                      A
 Frequencies --   3120.5882              3125.9984              3133.8389
 Red. masses --      1.0999                 1.1030                 1.1027
 Frc consts  --      6.3105                 6.3506                 6.3806
 IR Inten    --     72.1614                26.4273                20.8077

                    103                    104                    105
                      A                      A                      A
 Frequencies --   3135.0327              3152.1308              3161.1329
 Red. masses --      1.1026                 1.0886                 1.0847
 Frc consts  --      6.3847                 6.3729                 6.3863
 IR Inten    --     29.6744                16.0801                 6.5317

                    106                    107                    108
                      A                      A                      A
 Frequencies --   3175.4007              3182.5647              3192.1854
 Red. masses --      1.0908                 1.0959                 1.0897
 Frc consts  --      6.4800                 6.5398                 6.5423
 IR Inten    --     10.1329                50.3903                 3.0434

 - Thermochemistry -
 -------------------
 Temperature   298.150 Kelvin.  Pressure   1.00000 Atm.
 Atom     1 has atomic number  6 and mass  12.00000

 Molecular mass:   253.14666 amu.
 Principal axes and moments of inertia in atomic units:
                           1         2         3
     Eigenvalues --  1854.987669077.16879**********
           X            0.99992  -0.01297  -0.00031
           Y            0.01297   0.99992   0.00020
           Z            0.00031  -0.00020   1.00000
 This molecule is an asymmetric top.
 Rotational symmetry number  1.
 Warning -- assumption of classical behavior for rotation
           may cause significant error
 Rotational temperatures (Kelvin)      0.04669     0.00954     0.00854
 Rotational constants (GHZ):           0.97291     0.19882     0.17799
 Zero-point vibrational energy     842667.3 (Joules/Mol)
                                  201.40232 (Kcal/Mol)
 Warning -- explicit consideration of  29 degrees of freedom as
           vibrations may cause significant error
 Vibrational temperatures:     41.35    98.05   104.93   139.02   202.41
          (Kelvin)            226.98   268.87   337.72   350.35   353.06
                              369.92   387.85   391.36   436.22   445.53
                              458.40   467.13   504.70   577.67   600.24
                              634.12   658.28   670.39   683.79   710.51
                              756.79   771.84   823.83   865.28   923.37
                              947.38  1016.70  1034.09  1085.41  1111.22
                             1156.56  1211.76  1226.27  1232.59  1289.87
                             1297.46  1318.03  1352.09  1366.14  1366.53
                             1378.80  1386.86  1400.08  1428.91  1434.44
                             1496.03  1504.04  1538.76  1635.24  1648.37
                             1672.89  1681.60  1717.90  1750.20  1766.39
                             1799.22  1815.03  1872.89  1883.13  1895.17
                             1927.69  1942.55  2029.51  2037.50  2050.02
                             2054.09  2079.92  2088.82  2103.76  2142.13
                             2176.81  2176.95  2179.56  2185.58  2197.67
                             2202.86  2211.15  2214.20  2311.00  2364.28
                             2394.03  2431.52  2489.32  2611.47  4357.44
                             4377.70  4380.32  4384.35  4385.88  4476.10
                             4477.18  4481.75  4483.37  4483.86  4489.83
                             4497.61  4508.90  4510.61  4535.21  4548.17
                             4568.69  4579.00  4592.84

 Zero-point correction=                           0.320955 (Hartree/Particle)
 Thermal correction to Energy=                    0.338148
 Thermal correction to Enthalpy=                  0.339092
 Thermal correction to Gibbs Free Energy=         0.277043
 Sum of electronic and zero-point Energies=           -788.955320
 Sum of electronic and thermal Energies=              -788.938127
 Sum of electronic and thermal Enthalpies=            -788.937183
 Sum of electronic and thermal Free Energies=         -788.999232

                     E (Thermal)             CV                S
                      KCal/Mol        Cal/Mol-Kelvin    Cal/Mol-Kelvin
 Total                  212.191             69.328            130.593
 Electronic               0.000              0.000              0.000
 Translational            0.889              2.981             42.487
 Rotational               0.889              2.981             33.501
 Vibrational            210.414             63.367             54.606
 Vibration     1          0.593              1.984              5.914
 Vibration     2          0.598              1.969              4.206
 Vibration     3          0.599              1.967              4.073
 Vibration     4          0.603              1.952              3.521
 Vibration     5          0.615              1.913              2.795
 Vibration     6          0.621              1.894              2.577
 Vibration     7          0.632              1.858              2.259
 Vibration     8          0.655              1.788              1.843
 Vibration     9          0.659              1.773              1.777
 Vibration    10          0.660              1.770              1.763
 Vibration    11          0.667              1.751              1.681
 Vibration    12          0.674              1.729              1.599
 Vibration    13          0.675              1.725              1.583
 Vibration    14          0.695              1.668              1.399
 Vibration    15          0.699              1.655              1.364
 Vibration    16          0.705              1.638              1.317
 Vibration    17          0.709              1.626              1.286
 Vibration    18          0.728              1.574              1.163
 Vibration    19          0.767              1.467              0.957
 Vibration    20          0.780              1.433              0.902
 Vibration    21          0.801              1.381              0.824
 Vibration    22          0.816              1.344              0.773
 Vibration    23          0.823              1.326              0.749
 Vibration    24          0.832              1.305              0.723
 Vibration    25          0.849              1.264              0.674
 Vibration    26          0.881              1.192              0.596
 Vibration    27          0.891              1.169              0.573
 Vibration    28          0.929              1.091              0.499
 Vibration    29          0.960              1.029              0.447

 Optimization completed.
    -- Stationary point found.
 Normal termination of Gaussian 16 at Sat Dec 12 10:28:56 2020.

 ----------------------------------------------------------------------
 # B3LYP/6-311++G(d,p) empiricaldispersion=gd3bj scf=xqc pop=npa geom=c
 heck
 ----------------------------------------------------------------------

 ---------------------------------------
 CID_154019167_JID_9981_Energie_neutraal
 ---------------------------------------
 Structure from the checkpoint file:  "JID_9981.chk"
 Charge =  0 Multiplicity = 1

 SCF Done:  E(RB3LYP) =  -789.480924549     A.U. after   16 cycles
 Normal termination of Gaussian 16 at Sat Dec 12 10:37:51 2020.

 ----------------------------------------------------------------------
 # B3LYP/6-311++G(d,p) empiricaldispersion=gd3bj scf=xqc pop=npa geom=c
 heck
 ----------------------------------------------------------------------

 -------------------------------------
 CID_154019167_JID_9981_Energie_kation
 -------------------------------------
 Structure from the checkpoint file:  "JID_9981.chk"
 Charge =  1 Multiplicity = 2

 SCF Done:  E(UB3LYP) =  -789.219530361     A.U. after   22 cycles
 Normal termination of Gaussian 16 at Sat Dec 12 10:55:06 2020.
 Gaussian 16:  ES64L-G16RevA.03 25-Dec-2016

 ----------------------------------------------------------------------
 # B3LYP/6-311++G(d,p) empiricaldispersion=gd3bj scf=xqc pop=npa geom=c
 heck
 ----------------------------------------------------------------------

 ------------------------------------
 CID_154019167_JID_9981_Energie_anion
 ------------------------------------
 Structure from the checkpoint file:  "JID_9981.chk"
 Charge = -1 Multiplicity = 2

                         Standard orientation:
 ---------------------------------------------------------------------
 Center     Atomic      Atomic             Coordinates (Angstroms)
 Number     Number       Type             X           Y           Z
 ---------------------------------------------------------------------
      1          6           0        4.820374   -1.126780    0.735247
      2          6           0        3.678264   -0.417555   -0.012237
      3          6           0        3.371096    0.931992    0.676196
      4          6           0        2.094457    1.576479    0.170683
      5          8           0        2.020802    2.749759   -0.134570
      6          6           0        0.904669    0.644459    0.100591
      7          7           0       -0.270976    1.180152    0.088841
      8          6           0       -1.392672    0.348728    0.042955
      9          6           0       -2.616698    0.927677    0.031909
     10          6           0       -3.913699    0.169854   -0.014509
     11          6           0       -3.682754   -1.321599   -0.041383
     12          6           0       -2.470204   -1.896119   -0.030147
     13          6           0       -1.246687   -1.111189    0.010741
     14          6           0       -0.002436   -1.652125    0.016166
     15          6           0        1.171283   -0.805058    0.050703
     16          6           0        2.441561   -1.280911    0.000513
     17          6           0       -4.758683    0.532201    1.234486
     18          6           0       -4.699646    0.586311   -1.285116
     19          6           0        4.104317   -0.167021   -1.478587
     20          1           0        4.540782   -1.339189    1.773124
     21          1           0        5.721309   -0.502904    0.744162
     22          1           0        5.073005   -2.076924    0.249969
     23          1           0        3.235752    0.749350    1.752734
     24          1           0        4.194564    1.641711    0.554953
     25          1           0       -2.665265    2.013536    0.055983
     26          1           0       -4.577019   -1.941707   -0.072509
     27          1           0       -2.371873   -2.979491   -0.052279
     28          1           0        0.133110   -2.731143   -0.014614
     29          1           0        2.593792   -2.357018   -0.079761
     30          1           0       -4.957743    1.609481    1.263962
     31          1           0       -5.721330    0.007847    1.211058
     32          1           0       -4.233432    0.252109    2.152345
     33          1           0       -4.897974    1.664094   -1.277634
     34          1           0       -4.131539    0.345378   -2.188398
     35          1           0       -5.661836    0.062449   -1.329343
     36          1           0        5.028013    0.423064   -1.512630
     37          1           0        4.283925   -1.114014   -1.999064
     38          1           0        3.328910    0.378168   -2.026645
 ---------------------------------------------------------------------

 SCF Done:  E(UB3LYP) =  -789.518367389     A.U. after   22 cycles

 The electronic state is 2-A.
 Alpha  occ. eigenvalues --  -18.95811 -14.14393 -10.10249 -10.07570 -10.07382
 Alpha  occ. eigenvalues --  -10.06133 -10.05932 -10.05795 -10.05549 -10.05527
 Alpha  occ. eigenvalues --  -10.05424 -10.05180 -10.04982 -10.04924 -10.04695
 Alpha  occ. eigenvalues --  -10.04670 -10.04145 -10.02107 -10.01229  -0.89386
 Alpha  occ. eigenvalues --   -0.78935  -0.73006  -0.72069  -0.68186  -0.65156
 Alpha  occ. eigenvalues --   -0.62296  -0.59927  -0.58585  -0.58098  -0.57999
 Alpha  occ. eigenvalues --   -0.52466  -0.50893  -0.47247  -0.46611  -0.42824
 Alpha  occ. eigenvalues --   -0.42348  -0.38461  -0.37079  -0.35761  -0.34244
 Alpha  occ. eigenvalues --   -0.33925  -0.33413  -0.31963  -0.31587  -0.31526
 Alpha  occ. eigenvalues --   -0.30392  -0.29111  -0.28684  -0.28604  -0.28410
 Alpha  occ. eigenvalues --   -0.27693  -0.26797  -0.26579  -0.25817  -0.25440
 Alpha  occ. eigenvalues --   -0.24706  -0.23973  -0.22816  -0.22234  -0.21170
 Alpha  occ. eigenvalues --   -0.20575  -0.20161  -0.18777  -0.16877  -0.12141
 Alpha  occ. eigenvalues --   -0.11356  -0.09540  -0.07155   0.01555
 Alpha virt. eigenvalues --    0.06918   0.07263   0.07539   0.08807   0.09656
 Alpha virt. eigenvalues --    0.09830   0.10007   0.10424   0.11182   0.11631
 Alpha virt. eigenvalues --    0.11991   0.12445   0.12577   0.12959   0.13327

  Beta  occ. eigenvalues --  -18.95611 -14.13994 -10.10162 -10.07605 -10.07405
  Beta  occ. eigenvalues --  -10.06133 -10.05929 -10.05783 -10.05537 -10.05499
  Beta  occ. eigenvalues --  -10.05477 -10.05163 -10.04943 -10.04784 -10.04697
  Beta  occ. eigenvalues --  -10.04636 -10.04223 -10.01650 -10.00751  -0.89025
  Beta  occ. eigenvalues --   -0.78401  -0.72801  -0.71811  -0.68038  -0.64992
  Beta  occ. eigenvalues --   -0.62084  -0.59744  -0.58212  -0.57999  -0.57879
  Beta  occ. eigenvalues --   -0.51937  -0.50618  -0.47177  -0.46359  -0.42539
  Beta  occ. eigenvalues --   -0.42136  -0.38358  -0.36943  -0.35563  -0.34148
  Beta  occ. eigenvalues --   -0.33805  -0.33279  -0.31835  -0.31496  -0.31305
  Beta  occ. eigenvalues --   -0.30247  -0.28937  -0.28601  -0.28489  -0.28055
  Beta  occ. eigenvalues --   -0.27574  -0.26645  -0.26228  -0.25569  -0.25317
  Beta  occ. eigenvalues --   -0.24330  -0.23719  -0.22702  -0.22036  -0.20830
  Beta  occ. eigenvalues --   -0.20356  -0.19951  -0.18029  -0.15943  -0.11429
  Beta  occ. eigenvalues --   -0.11015  -0.09234  -0.04771
  Beta virt. eigenvalues --    0.07128   0.07228   0.07516   0.08230   0.08782
  Beta virt. eigenvalues --    0.09655   0.09799   0.10200   0.10420   0.11193
  Beta virt. eigenvalues --    0.11595   0.11967   0.12452   0.12795   0.13010

 Mulliken charges and spin densities:
               1          2
     1  C   -0.574340   0.014457
     2  C    1.145279   0.001720
     3  C   -0.287860  -0.043188
     4  C   -0.565130   0.035448
     5  O   -0.298148   0.071402
     6  C   -0.786881   0.097079
     7  N    0.142025   0.193793
     8  C   -0.833463  -0.098623
     9  C   -0.407518   0.378411
    10  C    1.015328  -0.019319
    11  C   -0.483715   0.014867
    12  C   -0.081856   0.002205
    13  C    0.609688   0.008406
    14  C   -0.016969   0.021776
    15  C    0.452526  -0.072178
    16  C   -0.519338   0.381965
    17  C   -0.611506  -0.012706
    18  C   -0.616594  -0.011732
    19  C   -0.717398   0.007106
    20  H    0.116956   0.008998
    21  H    0.128769   0.006089
    22  H    0.111732  -0.000163
    23  H    0.134704   0.018132
    24  H    0.167060  -0.006184
    25  H    0.175277  -0.023802
    26  H    0.149329  -0.000475
    27  H    0.110765  -0.000481
    28  H    0.081746  -0.001849
    29  H    0.116265  -0.026139
    30  H    0.124572   0.003245
    31  H    0.090744   0.018075
    32  H    0.143786   0.002000
    33  H    0.126077   0.003556
    34  H    0.145089   0.000510
    35  H    0.089724   0.018020
    36  H    0.105778   0.007521
    37  H    0.131640   0.004074
    38  H    0.185859  -0.002020
 Sum of Mulliken charges =  -1.00000   1.00000

 Dipole moment (field-independent basis, Debye):
    X=             -0.8467    Y=             -5.0114    Z=              0.3401  Tot=              5.0938
 Quadrupole moment (field-independent basis, Debye-Ang):
   XX=           -153.3431   YY=           -141.3384   ZZ=           -125.6912
   XY=             -4.6297   XZ=              1.3327   YZ=              1.7645

 Summary of Natural Population Analysis:

                                       Natural Population
                Natural  -----------------------------------------------
    Atom  No    Charge         Core      Valence    Rydberg      Total
 -----------------------------------------------------------------------
      C    1   -0.27527      0.99964     2.27016    0.00548     3.27527
      C    2   -0.06276      0.99957     2.05315    0.01003     3.06276
      C    3   -0.22600      0.99957     2.21759    0.00884     3.22600
      C    4    0.26866      0.99966     1.70547    0.02620     2.73134
      O    5   -0.26487      0.99987     3.25767    0.00733     4.26487
      C    6    0.14899      0.99950     1.83623    0.01528     2.85101
      N    7   -0.16819      0.99967     2.64602    0.02250     3.66819
      C    8    0.01580      0.99944     1.96728    0.01748     2.98420
      C    9    0.04679      0.99949     1.94634    0.00738     2.95321
      C   10   -0.08526      0.99956     2.07435    0.01135     3.08526
      C   11   -0.08128      0.99954     2.07130    0.01044     3.08128
      C   12   -0.09790      0.99951     2.08903    0.00936     3.09790
      C   13   -0.04251      0.99946     2.03324    0.00980     3.04251
      C   14   -0.07880      0.99948     2.06968    0.00964     3.07880
      C   15   -0.09845      0.99951     2.08454    0.01439     3.09845
      C   16    0.01682      0.99949     1.97372    0.00996     2.98318
      C   17   -0.26978      0.99964     2.26463    0.00552     3.26978
      C   18   -0.26978      0.99964     2.26463    0.00552     3.26978
      C   19   -0.27412      0.99963     2.26899    0.00550     3.27412
      H   20    0.09915      0.00000     0.40006    0.00080     0.40085
      H   21    0.09316      0.00000     0.40601    0.00083     0.40684
      H   22    0.09414      0.00000     0.40499    0.00087     0.40586
      H   23    0.10756      0.00000     0.39150    0.00094     0.39244
      H   24    0.09931      0.00000     0.39870    0.00199     0.40069
      H   25    0.09022      0.00000     0.40830    0.00148     0.40978
      H   26    0.08910      0.00000     0.40996    0.00094     0.41090
      H   27    0.09170      0.00000     0.40621    0.00208     0.40830
      H   28    0.09006      0.00000     0.40790    0.00204     0.40994
      H   29    0.08106      0.00000     0.41750    0.00144     0.41894
      H   30    0.09572      0.00000     0.40336    0.00092     0.40428
      H   31    0.08965      0.00000     0.40940    0.00095     0.41035
      H   32    0.10197      0.00000     0.39720    0.00083     0.39803
      H   33    0.09578      0.00000     0.40330    0.00092     0.40422
      H   34    0.10225      0.00000     0.39694    0.00082     0.39775
      H   35    0.08955      0.00000     0.40949    0.00096     0.41045
      H   36    0.09145      0.00000     0.40769    0.00086     0.40855
      H   37    0.09449      0.00000     0.40470    0.00081     0.40551
      H   38    0.10542      0.00000     0.39388    0.00071     0.39458
 =======================================================================
   * Total *    0.00382     18.99189    48.77112    0.23317    67.99618

 Normal termination of Gaussian 16 at Sat Dec 12 11:12:18 2020.
