 Gaussian 16, Revision A.03,

 -----------------------------------------------------------
 # opt freq B3LYP/6-31G(d) empiricaldispersion=gd3bj scf=xqc
 -----------------------------------------------------------

 -------------------------------
 CID_148068081_JID_3061_neutraal
 -------------------------------
 Symbolic Z-matrix:
 Charge =  0 Multiplicity = 1

 SCF Done:  E(RB3LYP) =  -503.514830722     A.U. after   15 cycles
 SCF Done:  E(RB3LYP) =  -503.548312561     A.U. after   15 cycles
 SCF Done:  E(RB3LYP) =  -503.568429744     A.U. after   16 cycles
 SCF Done:  E(RB3LYP) =  -503.583250899     A.U. after   15 cycles
 SCF Done:  E(RB3LYP) =  -503.592313442     A.U. after   15 cycles
 SCF Done:  E(RB3LYP) =  -503.596373607     A.U. after   15 cycles
 SCF Done:  E(RB3LYP) =  -503.602190730     A.U. after   17 cycles
 SCF Done:  E(RB3LYP) =  -503.603167457     A.U. after   14 cycles
 SCF Done:  E(RB3LYP) =  -503.603842916     A.U. after   14 cycles
 SCF Done:  E(RB3LYP) =  -503.604098182     A.U. after   14 cycles
 SCF Done:  E(RB3LYP) =  -503.604296824     A.U. after   14 cycles
 SCF Done:  E(RB3LYP) =  -503.604302336     A.U. after   14 cycles
 SCF Done:  E(RB3LYP) =  -503.604316402     A.U. after   14 cycles
 SCF Done:  E(RB3LYP) =  -503.604316383     A.U. after    9 cycles
 SCF Done:  E(RB3LYP) =  -503.604316680     A.U. after   10 cycles
 SCF Done:  E(RB3LYP) =  -503.604316762     A.U. after    9 cycles
 Optimization completed.
    -- Stationary point found.
 Normal termination of Gaussian 16 at Wed Dec  9 22:30:49 2020.

 --------------------------------------------------------------------
 #N Geom=AllCheck Guess=TCheck SCRF=Check GenChk RB3LYP/6-31G(d) Freq
 --------------------------------------------------------------------

 Structure from the checkpoint file:  "JID_3061.chk"
 -------------------------------
 CID_148068081_JID_3061_neutraal
 -------------------------------
 Charge =  0 Multiplicity = 1

 SCF Done:  E(RB3LYP) =  -503.604316762     A.U. after    1 cycles

  Exact polarizability: 221.017 -21.919 126.246   8.162   7.913 104.123
 Approx polarizability: 318.574 -56.635 237.668   7.732  26.124 168.114

                      1                      2                      3
                      A                      A                      A
 Frequencies --     21.0359                43.8369                74.6941
 Red. masses --      3.2110                 3.5100                 3.5447
 Frc consts  --      0.0008                 0.0040                 0.0117
 IR Inten    --      0.2250                 2.2593                 1.1669

                      4                      5                      6
                      A                      A                      A
 Frequencies --     95.8699               153.7921               163.0189
 Red. masses --      3.4045                 2.7391                 3.2533
 Frc consts  --      0.0184                 0.0382                 0.0509
 IR Inten    --      0.8281                 1.0201                 1.5421

                      7                      8                      9
                      A                      A                      A
 Frequencies --    208.3927               268.5155               287.8001
 Red. masses --      3.9401                 2.8300                 3.6141
 Frc consts  --      0.1008                 0.1202                 0.1764
 IR Inten    --      3.5630                 5.3636                 1.0246

                     10                     11                     12
                      A                      A                      A
 Frequencies --    336.5414               400.4474               425.3865
 Red. masses --      2.7142                 2.1186                 3.3427
 Frc consts  --      0.1811                 0.2002                 0.3564
 IR Inten    --      0.1809                 9.3849                 6.0106

                     13                     14                     15
                      A                      A                      A
 Frequencies --    472.2966               541.3737               599.2293
 Red. masses --      3.1570                 4.3178                 2.9567
 Frc consts  --      0.4149                 0.7456                 0.6255
 IR Inten    --     35.2837                10.6738                 9.6298

                     16                     17                     18
                      A                      A                      A
 Frequencies --    616.5063               654.4006               710.0899
 Red. masses --      2.3629                 1.6249                 2.2599
 Frc consts  --      0.5291                 0.4100                 0.6714
 IR Inten    --     24.8454                29.4438                29.0842

                     19                     20                     21
                      A                      A                      A
 Frequencies --    740.4827               764.4364               794.7234
 Red. masses --      2.4794                 1.9887                 1.9404
 Frc consts  --      0.8010                 0.6847                 0.7221
 IR Inten    --     14.9614                 3.4024                12.9018

                     22                     23                     24
                      A                      A                      A
 Frequencies --    811.4093               820.8227               829.0600
 Red. masses --      1.8925                 1.7765                 1.9522
 Frc consts  --      0.7341                 0.7052                 0.7906
 IR Inten    --      5.0182                10.6925                 8.3052

                     25                     26                     27
                      A                      A                      A
 Frequencies --    889.3341               894.5262               900.3098
 Red. masses --      2.7637                 1.4066                 2.2275
 Frc consts  --      1.2879                 0.6631                 1.0638
 IR Inten    --      1.6558                37.5557                 2.3624

                     28                     29                     30
                      A                      A                      A
 Frequencies --    909.1872               943.4598               943.7958
 Red. masses --      2.2294                 2.2695                 2.0977
 Frc consts  --      1.0858                 1.1902                 1.1009
 IR Inten    --      5.1780                 2.1480                 1.5041

                     31                     32                     33
                      A                      A                      A
 Frequencies --    954.9383               962.6620               984.7720
 Red. masses --      1.4749                 1.7353                 2.4622
 Frc consts  --      0.7924                 0.9475                 1.4068
 IR Inten    --     16.3944                10.3666                10.0289

                     34                     35                     36
                      A                      A                      A
 Frequencies --    994.5617              1008.2080              1027.2382
 Red. masses --      1.3796                 1.5089                 1.9126
 Frc consts  --      0.8040                 0.9036                 1.1891
 IR Inten    --      6.1477                22.4203                29.6527

                     37                     38                     39
                      A                      A                      A
 Frequencies --   1080.4779              1100.7789              1103.1740
 Red. masses --      1.9145                 2.2074                 2.1405
 Frc consts  --      1.3168                 1.5759                 1.5348
 IR Inten    --     18.2346                 0.0898                15.1268

                     40                     41                     42
                      A                      A                      A
 Frequencies --   1129.1243              1152.8461              1206.9901
 Red. masses --      1.9829                 2.0617                 1.3519
 Frc consts  --      1.4895                 1.6144                 1.1604
 IR Inten    --     50.5831                10.3190                 3.3550

                     43                     44                     45
                      A                      A                      A
 Frequencies --   1222.3187              1237.8351              1245.3009
 Red. masses --      2.3205                 1.3044                 1.2231
 Frc consts  --      2.0427                 1.1776                 1.1175
 IR Inten    --     63.1577                 3.0128                 2.5244

                     46                     47                     48
                      A                      A                      A
 Frequencies --   1254.9272              1262.8860              1273.5601
 Red. masses --      1.6041                 1.2993                 1.4425
 Frc consts  --      1.4884                 1.2209                 1.3785
 IR Inten    --      0.2599                 2.7383                22.5743

                     49                     50                     51
                      A                      A                      A
 Frequencies --   1280.7237              1291.5857              1295.9953
 Red. masses --      1.4253                 1.3807                 1.2571
 Frc consts  --      1.3774                 1.3571                 1.2440
 IR Inten    --      9.9594                 2.1624                10.5830

                     52                     53                     54
                      A                      A                      A
 Frequencies --   1362.1981              1418.4058              1462.0437
 Red. masses --      1.3404                 2.4612                 2.3560
 Frc consts  --      1.4654                 2.9174                 2.9672
 IR Inten    --     14.5751                26.8509               184.7171

                     55                     56                     57
                      A                      A                      A
 Frequencies --   1475.6530              1497.1831              1509.9896
 Red. masses --      1.6023                 2.2751                 1.0912
 Frc consts  --      2.0558                 3.0047                 1.4658
 IR Inten    --     23.0266               108.5278                 0.8767

                     58                     59                     60
                      A                      A                      A
 Frequencies --   1516.1446              1540.1771              1642.3851
 Red. masses --      1.0880                 1.1362                 5.8675
 Frc consts  --      1.4735                 1.5879                 9.3250
 IR Inten    --      1.5448                 0.7836               216.9241

                     61                     62                     63
                      A                      A                      A
 Frequencies --   1807.9062              3051.1487              3072.4885
 Red. masses --      8.2692                 1.0612                 1.0591
 Frc consts  --     15.9245                 5.8208                 5.8908
 IR Inten    --     45.6427                45.7198                52.6647

                     64                     65                     66
                      A                      A                      A
 Frequencies --   3077.6270              3105.0319              3123.5153
 Red. masses --      1.0672                 1.1032                 1.1071
 Frc consts  --      5.9556                 6.2664                 6.3637
 IR Inten    --     20.4975                31.9236                48.3215

                     67                     68                     69
                      A                      A                      A
 Frequencies --   3130.8699              3146.8083              3154.6907
 Red. masses --      1.0844                 1.0859                 1.0883
 Frc consts  --      6.2631                 6.3353                 6.3814
 IR Inten    --      5.9255                 8.1740                12.2303

                     70                     71                     72
                      A                      A                      A
 Frequencies --   3158.3035              3160.2206              3163.5326
 Red. masses --      1.0583                 1.0921                 1.1017
 Frc consts  --      6.2194                 6.4259                 6.4964
 IR Inten    --      6.7777                24.7929                28.8998

                     73                     74                     75
                      A                      A                      A
 Frequencies --   3164.0201              3180.6298              3237.7200
 Red. masses --      1.0908                 1.0896                 1.1168
 Frc consts  --      6.4336                 6.4947                 6.8975
 IR Inten    --     33.8210                 6.6443                 6.1757

 - Thermochemistry -
 -------------------
 Temperature   298.150 Kelvin.  Pressure   1.00000 Atm.
 Atom     1 has atomic number  6 and mass  12.00000

 Molecular mass:   170.10955 amu.
 Principal axes and moments of inertia in atomic units:
                           1         2         3
     Eigenvalues --   906.007074616.974394804.46083
           X            1.00000   0.00207   0.00208
           Y           -0.00206   0.99999  -0.00490
           Z           -0.00209   0.00489   0.99999
 This molecule is an asymmetric top.
 Rotational symmetry number  1.
 Warning -- assumption of classical behavior for rotation
           may cause significant error
 Rotational temperatures (Kelvin)      0.09560     0.01876     0.01803
 Rotational constants (GHZ):           1.99197     0.39089     0.37564
 Zero-point vibrational energy     595407.6 (Joules/Mol)
                                  142.30582 (Kcal/Mol)
 Warning -- explicit consideration of  16 degrees of freedom as
           vibrations may cause significant error
 Vibrational temperatures:     30.27    63.07   107.47   137.94   221.27
          (Kelvin)            234.55   299.83   386.33   414.08   484.21
                              576.15   612.04   679.53   778.92   862.16
                              887.02   941.54  1021.66  1065.39  1099.85
                             1143.43  1167.44  1180.98  1192.83  1279.55
                             1287.02  1295.34  1308.12  1357.43  1357.91
                             1373.94  1385.06  1416.87  1430.95  1450.59
                             1477.97  1554.57  1583.78  1587.22  1624.56
                             1658.69  1736.59  1758.64  1780.97  1791.71
                             1805.56  1817.01  1832.37  1842.68  1858.30
                             1864.65  1959.90  2040.77  2103.55  2123.14
                             2154.11  2172.54  2181.39  2215.97  2363.03
                             2601.17  4389.92  4420.63  4428.02  4467.45
                             4494.04  4504.62  4527.56  4538.90  4544.09
                             4546.85  4551.62  4552.32  4576.22  4658.36

 Zero-point correction=                           0.226779 (Hartree/Particle)
 Thermal correction to Energy=                    0.238877
 Thermal correction to Enthalpy=                  0.239821
 Thermal correction to Gibbs Free Energy=         0.186870
 Sum of electronic and zero-point Energies=           -503.377538
 Sum of electronic and thermal Energies=              -503.365440
 Sum of electronic and thermal Enthalpies=            -503.364496
 Sum of electronic and thermal Free Energies=         -503.417447

                     E (Thermal)             CV                S
                      KCal/Mol        Cal/Mol-Kelvin    Cal/Mol-Kelvin
 Total                  149.898             46.619            111.446
 Electronic               0.000              0.000              0.000
 Translational            0.889              2.981             41.302
 Rotational               0.889              2.981             31.375
 Vibrational            148.120             40.657             38.769
 Vibration     1          0.593              1.985              6.534
 Vibration     2          0.595              1.980              5.078
 Vibration     3          0.599              1.966              4.026
 Vibration     4          0.603              1.952              3.537
 Vibration     5          0.619              1.898              2.625
 Vibration     6          0.623              1.888              2.514
 Vibration     7          0.642              1.828              2.058
 Vibration     8          0.673              1.731              1.606
 Vibration     9          0.685              1.696              1.487
 Vibration    10          0.717              1.603              1.228
 Vibration    11          0.766              1.469              0.961
 Vibration    12          0.787              1.415              0.874
 Vibration    13          0.829              1.312              0.731
 Vibration    14          0.896              1.159              0.562
 Vibration    15          0.957              1.033              0.451
 Vibration    16          0.976              0.997              0.422

 Optimization completed.
    -- Stationary point found.
 Normal termination of Gaussian 16 at Wed Dec  9 22:36:57 2020.

 ----------------------------------------------------------------------
 # B3LYP/6-311++G(d,p) empiricaldispersion=gd3bj scf=xqc pop=npa geom=c
 heck
 ----------------------------------------------------------------------

 ---------------------------------------
 CID_148068081_JID_3061_Energie_neutraal
 ---------------------------------------
 Structure from the checkpoint file:  "JID_3061.chk"
 Charge =  0 Multiplicity = 1

 SCF Done:  E(RB3LYP) =  -503.735252729     A.U. after   19 cycles
 Normal termination of Gaussian 16 at Wed Dec  9 22:40:02 2020.

 ----------------------------------------------------------------------
 # B3LYP/6-311++G(d,p) empiricaldispersion=gd3bj scf=xqc pop=npa geom=c
 heck
 ----------------------------------------------------------------------

 -------------------------------------
 CID_148068081_JID_3061_Energie_kation
 -------------------------------------
 Structure from the checkpoint file:  "JID_3061.chk"
 Charge =  1 Multiplicity = 2

 SCF Done:  E(UB3LYP) =  -503.495057445     A.U. after   23 cycles
 Normal termination of Gaussian 16 at Wed Dec  9 22:45:21 2020.
 Gaussian 16:  ES64L-G16RevA.03 25-Dec-2016

 ----------------------------------------------------------------------
 # B3LYP/6-311++G(d,p) empiricaldispersion=gd3bj scf=xqc pop=npa geom=c
 heck
 ----------------------------------------------------------------------

 ------------------------------------
 CID_148068081_JID_3061_Energie_anion
 ------------------------------------
 Structure from the checkpoint file:  "JID_3061.chk"
 Charge = -1 Multiplicity = 2

                         Standard orientation:
 ---------------------------------------------------------------------
 Center     Atomic      Atomic             Coordinates (Angstroms)
 Number     Number       Type             X           Y           Z
 ---------------------------------------------------------------------
      1          6           0       -3.842237    0.390972   -1.573421
      2          6           0       -3.228543    0.051067   -0.454315
      3          6           0       -2.950086    0.288418    0.974459
      4          6           0       -2.288230   -0.880775    0.241656
      5          6           0       -0.818888   -0.550525    0.282745
      6          6           0       -0.583196    0.771136    0.728283
      7          6           0       -1.807815    1.278074    1.072893
      8          6           0        0.145064   -1.557852   -0.056028
      9          6           0        1.497570   -1.418489   -0.052930
     10          6           0        2.289592   -0.201101    0.268728
     11          6           0        3.837861   -0.291566    0.314367
     12          6           0        3.903404    1.087503   -0.390879
     13          6           0        2.441735    0.878582   -0.861980
     14          1           0       -3.731310   -0.196506   -2.480977
     15          1           0       -4.474412    1.273795   -1.623646
     16          1           0       -3.743578    0.157668    1.708927
     17          1           0       -2.594202   -1.915357    0.377325
     18          1           0       -2.040454    2.337538    1.181078
     19          1           0       -0.255493   -2.522488   -0.365285
     20          1           0        2.075747   -2.286412   -0.374827
     21          1           0        1.890968    0.299809    1.150277
     22          1           0        4.310181   -0.394876    1.296569
     23          1           0        4.207924   -1.091701   -0.338792
     24          1           0        4.668825    1.226989   -1.160256
     25          1           0        3.978905    1.907306    0.330840
     26          1           0        2.393917    0.423976   -1.856958
     27          1           0        1.735608    1.707586   -0.805736
 ---------------------------------------------------------------------

 SCF Done:  E(UB3LYP) =  -503.790457912     A.U. after   23 cycles

 The electronic state is 2-A.
 Alpha  occ. eigenvalues --  -10.05204 -10.04716 -10.04404 -10.03698 -10.03666
 Alpha  occ. eigenvalues --  -10.02960 -10.02936 -10.02780 -10.01822 -10.01615
 Alpha  occ. eigenvalues --  -10.01079  -9.99876  -9.94151  -0.74905  -0.71714
 Alpha  occ. eigenvalues --   -0.64378  -0.60670  -0.56423  -0.55026  -0.52918
 Alpha  occ. eigenvalues --   -0.50822  -0.43959  -0.41548  -0.40161  -0.38779
 Alpha  occ. eigenvalues --   -0.35518  -0.35203  -0.33817  -0.32692  -0.30450
 Alpha  occ. eigenvalues --   -0.29319  -0.28429  -0.26028  -0.24753  -0.23141
 Alpha  occ. eigenvalues --   -0.21295  -0.20396  -0.19603  -0.18286  -0.17762
 Alpha  occ. eigenvalues --   -0.17136  -0.16569  -0.13329  -0.12663  -0.08166
 Alpha  occ. eigenvalues --   -0.01229   0.00335
 Alpha virt. eigenvalues --    0.08540   0.09203   0.09986   0.10454   0.10655
 Alpha virt. eigenvalues --    0.11140   0.11757   0.12486   0.13186   0.13517
 Alpha virt. eigenvalues --    0.13737   0.13770   0.14739   0.14908   0.15215

  Beta  occ. eigenvalues --  -10.05055 -10.04716 -10.04394 -10.03723 -10.03697
  Beta  occ. eigenvalues --  -10.02977 -10.02948 -10.02706 -10.01822 -10.01280
  Beta  occ. eigenvalues --  -10.00460  -9.99329  -9.94300  -0.74566  -0.71586
  Beta  occ. eigenvalues --   -0.63789  -0.60239  -0.55997  -0.54405  -0.52829
  Beta  occ. eigenvalues --   -0.50448  -0.43675  -0.41293  -0.39816  -0.38366
  Beta  occ. eigenvalues --   -0.35338  -0.35083  -0.33660  -0.32451  -0.30261
  Beta  occ. eigenvalues --   -0.29195  -0.28153  -0.25990  -0.24439  -0.22741
  Beta  occ. eigenvalues --   -0.20999  -0.19918  -0.19147  -0.17868  -0.17576
  Beta  occ. eigenvalues --   -0.16806  -0.15850  -0.12840  -0.12050  -0.06415
  Beta  occ. eigenvalues --   -0.00722
  Beta virt. eigenvalues --    0.07630   0.08529   0.09216   0.10009   0.10460
  Beta virt. eigenvalues --    0.10668   0.11147   0.11758   0.12475   0.13232
  Beta virt. eigenvalues --    0.13561   0.13788   0.13875   0.14732   0.14981

 Mulliken charges and spin densities:
               1          2
     1  C    0.060863   0.003535
     2  C    0.081621   0.028577
     3  C   -0.358096   0.015579
     4  C   -0.175532  -0.036487
     5  C    0.545524   0.504258
     6  C   -0.647298  -0.226258
     7  C   -0.469009   0.501350
     8  C   -0.658952  -0.215251
     9  C   -0.515330   0.469392
    10  C    0.762036  -0.101756
    11  C   -0.472268   0.023483
    12  C   -0.206481   0.009474
    13  C   -0.581023   0.002282
    14  H    0.095441   0.004082
    15  H    0.075688   0.013301
    16  H    0.150187   0.022524
    17  H    0.164464   0.004243
    18  H    0.119408  -0.021474
    19  H    0.101450   0.010216
    20  H    0.102126  -0.030805
    21  H    0.169221   0.014025
    22  H    0.105430  -0.001230
    23  H    0.091520  -0.001731
    24  H    0.103873   0.000677
    25  H    0.108354  -0.001240
    26  H    0.125892   0.000882
    27  H    0.120892   0.008351
 Sum of Mulliken charges =  -1.00000   1.00000

 Dipole moment (field-independent basis, Debye):
    X=              1.7517    Y=             -1.8955    Z=             -1.1417  Tot=              2.8222
 Quadrupole moment (field-independent basis, Debye-Ang):
   XX=           -112.3349   YY=            -91.2281   ZZ=            -91.1566
   XY=              1.6557   XZ=             -2.2780   YZ=             -0.8139

 Summary of Natural Population Analysis:

                                       Natural Population
                Natural  -----------------------------------------------
    Atom  No    Charge         Core      Valence    Rydberg      Total
 -----------------------------------------------------------------------
      C    1   -0.23007      0.99948     2.22355    0.00704     3.23007
      C    2    0.05378      0.99954     1.93353    0.01315     2.94622
      C    3   -0.15108      0.99954     2.14006    0.01148     3.15108
      C    4   -0.15307      0.99953     2.14230    0.01124     3.15307
      C    5    0.14855      0.99952     1.83769    0.01424     2.85145
      C    6   -0.24395      0.99947     2.22251    0.02197     3.24395
      C    7    0.05500      0.99957     1.93475    0.01069     2.94500
      C    8   -0.17617      0.99950     2.16740    0.00927     3.17617
      C    9    0.08104      0.99955     1.91042    0.00899     2.91896
      C   10   -0.14808      0.99959     2.13463    0.01385     3.14808
      C   11   -0.18164      0.99964     2.17565    0.00635     3.18164
      C   12   -0.19439      0.99966     2.18870    0.00603     3.19439
      C   13   -0.16581      0.99963     2.15913    0.00704     3.16581
      H   14    0.09098      0.00000     0.40762    0.00140     0.40902
      H   15    0.09071      0.00000     0.40786    0.00143     0.40929
      H   16    0.10546      0.00000     0.39293    0.00160     0.39454
      H   17    0.10348      0.00000     0.39524    0.00127     0.39652
      H   18    0.07640      0.00000     0.42235    0.00125     0.42360
      H   19    0.08713      0.00000     0.41135    0.00152     0.41287
      H   20    0.07490      0.00000     0.42402    0.00108     0.42510
      H   21    0.12636      0.00000     0.37175    0.00189     0.37364
      H   22    0.08834      0.00000     0.41075    0.00091     0.41166
      H   23    0.08686      0.00000     0.41184    0.00129     0.41314
      H   24    0.08521      0.00000     0.41357    0.00122     0.41479
      H   25    0.09161      0.00000     0.40718    0.00122     0.40839
      H   26    0.08723      0.00000     0.41170    0.00107     0.41277
      H   27    0.11122      0.00000     0.38769    0.00110     0.38878
 =======================================================================
   * Total *    0.00000     12.99420    32.84620    0.15960    46.00000

 Normal termination of Gaussian 16 at Wed Dec  9 22:50:19 2020.
