 Gaussian 16, Revision A.03,

 -----------------------------------------------------------
 # opt freq B3LYP/6-31G(d) empiricaldispersion=gd3bj scf=xqc
 -----------------------------------------------------------

 ------------------------------
 CID_69988329_JID_1677_neutraal
 ------------------------------
 Symbolic Z-matrix:
 Charge =  0 Multiplicity = 1

 SCF Done:  E(RB3LYP) =  -516.705502817     A.U. after   15 cycles
 SCF Done:  E(RB3LYP) =  -516.708422187     A.U. after   12 cycles
 SCF Done:  E(RB3LYP) =  -516.708577587     A.U. after   12 cycles
 SCF Done:  E(RB3LYP) =  -516.708739649     A.U. after   11 cycles
 SCF Done:  E(RB3LYP) =  -516.708766287     A.U. after    9 cycles
 SCF Done:  E(RB3LYP) =  -516.708772997     A.U. after   10 cycles
 SCF Done:  E(RB3LYP) =  -516.708774415     A.U. after    9 cycles
 SCF Done:  E(RB3LYP) =  -516.708774682     A.U. after    8 cycles
 Optimization completed.
    -- Stationary point found.
 Normal termination of Gaussian 16 at Tue Dec  8 20:46:50 2020.

 --------------------------------------------------------------------
 #N Geom=AllCheck Guess=TCheck SCRF=Check GenChk RB3LYP/6-31G(d) Freq
 --------------------------------------------------------------------

 Structure from the checkpoint file:  "JID_1677.chk"
 ------------------------------
 CID_69988329_JID_1677_neutraal
 ------------------------------
 Charge =  0 Multiplicity = 1

 SCF Done:  E(RB3LYP) =  -516.708774682     A.U. after    1 cycles

  Exact polarizability: 125.141 -10.914  93.831   2.850  -2.775  61.425
 Approx polarizability: 182.948 -17.347 132.773   3.444  -6.661  96.555

                      1                      2                      3
                      A                      A                      A
 Frequencies --     78.2291               105.3188               201.0906
 Red. masses --      4.3415                 4.1433                 2.4520
 Frc consts  --      0.0157                 0.0271                 0.0584
 IR Inten    --      3.5317                 0.4355                 0.4468

                      4                      5                      6
                      A                      A                      A
 Frequencies --    242.9282               281.3046               300.2931
 Red. masses --      3.1476                 3.4370                 2.7077
 Frc consts  --      0.1094                 0.1602                 0.1439
 IR Inten    --      0.3781                 7.9745                 2.3482

                      7                      8                      9
                      A                      A                      A
 Frequencies --    353.1923               393.1331               437.1934
 Red. masses --      2.2041                 6.6435                 3.8893
 Frc consts  --      0.1620                 0.6050                 0.4380
 IR Inten    --      4.3588                 3.3955                 9.1937

                     10                     11                     12
                      A                      A                      A
 Frequencies --    496.0133               528.9744               555.9133
 Red. masses --      4.7478                 2.8476                 2.7128
 Frc consts  --      0.6882                 0.4695                 0.4939
 IR Inten    --      5.2948                11.0991                 6.6730

                     13                     14                     15
                      A                      A                      A
 Frequencies --    619.0411               644.3920               691.8105
 Red. masses --      2.9790                 2.9604                 1.6601
 Frc consts  --      0.6726                 0.7243                 0.4681
 IR Inten    --      5.5220                16.7777                69.4540

                     16                     17                     18
                      A                      A                      A
 Frequencies --    749.9478               768.5762               810.0207
 Red. masses --      2.8316                 2.9909                 1.3599
 Frc consts  --      0.9383                 1.0409                 0.5257
 IR Inten    --      1.6793                 0.7159                32.0071

                     19                     20                     21
                      A                      A                      A
 Frequencies --    869.2621               899.1169               937.1178
 Red. masses --      3.1550                 2.6240                 2.8253
 Frc consts  --      1.4046                 1.2498                 1.4619
 IR Inten    --      9.9406                 7.5909                 7.5161

                     22                     23                     24
                      A                      A                      A
 Frequencies --    959.8097              1017.2277              1031.4248
 Red. masses --      1.6381                 1.9858                 2.1170
 Frc consts  --      0.8891                 1.2107                 1.3269
 IR Inten    --      4.2521                11.0757                15.0668

                     25                     26                     27
                      A                      A                      A
 Frequencies --   1046.5493              1094.0380              1111.3879
 Red. masses --      1.8802                 2.2829                 2.5694
 Frc consts  --      1.2133                 1.6099                 1.8699
 IR Inten    --      2.2947                 4.0231                 6.0440

                     28                     29                     30
                      A                      A                      A
 Frequencies --   1121.1027              1173.5531              1199.7443
 Red. masses --      2.3967                 5.0978                 1.3912
 Frc consts  --      1.7748                 4.1365                 1.1798
 IR Inten    --      3.4557                53.5110                 2.2115

                     31                     32                     33
                      A                      A                      A
 Frequencies --   1240.7447              1248.1579              1260.8815
 Red. masses --      1.3391                 1.5793                 1.2363
 Frc consts  --      1.2146                 1.4497                 1.1580
 IR Inten    --     56.1169                23.0137                21.9335

                     34                     35                     36
                      A                      A                      A
 Frequencies --   1311.4805              1322.9193              1338.2020
 Red. masses --      1.3466                 1.2647                 1.6360
 Frc consts  --      1.3647                 1.3041                 1.7261
 IR Inten    --     20.6273                13.7253               105.8366

                     37                     38                     39
                      A                      A                      A
 Frequencies --   1350.7703              1379.5722              1391.4060
 Red. masses --      1.5012                 1.6231                 1.3678
 Frc consts  --      1.6138                 1.8201                 1.5602
 IR Inten    --     19.9234                76.2121                 3.3246

                     40                     41                     42
                      A                      A                      A
 Frequencies --   1404.1147              1422.9277              1441.2960
 Red. masses --      1.7116                 2.5326                 1.4701
 Frc consts  --      1.9882                 3.0213                 1.7993
 IR Inten    --     26.7092                65.1447                11.0187

                     43                     44                     45
                      A                      A                      A
 Frequencies --   1479.1395              1497.6702              1520.7122
 Red. masses --      1.7693                 1.1338                 1.0843
 Frc consts  --      2.2808                 1.4984                 1.4773
 IR Inten    --     44.3574                 3.5579                 1.2699

                     46                     47                     48
                      A                      A                      A
 Frequencies --   1526.8540              1533.4464              1755.7711
 Red. masses --      1.0938                 1.0984                 7.2077
 Frc consts  --      1.5024                 1.5217                13.0914
 IR Inten    --      0.8807                 3.3531                87.2133

                     49                     50                     51
                      A                      A                      A
 Frequencies --   1804.2934              2948.6732              2987.2734
 Red. masses --      8.8204                 1.0741                 1.0713
 Frc consts  --     16.9182                 5.5025                 5.6325
 IR Inten    --    487.8782                90.3135                44.3074

                     52                     53                     54
                      A                      A                      A
 Frequencies --   3018.2817              3045.3488              3051.4175
 Red. masses --      1.0814                 1.0679                 1.0641
 Frc consts  --      5.8041                 5.8354                 5.8376
 IR Inten    --     19.1410                13.2248                33.8298

                     55                     56                     57
                      A                      A                      A
 Frequencies --   3068.9584              3091.5626              3111.6616
 Red. masses --      1.0876                 1.1020                 1.0943
 Frc consts  --      6.0352                 6.2058                 6.2429
 IR Inten    --     42.3066                24.5821                45.2844

                     58                     59                     60
                      A                      A                      A
 Frequencies --   3125.6555              3171.0795              3577.7182
 Red. masses --      1.0944                 1.0903                 1.0760
 Frc consts  --      6.2993                 6.4598                 8.1144
 IR Inten    --     14.0158                16.3849                15.5782

 - Thermochemistry -
 -------------------
 Temperature   298.150 Kelvin.  Pressure   1.00000 Atm.
 Atom     1 has atomic number  6 and mass  12.00000

 Molecular mass:   153.07898 amu.
 Principal axes and moments of inertia in atomic units:
                           1         2         3
     Eigenvalues --   714.753212320.610342926.55757
           X            0.99965  -0.02579   0.00623
           Y            0.02579   0.99967   0.00019
           Z           -0.00623  -0.00003   0.99998
 This molecule is an asymmetric top.
 Rotational symmetry number  1.
 Warning -- assumption of classical behavior for rotation
           may cause significant error
 Rotational temperatures (Kelvin)      0.12118     0.03732     0.02960
 Rotational constants (GHZ):           2.52499     0.77770     0.61668
 Zero-point vibrational energy     491340.4 (Joules/Mol)
                                  117.43317 (Kcal/Mol)
 Warning -- explicit consideration of  13 degrees of freedom as
           vibrations may cause significant error
 Vibrational temperatures:    112.55   151.53   289.32   349.52   404.73
          (Kelvin)            432.05   508.16   565.63   629.02   713.65
                              761.08   799.84   890.66   927.14   995.36
                             1079.01  1105.81  1165.44  1250.67  1293.63
                             1348.30  1380.95  1463.56  1483.99  1505.75
                             1574.08  1599.04  1613.02  1688.48  1726.16
                             1785.15  1795.82  1814.13  1886.93  1903.39
                             1925.37  1943.46  1984.90  2001.92  2020.21
                             2047.28  2073.70  2128.15  2154.81  2187.97
                             2196.80  2206.29  2526.16  2595.98  4242.48
                             4298.02  4342.63  4381.58  4390.31  4415.55
                             4448.07  4476.99  4497.12  4562.48  5147.54

 Zero-point correction=                           0.187142 (Hartree/Particle)
 Thermal correction to Energy=                    0.196175
 Thermal correction to Enthalpy=                  0.197119
 Thermal correction to Gibbs Free Energy=         0.152913
 Sum of electronic and zero-point Energies=           -516.521633
 Sum of electronic and thermal Energies=              -516.512600
 Sum of electronic and thermal Enthalpies=            -516.511656
 Sum of electronic and thermal Free Energies=         -516.555862

                     E (Thermal)             CV                S
                      KCal/Mol        Cal/Mol-Kelvin    Cal/Mol-Kelvin
 Total                  123.101             35.918             93.040
 Electronic               0.000              0.000              0.000
 Translational            0.889              2.981             40.987
 Rotational               0.889              2.981             29.963
 Vibrational            121.324             29.957             22.089
 Vibration     1          0.600              1.964              3.935
 Vibration     2          0.605              1.945              3.353
 Vibration     3          0.638              1.838              2.123
 Vibration     4          0.659              1.774              1.781
 Vibration     5          0.681              1.708              1.526
 Vibration     6          0.693              1.673              1.415
 Vibration     7          0.729              1.569              1.152
 Vibration     8          0.760              1.485              0.988
 Vibration     9          0.798              1.389              0.835
 Vibration    10          0.852              1.259              0.668
 Vibration    11          0.884              1.186              0.589
 Vibration    12          0.911              1.127              0.532
 Vibration    13          0.979              0.992              0.418

                           ! Non-Optimized Parameters !
 Normal termination of Gaussian 16 at Tue Dec  8 20:51:56 2020.

 ----------------------------------------------------------------------
 # B3LYP/6-311++G(d,p) empiricaldispersion=gd3bj scf=xqc pop=npa geom=c
 heck
 ----------------------------------------------------------------------

 --------------------------------------
 CID_69988329_JID_1677_Energie_neutraal
 --------------------------------------
 Structure from the checkpoint file:  "JID_1677.chk"
 Charge =  0 Multiplicity = 1

 SCF Done:  E(RB3LYP) =  -516.858451284     A.U. after   14 cycles
 Normal termination of Gaussian 16 at Tue Dec  8 20:55:17 2020.

 ----------------------------------------------------------------------
 # B3LYP/6-311++G(d,p) empiricaldispersion=gd3bj scf=xqc pop=npa geom=c
 heck
 ----------------------------------------------------------------------

 ------------------------------------
 CID_69988329_JID_1677_Energie_kation
 ------------------------------------
 Structure from the checkpoint file:  "JID_1677.chk"
 Charge =  1 Multiplicity = 2

 SCF Done:  E(UB3LYP) =  -516.556008878     A.U. after   23 cycles
 Normal termination of Gaussian 16 at Tue Dec  8 21:01:01 2020.
 Gaussian 16:  ES64L-G16RevA.03 25-Dec-2016

 ----------------------------------------------------------------------
 # B3LYP/6-311++G(d,p) empiricaldispersion=gd3bj scf=xqc pop=npa geom=c
 heck
 ----------------------------------------------------------------------

 -----------------------------------
 CID_69988329_JID_1677_Energie_anion
 -----------------------------------
 Structure from the checkpoint file:  "JID_1677.chk"
 Charge = -1 Multiplicity = 2

                         Standard orientation:
 ---------------------------------------------------------------------
 Center     Atomic      Atomic             Coordinates (Angstroms)
 Number     Number       Type             X           Y           Z
 ---------------------------------------------------------------------
      1          6           0       -0.706650    1.613185    0.377749
      2          6           0       -2.070589    1.144644   -0.136783
      3          6           0       -2.262280   -0.361342   -0.042133
      4          8           0       -3.360569   -0.893519    0.003788
      5          7           0       -1.106920   -1.117311   -0.025929
      6          6           0        0.219838   -0.663557   -0.050824
      7          6           0        1.264317   -1.477728    0.150025
      8          6           0        2.681860   -0.975210    0.104433
      9          8           0        2.792698    0.354784   -0.380235
     10          6           0        1.808695    1.211163    0.172068
     11          6           0        0.409827    0.813837   -0.302868
     12          1           0       -0.576010    2.684820    0.188657
     13          1           0       -0.648473    1.468483    1.464572
     14          1           0       -2.189086    1.420952   -1.193534
     15          1           0       -2.901424    1.605946    0.403602
     16          1           0       -1.271757   -2.113819    0.065129
     17          1           0        1.118898   -2.534033    0.368729
     18          1           0        3.291929   -1.588108   -0.570023
     19          1           0        3.140508   -1.049625    1.108347
     20          1           0        1.846101    1.190061    1.274492
     21          1           0        2.058235    2.223026   -0.159927
     22          1           0        0.352378    0.993404   -1.386962
 ---------------------------------------------------------------------

 SCF Done:  E(UB3LYP) =  -516.845185891     A.U. after   33 cycles
 SCF Done:  E(UB3LYP) =  -516.845185892     a.u. after    1 cycles

 The electronic state is 2-A.
 Alpha  occ. eigenvalues --  -19.02572 -18.99353 -14.25028 -10.17851 -10.12053
 Alpha  occ. eigenvalues --  -10.11630 -10.11625 -10.08397 -10.08127 -10.07720
 Alpha  occ. eigenvalues --  -10.06258  -0.94585  -0.94174  -0.84424  -0.71926
 Alpha  occ. eigenvalues --   -0.68792  -0.65599  -0.57063  -0.55361  -0.53298
 Alpha  occ. eigenvalues --   -0.47456  -0.45786  -0.42245  -0.38888  -0.37338
 Alpha  occ. eigenvalues --   -0.36559  -0.34817  -0.34310  -0.33329  -0.32042
 Alpha  occ. eigenvalues --   -0.30985  -0.30532  -0.28313  -0.27590  -0.24609
 Alpha  occ. eigenvalues --   -0.24104  -0.21838  -0.21422  -0.16405  -0.16144
 Alpha  occ. eigenvalues --   -0.11828   0.04573
 Alpha virt. eigenvalues --    0.06597   0.07941   0.08396   0.09019   0.09534
 Alpha virt. eigenvalues --    0.09856   0.10436   0.11200   0.12169   0.12599
 Alpha virt. eigenvalues --    0.13687   0.13873   0.15057   0.15600   0.16395

  Beta  occ. eigenvalues --  -19.02567 -18.99349 -14.25006 -10.17852 -10.12032
  Beta  occ. eigenvalues --  -10.11627 -10.11598 -10.08379 -10.08103 -10.07682
  Beta  occ. eigenvalues --  -10.06222  -0.94574  -0.94159  -0.84391  -0.71877
  Beta  occ. eigenvalues --   -0.68743  -0.65548  -0.57004  -0.55310  -0.53208
  Beta  occ. eigenvalues --   -0.47395  -0.45713  -0.42192  -0.38858  -0.37298
  Beta  occ. eigenvalues --   -0.36509  -0.34767  -0.34256  -0.33296  -0.31997
  Beta  occ. eigenvalues --   -0.30938  -0.30472  -0.28269  -0.27545  -0.24551
  Beta  occ. eigenvalues --   -0.24056  -0.21804  -0.21390  -0.16372  -0.16118
  Beta  occ. eigenvalues --   -0.11754
  Beta virt. eigenvalues --    0.07164   0.08023   0.08606   0.08934   0.09172
  Beta virt. eigenvalues --    0.10114   0.10660   0.11043   0.11558   0.12619
  Beta virt. eigenvalues --    0.13103   0.13896   0.14099   0.15103   0.15656

 Mulliken charges and spin densities:
               1          2
     1  C    0.693346  -0.988561
     2  C    0.026458  -0.412510
     3  C    0.217269  -0.193021
     4  O   -0.378138   0.027628
     5  N   -0.182519   0.057973
     6  C    2.866913  -2.937648
     7  C   -1.844306   1.447524
     8  C    2.538548  -3.062157
     9  O   -0.184689   0.074714
    10  C    0.651892  -1.248838
    11  C   -2.375142   3.172432
    12  H   -0.703832   0.880857
    13  H   -0.100664   0.254209
    14  H   -0.197350   0.392246
    15  H   -0.051517   0.251210
    16  H    0.143623   0.171724
    17  H   -1.372146   1.527188
    18  H   -0.129528   0.288516
    19  H   -0.167020   0.312777
    20  H   -0.001562   0.131979
    21  H   -0.328185   0.526209
    22  H   -0.121450   0.325550
 Sum of Mulliken charges =  -1.00000   1.00000

 Dipole moment (field-independent basis, Debye):
    X=              0.0329    Y=              0.1043    Z=              0.6519  Tot=              0.6610
 Quadrupole moment (field-independent basis, Debye-Ang):
   XX=           -121.6120   YY=           -119.4967   ZZ=            -92.3770
   XY=              1.2785   XZ=             -0.1688   YZ=              3.6910

 Summary of Natural Population Analysis:

                                       Natural Population
                Natural  -----------------------------------------------
    Atom  No    Charge         Core      Valence    Rydberg      Total
 -----------------------------------------------------------------------
      C    1   -0.18929      0.99962     2.17980    0.00987     3.18929
      C    2   -0.23159      0.99959     2.22277    0.00923     3.23159
      C    3    0.34881      0.99967     1.63003    0.02149     2.65119
      O    4   -0.32127      0.99988     3.31531    0.00608     4.32127
      N    5   -0.30519      0.99963     2.79571    0.00984     3.80519
      C    6    0.09012      0.99943     1.89725    0.01320     2.90988
      C    7   -0.13327      0.99948     2.12428    0.00951     3.13327
      C    8   -0.01412      0.99957     2.00071    0.01384     3.01412
      O    9   -0.29657      0.99989     3.28722    0.00946     4.29657
      C   10   -0.00131      0.99956     1.98878    0.01296     3.00131
      C   11   -0.13534      0.99955     2.12451    0.01128     3.13534
      H   12    0.10830      0.00000     0.38810    0.00360     0.39170
      H   13    0.09746      0.00000     0.40083    0.00172     0.40254
      H   14    0.11271      0.00000     0.38571    0.00157     0.38729
      H   15    0.11300      0.00000     0.38604    0.00096     0.38700
      H   16    0.19883      0.00000     0.29807    0.00309     0.30117
      H   17    0.10236      0.00000     0.39391    0.00372     0.39764
      H   18    0.09357      0.00000     0.40485    0.00158     0.40643
      H   19    0.08131      0.00000     0.41693    0.00177     0.41869
      H   20    0.07838      0.00000     0.41994    0.00168     0.42162
      H   21    0.09500      0.00000     0.40318    0.00182     0.40500
      H   22    0.10808      0.00000     0.38978    0.00214     0.39192
 =======================================================================
   * Total *    0.00000     10.99586    29.85371    0.15042    41.00000

 Normal termination of Gaussian 16 at Tue Dec  8 21:08:30 2020.
