 Gaussian 16, Revision A.03,

 -----------------------------------------------------------
 # opt freq B3LYP/6-31G(d) empiricaldispersion=gd3bj scf=xqc
 -----------------------------------------------------------

 ------------------------------
 CID_77130161_JID_7234_neutraal
 ------------------------------
 Symbolic Z-matrix:
 Charge =  0 Multiplicity = 1

 SCF Done:  E(RB3LYP) =  -747.538375873     A.U. after   14 cycles
 SCF Done:  E(RB3LYP) =  -747.543569661     A.U. after   12 cycles
 SCF Done:  E(RB3LYP) =  -747.544335264     A.U. after   12 cycles
 SCF Done:  E(RB3LYP) =  -747.544564305     A.U. after   11 cycles
 SCF Done:  E(RB3LYP) =  -747.544725148     A.U. after   11 cycles
 SCF Done:  E(RB3LYP) =  -747.544815991     A.U. after   11 cycles
 SCF Done:  E(RB3LYP) =  -747.544834616     A.U. after   11 cycles
 SCF Done:  E(RB3LYP) =  -747.544845312     A.U. after   11 cycles
 SCF Done:  E(RB3LYP) =  -747.544851095     A.U. after   10 cycles
 SCF Done:  E(RB3LYP) =  -747.544851981     A.U. after    8 cycles
 SCF Done:  E(RB3LYP) =  -747.544852274     A.U. after    7 cycles
 SCF Done:  E(RB3LYP) =  -747.544852320     A.U. after    7 cycles
 SCF Done:  E(RB3LYP) =  -747.544852350     A.U. after    6 cycles
 Optimization completed.
    -- Stationary point found.
 Normal termination of Gaussian 16 at Fri Dec 11 11:56:37 2020.

 --------------------------------------------------------------------
 #N Geom=AllCheck Guess=TCheck SCRF=Check GenChk RB3LYP/6-31G(d) Freq
 --------------------------------------------------------------------

 Structure from the checkpoint file:  "JID_7234.chk"
 ------------------------------
 CID_77130161_JID_7234_neutraal
 ------------------------------
 Charge =  0 Multiplicity = 1

 SCF Done:  E(RB3LYP) =  -747.544852350     A.U. after    1 cycles

  Exact polarizability: 239.392  -2.102 148.642  -7.088  -2.457 105.831
 Approx polarizability: 289.012  -2.721 247.157 -10.934  -8.560 163.958

                      1                      2                      3
                      A                      A                      A
 Frequencies --     23.2574                34.9860                63.6332
 Red. masses --      3.7938                 4.5745                 3.3017
 Frc consts  --      0.0012                 0.0033                 0.0079
 IR Inten    --      0.2353                 0.1213                 1.4546

                      4                      5                      6
                      A                      A                      A
 Frequencies --     72.0083               100.4554               141.6428
 Red. masses --      4.0622                 5.1738                 3.5362
 Frc consts  --      0.0124                 0.0308                 0.0418
 IR Inten    --      0.4700                 0.3040                 2.7031

                      7                      8                      9
                      A                      A                      A
 Frequencies --    183.6358               213.4521               228.3638
 Red. masses --      3.3787                 3.3545                 3.2853
 Frc consts  --      0.0671                 0.0900                 0.1009
 IR Inten    --      4.1627                 0.1785                 2.4293

                     10                     11                     12
                      A                      A                      A
 Frequencies --    244.6090               249.8991               281.8720
 Red. masses --      1.3359                 3.8681                 1.6048
 Frc consts  --      0.0471                 0.1423                 0.0751
 IR Inten    --      0.2883                 2.6259                 5.7741

                     13                     14                     15
                      A                      A                      A
 Frequencies --    301.8684               313.8802               353.0166
 Red. masses --      1.5695                 1.6669                 2.4898
 Frc consts  --      0.0843                 0.0968                 0.1828
 IR Inten    --     26.8488                52.2046                 2.7736

                     16                     17                     18
                      A                      A                      A
 Frequencies --    359.9433               384.6403               416.9778
 Red. masses --      2.6816                 2.9152                 2.1506
 Frc consts  --      0.2047                 0.2541                 0.2203
 IR Inten    --      1.8956                25.4847                 9.1628

                     19                     20                     21
                      A                      A                      A
 Frequencies --    421.0767               427.4663               446.0939
 Red. masses --      2.1837                 2.1784                 1.9927
 Frc consts  --      0.2281                 0.2345                 0.2336
 IR Inten    --     30.6926                27.6253                38.2669

                     22                     23                     24
                      A                      A                      A
 Frequencies --    481.8083               505.4410               522.1242
 Red. masses --      3.3481                 2.7165                 3.3577
 Frc consts  --      0.4579                 0.4089                 0.5393
 IR Inten    --      4.2923                 0.4389                10.0149

                     25                     26                     27
                      A                      A                      A
 Frequencies --    557.6090               605.4236               656.1621
 Red. masses --      2.7407                 2.6222                 6.9182
 Frc consts  --      0.5021                 0.5663                 1.7550
 IR Inten    --      5.8320                 5.3853                 0.1652

                     28                     29                     30
                      A                      A                      A
 Frequencies --    681.5910               720.6410               767.8548
 Red. masses --      3.0369                 2.7912                 4.0164
 Frc consts  --      0.8313                 0.8540                 1.3952
 IR Inten    --      8.0349                 5.2989                 5.3025

                     31                     32                     33
                      A                      A                      A
 Frequencies --    797.6619               806.2264               839.2242
 Red. masses --      3.9256                 2.7148                 1.3258
 Frc consts  --      1.4716                 1.0397                 0.5501
 IR Inten    --      7.0849                15.1909                 0.3537

                     34                     35                     36
                      A                      A                      A
 Frequencies --    851.7834               880.9844               886.1284
 Red. masses --      1.7057                 1.5625                 2.8075
 Frc consts  --      0.7292                 0.7145                 1.2988
 IR Inten    --     24.4587                 5.0817                38.5054

                     37                     38                     39
                      A                      A                      A
 Frequencies --    949.3307               957.2630               961.1253
 Red. masses --      2.5749                 1.6249                 1.5269
 Frc consts  --      1.3672                 0.8773                 0.8310
 IR Inten    --     24.1361                 6.9102                 7.3389

                     40                     41                     42
                      A                      A                      A
 Frequencies --    967.9742               982.9738               988.7330
 Red. masses --      1.5146                 1.3136                 2.3398
 Frc consts  --      0.8362                 0.7478                 1.3477
 IR Inten    --     32.0358                34.7973                90.7707

                     43                     44                     45
                      A                      A                      A
 Frequencies --   1032.8828              1038.7251              1080.5722
 Red. masses --      2.5294                 2.6978                 2.1691
 Frc consts  --      1.5899                 1.7150                 1.4922
 IR Inten    --     32.7581                14.0196                 2.9932

                     46                     47                     48
                      A                      A                      A
 Frequencies --   1090.9786              1097.1424              1105.8640
 Red. masses --      1.6274                 4.8655                 1.7728
 Frc consts  --      1.1412                 3.4507                 1.2773
 IR Inten    --      4.1162                49.2966                 5.7892

                     49                     50                     51
                      A                      A                      A
 Frequencies --   1106.3388              1117.1728              1155.2607
 Red. masses --      1.5927                 1.7063                 1.4688
 Frc consts  --      1.1485                 1.2548                 1.1550
 IR Inten    --     18.5007                 0.4014                 5.6372

                     52                     53                     54
                      A                      A                      A
 Frequencies --   1180.9856              1187.7416              1191.0899
 Red. masses --      1.5702                 2.7468                 1.8634
 Frc consts  --      1.2903                 2.2831                 1.5575
 IR Inten    --     60.9148                23.8131                14.2114

                     55                     56                     57
                      A                      A                      A
 Frequencies --   1191.7690              1212.0873              1229.8325
 Red. masses --      1.8504                 1.4533                 1.1989
 Frc consts  --      1.5485                 1.2579                 1.0684
 IR Inten    --     45.8932                 2.7973                18.8872

                     58                     59                     60
                      A                      A                      A
 Frequencies --   1242.6482              1248.2437              1268.2211
 Red. masses --      1.0865                 1.6518                 2.1479
 Frc consts  --      0.9885                 1.5164                 2.0355
 IR Inten    --      8.9150                 2.0992                41.1203

                     61                     62                     63
                      A                      A                      A
 Frequencies --   1278.2395              1320.9311              1336.6007
 Red. masses --      1.6997                 1.5481                 1.7914
 Frc consts  --      1.6362                 1.5915                 1.8856
 IR Inten    --    156.2271                11.8693                38.9983

                     64                     65                     66
                      A                      A                      A
 Frequencies --   1344.6273              1353.2469              1357.4815
 Red. masses --      1.4306                 3.0739                 1.5391
 Frc consts  --      1.5239                 3.3166                 1.6710
 IR Inten    --     22.0451                 3.0305                 1.5816

                     67                     68                     69
                      A                      A                      A
 Frequencies --   1385.9849              1394.5209              1395.4028
 Red. masses --      1.3071                 1.7688                 1.3146
 Frc consts  --      1.4794                 2.0267                 1.5081
 IR Inten    --      3.2257                21.4910                 5.2095

                     70                     71                     72
                      A                      A                      A
 Frequencies --   1417.1095              1424.9367              1431.5297
 Red. masses --      1.4632                 1.3055                 1.4350
 Frc consts  --      1.7312                 1.5618                 1.7327
 IR Inten    --     10.6046                32.8758               108.6196

                     73                     74                     75
                      A                      A                      A
 Frequencies --   1443.0425              1445.1570              1468.1728
 Red. masses --      1.4426                 1.4684                 2.9337
 Frc consts  --      1.7700                 1.8069                 3.7258
 IR Inten    --     34.2515                13.7627                 5.3332

                     76                     77                     78
                      A                      A                      A
 Frequencies --   1484.5091              1511.5527              1515.5157
 Red. masses --      1.2001                 1.0812                 1.0527
 Frc consts  --      1.5583                 1.4554                 1.4246
 IR Inten    --      0.5839                 0.7498                23.3722

                     79                     80                     81
                      A                      A                      A
 Frequencies --   1517.0283              1527.3141              1533.1107
 Red. masses --      1.0889                 1.1093                 1.0895
 Frc consts  --      1.4764                 1.5246                 1.5088
 IR Inten    --      0.5484                43.1895                 1.4228

                     82                     83                     84
                      A                      A                      A
 Frequencies --   1536.1856              1537.5645              1567.1851
 Red. masses --      1.0528                 1.1178                 2.4645
 Frc consts  --      1.4638                 1.5569                 3.5663
 IR Inten    --      3.8696                 6.3454               117.0768

                     85                     86                     87
                      A                      A                      A
 Frequencies --   1621.8036              1677.2398              1701.5986
 Red. masses --      6.2783                 5.5104                 1.0946
 Frc consts  --      9.7294                 9.1332                 1.8674
 IR Inten    --     12.5751                75.4729                29.4010

                     88                     89                     90
                      A                      A                      A
 Frequencies --   2923.0830              2928.3359              2943.6596
 Red. masses --      1.0731                 1.0692                 1.0643
 Frc consts  --      5.4020                 5.4020                 5.4336
 IR Inten    --     32.3439                26.2354               143.3440

                     91                     92                     93
                      A                      A                      A
 Frequencies --   2965.4372              2977.4874              3011.3160
 Red. masses --      1.0716                 1.0732                 1.0684
 Frc consts  --      5.5523                 5.6058                 5.7083
 IR Inten    --     50.3767                94.6440                45.0541

                     94                     95                     96
                      A                      A                      A
 Frequencies --   3038.7646              3076.1325              3078.0472
 Red. masses --      1.0846                 1.0751                 1.0880
 Frc consts  --      5.9006                 5.9937                 6.0733
 IR Inten    --     44.9534                10.7185                44.9789

                     97                     98                     99
                      A                      A                      A
 Frequencies --   3081.2958              3094.6790              3107.0911
 Red. masses --      1.0849                 1.0961                 1.0900
 Frc consts  --      6.0689                 6.1851                 6.2000
 IR Inten    --     79.9378                67.8736                21.6864

                    100                    101                    102
                      A                      A                      A
 Frequencies --   3121.3026              3140.3401              3174.3207
 Red. masses --      1.1042                 1.0889                 1.0876
 Frc consts  --      6.3380                 6.3272                 6.4568
 IR Inten    --     31.1129                17.4247                19.5090

                    103                    104                    105
                      A                      A                      A
 Frequencies --   3205.9799              3215.4904              3230.0463
 Red. masses --      1.0919                 1.0867                 1.0927
 Frc consts  --      6.6125                 6.6200                 6.7168
 IR Inten    --     19.6278                 6.4056                 8.9608

                    106                    107                    108
                      A                      A                      A
 Frequencies --   3450.4329              3538.7485              3701.2950
 Red. masses --      1.0508                 1.0904                 1.0653
 Frc consts  --      7.3706                 8.0450                 8.5983
 IR Inten    --      1.8070                 2.2927                26.1521

 - Thermochemistry -
 -------------------
 Temperature   298.150 Kelvin.  Pressure   1.00000 Atm.
 Atom     1 has atomic number  6 and mass  12.00000

 Molecular mass:   235.16846 amu.
 Principal axes and moments of inertia in atomic units:
                           1         2         3
     Eigenvalues --  1157.96066********************
           X            0.99999  -0.00095  -0.00435
           Y            0.00098   0.99997   0.00819
           Z            0.00434  -0.00820   0.99996
 This molecule is an asymmetric top.
 Rotational symmetry number  1.
 Warning -- assumption of classical behavior for rotation
           may cause significant error
 Rotational temperatures (Kelvin)      0.07480     0.00825     0.00802
 Rotational constants (GHZ):           1.55855     0.17184     0.16718
 Zero-point vibrational energy     884873.4 (Joules/Mol)
                                  211.48981 (Kcal/Mol)
 Warning -- explicit consideration of  26 degrees of freedom as
           vibrations may cause significant error
 Vibrational temperatures:     33.46    50.34    91.55   103.60   144.53
          (Kelvin)            203.79   264.21   307.11   328.56   351.94
                              359.55   405.55   434.32   451.60   507.91
                              517.88   553.41   599.94   605.84   615.03
                              641.83   693.21   727.22   751.22   802.27
                              871.07   944.07   980.66  1036.84  1104.77
                             1147.66  1159.98  1207.46  1225.53  1267.54
                             1274.94  1365.88  1377.29  1382.84  1392.70
                             1414.28  1422.57  1486.09  1494.49  1554.70
                             1569.67  1578.54  1591.09  1591.77  1607.36
                             1662.16  1699.17  1708.90  1713.71  1714.69
                             1743.92  1769.45  1787.89  1795.94  1824.69
                             1839.10  1900.53  1923.07  1934.62  1947.02
                             1953.11  1994.12  2006.40  2007.67  2038.90
                             2050.17  2059.65  2076.22  2079.26  2112.37
                             2135.88  2174.79  2180.49  2182.67  2197.46
                             2205.80  2210.23  2212.21  2254.83  2333.41
                             2413.17  2448.22  4205.66  4213.22  4235.27
                             4266.60  4283.94  4332.61  4372.10  4425.87
                             4428.62  4433.30  4452.55  4470.41  4490.86
                             4518.25  4567.14  4612.69  4626.37  4647.32
                             4964.40  5091.47  5325.34

 Zero-point correction=                           0.337030 (Hartree/Particle)
 Thermal correction to Energy=                    0.353316
 Thermal correction to Enthalpy=                  0.354260
 Thermal correction to Gibbs Free Energy=         0.292526
 Sum of electronic and zero-point Energies=           -747.207822
 Sum of electronic and thermal Energies=              -747.191536
 Sum of electronic and thermal Enthalpies=            -747.190592
 Sum of electronic and thermal Free Energies=         -747.252327

                     E (Thermal)             CV                S
                      KCal/Mol        Cal/Mol-Kelvin    Cal/Mol-Kelvin
 Total                  221.709             63.946            129.931
 Electronic               0.000              0.000              0.000
 Translational            0.889              2.981             42.267
 Rotational               0.889              2.981             33.240
 Vibrational            219.932             57.984             54.424
 Vibration     1          0.593              1.985              6.335
 Vibration     2          0.594              1.982              5.525
 Vibration     3          0.597              1.972              4.341
 Vibration     4          0.598              1.967              4.098
 Vibration     5          0.604              1.949              3.445
 Vibration     6          0.615              1.912              2.782
 Vibration     7          0.631              1.862              2.291
 Vibration     8          0.644              1.820              2.014
 Vibration     9          0.651              1.798              1.892
 Vibration    10          0.660              1.772              1.769
 Vibration    11          0.663              1.763              1.731
 Vibration    12          0.681              1.707              1.522
 Vibration    13          0.694              1.670              1.407
 Vibration    14          0.702              1.647              1.342
 Vibration    15          0.729              1.569              1.153
 Vibration    16          0.734              1.555              1.122
 Vibration    17          0.754              1.503              1.021
 Vibration    18          0.780              1.433              0.902
 Vibration    19          0.784              1.424              0.888
 Vibration    20          0.789              1.410              0.867
 Vibration    21          0.805              1.370              0.808
 Vibration    22          0.838              1.290              0.705
 Vibration    23          0.861              1.238              0.645
 Vibration    24          0.877              1.201              0.605
 Vibration    25          0.913              1.123              0.529
 Vibration    26          0.964              1.020              0.440

 Optimization completed.
    -- Stationary point found.
 Normal termination of Gaussian 16 at Fri Dec 11 12:10:29 2020.

 ----------------------------------------------------------------------
 # B3LYP/6-311++G(d,p) empiricaldispersion=gd3bj scf=xqc pop=npa geom=c
 heck
 ----------------------------------------------------------------------

 --------------------------------------
 CID_77130161_JID_7234_Energie_neutraal
 --------------------------------------
 Structure from the checkpoint file:  "JID_7234.chk"
 Charge =  0 Multiplicity = 1

 SCF Done:  E(RB3LYP) =  -747.763621483     A.U. after   15 cycles
 Normal termination of Gaussian 16 at Fri Dec 11 12:17:48 2020.

 ----------------------------------------------------------------------
 # B3LYP/6-311++G(d,p) empiricaldispersion=gd3bj scf=xqc pop=npa geom=c
 heck
 ----------------------------------------------------------------------

 ------------------------------------
 CID_77130161_JID_7234_Energie_kation
 ------------------------------------
 Structure from the checkpoint file:  "JID_7234.chk"
 Charge =  1 Multiplicity = 2

 SCF Done:  E(UB3LYP) =  -747.497654844     A.U. after   26 cycles
 Normal termination of Gaussian 16 at Fri Dec 11 12:35:43 2020.
 Gaussian 16:  ES64L-G16RevA.03 25-Dec-2016

 ----------------------------------------------------------------------
 # B3LYP/6-311++G(d,p) empiricaldispersion=gd3bj scf=xqc pop=npa geom=c
 heck
 ----------------------------------------------------------------------

 -----------------------------------
 CID_77130161_JID_7234_Energie_anion
 -----------------------------------
 Structure from the checkpoint file:  "JID_7234.chk"
 Charge = -1 Multiplicity = 2

                         Standard orientation:
 ---------------------------------------------------------------------
 Center     Atomic      Atomic             Coordinates (Angstroms)
 Number     Number       Type             X           Y           Z
 ---------------------------------------------------------------------
      1          6           0        5.871743   -0.049597   -0.361458
      2          7           0        4.503418   -0.154214    0.115619
      3          6           0        3.719210   -1.081522   -0.691135
      4          6           0        2.311865   -1.240755   -0.122535
      5          7           0        1.652037    0.056494   -0.047113
      6          6           0        2.441588    1.009137    0.739662
      7          6           0        3.843949    1.145622    0.159388
      8          6           0        0.256043    0.071090    0.151194
      9          6           0       -0.483928   -1.088488    0.429597
     10          6           0       -1.871887   -1.039608    0.573502
     11          6           0       -2.575258    0.159509    0.456632
     12          6           0       -1.832543    1.320534    0.186798
     13          6           0       -0.454033    1.282608    0.033908
     14          6           0       -4.094335    0.223438    0.576112
     15          6           0       -4.697089    0.750182   -0.745337
     16          8           0       -4.448424   -0.156006   -1.812490
     17          7           0       -4.652313   -1.084548    0.940238
     18          1           0        6.347092   -1.036069   -0.335858
     19          1           0        5.942596    0.339093   -1.396463
     20          1           0        6.439288    0.620873    0.292870
     21          1           0        3.644212   -0.742495   -1.743732
     22          1           0        4.218617   -2.057312   -0.690236
     23          1           0        2.374522   -1.727141    0.867496
     24          1           0        1.734214   -1.891390   -0.785104
     25          1           0        2.515652    0.674610    1.789177
     26          1           0        1.951245    1.983591    0.734049
     27          1           0        4.433362    1.817993    0.793674
     28          1           0        3.776028    1.603459   -0.847955
     29          1           0        0.018318   -2.039992    0.558972
     30          1           0       -2.418251   -1.943129    0.820434
     31          1           0       -2.341271    2.276979    0.089726
     32          1           0        0.079353    2.196556   -0.206848
     33          1           0       -4.354127    0.930705    1.375784
     34          1           0       -5.786769    0.816083   -0.654773
     35          1           0       -4.318244    1.756714   -0.979790
     36          1           0       -3.481462   -0.234138   -1.883595
     37          1           0       -5.617549   -0.956251    1.239918
     38          1           0       -4.703392   -1.637727    0.083004
 ---------------------------------------------------------------------

 SCF Done:  E(UB3LYP) =  -747.751036309     A.U. after   33 cycles
 SCF Done:  E(UB3LYP) =  -747.751036309     a.u. after    1 cycles

 The electronic state is 2-A.
 Alpha  occ. eigenvalues --  -19.03993 -14.23666 -14.22250 -14.20451 -10.12664
 Alpha  occ. eigenvalues --  -10.12357 -10.11626 -10.11433 -10.11351 -10.10927
 Alpha  occ. eigenvalues --  -10.10733 -10.10063 -10.08633 -10.08582 -10.08309
 Alpha  occ. eigenvalues --  -10.08243 -10.08178  -0.94193  -0.87380  -0.83386
 Alpha  occ. eigenvalues --   -0.80493  -0.75849  -0.68636  -0.67948  -0.65887
 Alpha  occ. eigenvalues --   -0.63999  -0.61242  -0.56895  -0.56407  -0.53331
 Alpha  occ. eigenvalues --   -0.51683  -0.49245  -0.47038  -0.44865  -0.42247
 Alpha  occ. eigenvalues --   -0.41810  -0.39323  -0.38997  -0.38595  -0.38241
 Alpha  occ. eigenvalues --   -0.36703  -0.36440  -0.35774  -0.34981  -0.34563
 Alpha  occ. eigenvalues --   -0.33676  -0.32744  -0.31698  -0.30969  -0.30156
 Alpha  occ. eigenvalues --   -0.28960  -0.27754  -0.27286  -0.26535  -0.26368
 Alpha  occ. eigenvalues --   -0.25432  -0.24916  -0.24695  -0.20677  -0.19057
 Alpha  occ. eigenvalues --   -0.16882  -0.15812  -0.14004  -0.11734   0.03876
 Alpha virt. eigenvalues --    0.04953   0.06252   0.06552   0.07162   0.07311
 Alpha virt. eigenvalues --    0.07654   0.08073   0.08431   0.08875   0.09052
 Alpha virt. eigenvalues --    0.09460   0.10086   0.10536   0.10841   0.11011

  Beta  occ. eigenvalues --  -19.03985 -14.23653 -14.22240 -14.20429 -10.12640
  Beta  occ. eigenvalues --  -10.12354 -10.11613 -10.11426 -10.11343 -10.10911
  Beta  occ. eigenvalues --  -10.10714 -10.10031 -10.08628 -10.08571 -10.08302
  Beta  occ. eigenvalues --  -10.08240 -10.08171  -0.94175  -0.87357  -0.83361
  Beta  occ. eigenvalues --   -0.80449  -0.75829  -0.68614  -0.67924  -0.65867
  Beta  occ. eigenvalues --   -0.63959  -0.61199  -0.56856  -0.56361  -0.53287
  Beta  occ. eigenvalues --   -0.51654  -0.49210  -0.47003  -0.44835  -0.42204
  Beta  occ. eigenvalues --   -0.41779  -0.39302  -0.38957  -0.38568  -0.38213
  Beta  occ. eigenvalues --   -0.36674  -0.36408  -0.35747  -0.34948  -0.34527
  Beta  occ. eigenvalues --   -0.33650  -0.32717  -0.31668  -0.30932  -0.30126
  Beta  occ. eigenvalues --   -0.28928  -0.27730  -0.27262  -0.26510  -0.26335
  Beta  occ. eigenvalues --   -0.25400  -0.24892  -0.24673  -0.20654  -0.19023
  Beta  occ. eigenvalues --   -0.16861  -0.15786  -0.13951  -0.11691
  Beta virt. eigenvalues --    0.05800   0.06108   0.06795   0.07099   0.07246
  Beta virt. eigenvalues --    0.07744   0.07790   0.08311   0.08739   0.09262
  Beta virt. eigenvalues --    0.09535   0.09603   0.10278   0.10694   0.11137

 Mulliken charges and spin densities:
               1          2
     1  C    0.622795  -0.894941
     2  N   -0.167650   0.245256
     3  C    0.147520  -0.820095
     4  C   -0.172653   0.120081
     5  N    0.281091   0.055793
     6  C   -0.578190   0.123240
     7  C    0.555059  -0.848003
     8  C   -0.308791  -0.708452
     9  C    0.070694   0.370310
    10  C   -0.176646   0.269093
    11  C    0.238760   0.159730
    12  C   -0.638555  -0.241674
    13  C    0.328124  -0.326928
    14  C    0.192849  -0.295606
    15  C    0.630762  -1.160624
    16  O   -0.274322   0.010756
    17  N   -0.325992  -0.000520
    18  H   -0.292318   0.426538
    19  H   -0.136902   0.252569
    20  H   -0.285463   0.416673
    21  H    0.076333   0.050252
    22  H   -0.127458   0.302809
    23  H    0.088274   0.047413
    24  H    0.033120   0.112531
    25  H    0.147736   0.004923
    26  H   -0.136307   0.266845
    27  H   -0.130964   0.306553
    28  H    0.004111   0.116197
    29  H    0.068792   0.122051
    30  H    0.103808   0.080012
    31  H   -0.347060   0.495499
    32  H   -0.204638   0.368790
    33  H   -0.316076   0.510447
    34  H   -0.356227   0.556606
    35  H   -0.061284   0.198035
    36  H    0.229432   0.033604
    37  H    0.012462   0.250403
    38  H    0.205775   0.023832
 Sum of Mulliken charges =  -1.00000   1.00000

 Dipole moment (field-independent basis, Debye):
    X=              0.2450    Y=             -2.1927    Z=             -0.4366  Tot=              2.2491
 Quadrupole moment (field-independent basis, Debye-Ang):
   XX=           -252.6959   YY=           -142.5517   ZZ=           -139.1945
   XY=              4.5871   XZ=              3.7765   YZ=             -0.1783

 Summary of Natural Population Analysis:

                                       Natural Population
                Natural  -----------------------------------------------
    Atom  No    Charge         Core      Valence    Rydberg      Total
 -----------------------------------------------------------------------
      C    1   -0.17563      0.99965     2.16729    0.00869     3.17563
      N    2   -0.27954      0.99971     2.76724    0.01259     3.77954
      C    3   -0.08643      0.99961     2.07478    0.01205     3.08643
      C    4   -0.08959      0.99961     2.07812    0.01185     3.08959
      N    5   -0.26335      0.99965     2.75281    0.01089     3.76335
      C    6   -0.08313      0.99960     2.07270    0.01083     3.08313
      C    7   -0.08898      0.99961     2.07679    0.01258     3.08898
      C    8    0.09221      0.99948     1.89705    0.01126     2.90779
      C    9   -0.12565      0.99952     2.11882    0.00731     3.12565
      C   10   -0.09400      0.99951     2.08579    0.00871     3.09400
      C   11   -0.04408      0.99949     2.03127    0.01333     3.04408
      C   12   -0.09509      0.99952     2.08557    0.01000     3.09509
      C   13   -0.11091      0.99952     2.10186    0.00952     3.11091
      C   14   -0.03318      0.99956     2.01884    0.01478     3.03318
      C   15   -0.01225      0.99958     1.99946    0.01321     3.01225
      O   16   -0.37319      0.99990     3.36688    0.00641     4.37319
      N   17   -0.42329      0.99978     2.91285    0.01066     3.92329
      H   18    0.09639      0.00000     0.40224    0.00137     0.40361
      H   19    0.08086      0.00000     0.41763    0.00151     0.41914
      H   20    0.09695      0.00000     0.40172    0.00132     0.40305
      H   21    0.08211      0.00000     0.41614    0.00175     0.41789
      H   22    0.09887      0.00000     0.39988    0.00125     0.40113
      H   23    0.08646      0.00000     0.41181    0.00173     0.41354
      H   24    0.10193      0.00000     0.39686    0.00121     0.39807
      H   25    0.08591      0.00000     0.41246    0.00163     0.41409
      H   26    0.10257      0.00000     0.39601    0.00142     0.39743
      H   27    0.09964      0.00000     0.39902    0.00134     0.40036
      H   28    0.08209      0.00000     0.41584    0.00207     0.41791
      H   29    0.10262      0.00000     0.39635    0.00103     0.39738
      H   30    0.11029      0.00000     0.38844    0.00127     0.38971
      H   31    0.10208      0.00000     0.39648    0.00144     0.39792
      H   32    0.10350      0.00000     0.39526    0.00124     0.39650
      H   33    0.10160      0.00000     0.39650    0.00190     0.39840
      H   34    0.08737      0.00000     0.41073    0.00190     0.41263
      H   35    0.07989      0.00000     0.41859    0.00152     0.42011
      H   36    0.23104      0.00000     0.26605    0.00291     0.26896
      H   37    0.17777      0.00000     0.32042    0.00180     0.32223
      H   38    0.17615      0.00000     0.32173    0.00211     0.32385
 =======================================================================
   * Total *   -0.00000     16.99331    46.78830    0.21839    64.00000

 Normal termination of Gaussian 16 at Fri Dec 11 13:01:58 2020.
