 Gaussian 16, Revision A.03,

 -----------------------------------------------------------
 # opt freq B3LYP/6-31G(d) empiricaldispersion=gd3bj scf=xqc
 -----------------------------------------------------------

 ------------------------------
 CID_61670992_JID_8585_neutraal
 ------------------------------
 Symbolic Z-matrix:
 Charge =  0 Multiplicity = 1

 SCF Done:  E(RB3LYP) =  -1163.24913454     A.U. after   15 cycles
 SCF Done:  E(RB3LYP) =  -1163.25544987     A.U. after   12 cycles
 SCF Done:  E(RB3LYP) =  -1163.25608469     A.U. after   12 cycles
 SCF Done:  E(RB3LYP) =  -1163.25606915     A.U. after   12 cycles
 SCF Done:  E(RB3LYP) =  -1163.25578211     A.U. after   13 cycles
 SCF Done:  E(RB3LYP) =  -1163.25621992     A.U. after   12 cycles
 SCF Done:  E(RB3LYP) =  -1163.25629516     A.U. after   11 cycles
 SCF Done:  E(RB3LYP) =  -1163.25632041     A.U. after   12 cycles
 SCF Done:  E(RB3LYP) =  -1163.25632818     A.U. after   10 cycles
 SCF Done:  E(RB3LYP) =  -1163.25633089     A.U. after    8 cycles
 SCF Done:  E(RB3LYP) =  -1163.25633124     A.U. after    8 cycles
 Optimization completed.
    -- Stationary point found.
 Normal termination of Gaussian 16 at Fri Dec 11 21:11:45 2020.

 --------------------------------------------------------------------
 #N Geom=AllCheck Guess=TCheck SCRF=Check GenChk RB3LYP/6-31G(d) Freq
 --------------------------------------------------------------------

 Structure from the checkpoint file:  "JID_8585.chk"
 ------------------------------
 CID_61670992_JID_8585_neutraal
 ------------------------------
 Charge =  0 Multiplicity = 1

 SCF Done:  E(RB3LYP) =  -1163.25633124     A.U. after    1 cycles

  Exact polarizability: 232.595  -6.916 173.783   6.129 -14.337 104.786
 Approx polarizability: 330.339 -17.405 296.888  15.174 -33.571 168.247

                      1                      2                      3
                      A                      A                      A
 Frequencies --     25.1035                34.0444                57.0448
 Red. masses --      4.9285                 5.5143                 3.9062
 Frc consts  --      0.0018                 0.0038                 0.0075
 IR Inten    --      0.5850                 0.3195                 0.1201

                      4                      5                      6
                      A                      A                      A
 Frequencies --     61.4970                73.6362               102.8199
 Red. masses --      7.7489                 3.9007                 4.2063
 Frc consts  --      0.0173                 0.0125                 0.0262
 IR Inten    --      2.6238                 0.0395                 0.1384

                      7                      8                      9
                      A                      A                      A
 Frequencies --    121.1509               162.9641               194.9707
 Red. masses --      6.0343                 3.8376                 4.0292
 Frc consts  --      0.0522                 0.0600                 0.0902
 IR Inten    --      0.1117                 0.2184                 1.2279

                     10                     11                     12
                      A                      A                      A
 Frequencies --    206.9087               228.6803               235.0922
 Red. masses --      3.9484                 3.0713                 1.1323
 Frc consts  --      0.0996                 0.0946                 0.0369
 IR Inten    --      1.5924                 0.5338                 0.1675

                     13                     14                     15
                      A                      A                      A
 Frequencies --    250.8683               271.0505               292.5650
 Red. masses --      2.4689                 1.5421                 3.2032
 Frc consts  --      0.0915                 0.0668                 0.1615
 IR Inten    --      0.7201                 0.1855                 4.0684

                     16                     17                     18
                      A                      A                      A
 Frequencies --    298.2404               385.5809               394.6009
 Red. masses --      3.4038                 6.8221                 2.3980
 Frc consts  --      0.1784                 0.5976                 0.2200
 IR Inten    --     12.7075                 0.5130                 0.3830

                     19                     20                     21
                      A                      A                      A
 Frequencies --    423.9030               456.3830               465.2433
 Red. masses --      2.1439                 2.8053                 4.1075
 Frc consts  --      0.2270                 0.3443                 0.5238
 IR Inten    --      3.5719                 4.0771                 6.4886

                     22                     23                     24
                      A                      A                      A
 Frequencies --    484.3852               526.5393               548.0127
 Red. masses --      6.1241                 2.5526                 4.9936
 Frc consts  --      0.8466                 0.4170                 0.8836
 IR Inten    --     20.2931                66.2522                 9.9102

                     25                     26                     27
                      A                      A                      A
 Frequencies --    575.2214               590.4695               617.9858
 Red. masses --      3.6742                 2.6610                 4.1836
 Frc consts  --      0.7163                 0.5466                 0.9414
 IR Inten    --      4.8824                73.7355                15.0001

                     28                     29                     30
                      A                      A                      A
 Frequencies --    630.2529               669.9107               697.8880
 Red. masses --      1.5145                 3.5581                 7.6795
 Frc consts  --      0.3544                 0.9408                 2.2037
 IR Inten    --     74.3320                43.6066                 6.9831

                     31                     32                     33
                      A                      A                      A
 Frequencies --    707.8543               742.5239               773.1985
 Red. masses --      1.5528                 4.2141                 3.4633
 Frc consts  --      0.4584                 1.3689                 1.2199
 IR Inten    --     80.0866                13.6687                12.8335

                     34                     35                     36
                      A                      A                      A
 Frequencies --    793.5018               801.7654               803.8198
 Red. masses --      5.6590                 4.1570                 1.3486
 Frc consts  --      2.0993                 1.5744                 0.5134
 IR Inten    --      2.7650                11.9256                16.0673

                     37                     38                     39
                      A                      A                      A
 Frequencies --    808.4609               844.4181               884.5337
 Red. masses --      2.6785                 2.9226                 1.3546
 Frc consts  --      1.0315                 1.2278                 0.6244
 IR Inten    --      3.2527                 5.8074                 0.8551

                     40                     41                     42
                      A                      A                      A
 Frequencies --    888.7944               944.1660               949.8520
 Red. masses --      3.7315                 1.3082                 1.5386
 Frc consts  --      1.7368                 0.6871                 0.8179
 IR Inten    --     12.0320                 1.2093                11.0195

                     43                     44                     45
                      A                      A                      A
 Frequencies --    956.7876               962.9031               981.9894
 Red. masses --      1.3603                 2.9809                 1.4531
 Frc consts  --      0.7337                 1.6284                 0.8256
 IR Inten    --      1.9181                23.0198                 1.9020

                     46                     47                     48
                      A                      A                      A
 Frequencies --    993.6225              1070.5806              1100.7975
 Red. masses --      2.3203                 2.6512                 2.2044
 Frc consts  --      1.3497                 1.7903                 1.5738
 IR Inten    --      5.9647                 0.5883                25.3362

                     49                     50                     51
                      A                      A                      A
 Frequencies --   1120.6881              1132.5162              1153.9237
 Red. masses --      1.3272                 1.9831                 2.0373
 Frc consts  --      0.9821                 1.4986                 1.5983
 IR Inten    --     14.0513                50.6325                46.0489

                     52                     53                     54
                      A                      A                      A
 Frequencies --   1172.6853              1185.6967              1209.3937
 Red. masses --      2.4774                 2.3180                 1.7550
 Frc consts  --      2.0073                 1.9201                 1.5124
 IR Inten    --    164.7088                29.2794                11.0515

                     55                     56                     57
                      A                      A                      A
 Frequencies --   1214.1675              1242.1213              1260.2382
 Red. masses --      2.1317                 2.4716                 1.5645
 Frc consts  --      1.8516                 2.2467                 1.4639
 IR Inten    --     14.2230                 0.7784                 6.6862

                     58                     59                     60
                      A                      A                      A
 Frequencies --   1306.1045              1322.7240              1332.1171
 Red. masses --      1.2956                 1.4355                 2.1115
 Frc consts  --      1.3022                 1.4797                 2.2077
 IR Inten    --      2.6553                 3.0307                 2.9335

                     61                     62                     63
                      A                      A                      A
 Frequencies --   1352.1660              1362.6453              1391.2365
 Red. masses --      1.5597                 2.1208                 1.9659
 Frc consts  --      1.6801                 2.3202                 2.2418
 IR Inten    --      0.5645                 3.7456                57.1137

                     64                     65                     66
                      A                      A                      A
 Frequencies --   1392.6324              1404.7502              1429.6422
 Red. masses --      1.6020                 1.6068                 1.5909
 Frc consts  --      1.8305                 1.8681                 1.9158
 IR Inten    --     19.5486                15.9055                18.8397

                     67                     68                     69
                      A                      A                      A
 Frequencies --   1432.8750              1451.0557              1453.2627
 Red. masses --      1.5191                 1.2807                 2.6304
 Frc consts  --      1.8376                 1.5888                 3.2731
 IR Inten    --      5.3288                 5.3254                12.1472

                     70                     71                     72
                      A                      A                      A
 Frequencies --   1485.5496              1511.4358              1521.5643
 Red. masses --      2.6520                 1.0829                 1.0644
 Frc consts  --      3.4482                 1.4575                 1.4519
 IR Inten    --    136.2145                 4.4338                 6.8344

                     73                     74                     75
                      A                      A                      A
 Frequencies --   1526.6252              1534.9384              1536.1466
 Red. masses --      1.0544                 1.5388                 1.1885
 Frc consts  --      1.4479                 2.1361                 1.6525
 IR Inten    --      3.4426               100.4970                26.3108

                     76                     77                     78
                      A                      A                      A
 Frequencies --   1547.1744              1557.1511              1606.7978
 Red. masses --      1.0962                 4.0628                 8.3517
 Frc consts  --      1.5460                 5.8042                12.7043
 IR Inten    --     22.9731                55.5412               152.1121

                     79                     80                     81
                      A                      A                      A
 Frequencies --   1634.4320              1846.3770              3026.6511
 Red. masses --      4.8426                 9.6289                 1.0611
 Frc consts  --      7.6218                19.3404                 5.7272
 IR Inten    --    176.2293               216.9977                20.4498

                     82                     83                     84
                      A                      A                      A
 Frequencies --   3036.4838              3038.9904              3046.0900
 Red. masses --      1.0798                 1.0369                 1.0429
 Frc consts  --      5.8659                 5.6422                 5.7012
 IR Inten    --      3.8835                31.0187                29.2547

                     85                     86                     87
                      A                      A                      A
 Frequencies --   3076.9886              3102.5276              3107.9398
 Red. masses --      1.0997                 1.1009                 1.1011
 Frc consts  --      6.1345                 6.2438                 6.2666
 IR Inten    --     18.9971                12.3197                53.7228

                     88                     89                     90
                      A                      A                      A
 Frequencies --   3114.8304              3134.1738              3155.6172
 Red. masses --      1.1018                 1.0993                 1.0856
 Frc consts  --      6.2982                 6.3624                 6.3695
 IR Inten    --     54.1050                32.5523                 4.9829

                     91                     92                     93
                      A                      A                      A
 Frequencies --   3181.1051              3224.5484              3225.6643
 Red. masses --      1.0893                 1.0905                 1.0941
 Frc consts  --      6.4944                 6.6805                 6.7074
 IR Inten    --     24.5204                 4.2163                10.8844

                     94                     95                     96
                      A                      A                      A
 Frequencies --   3271.4082              3576.6351              3675.7879
 Red. masses --      1.0973                 1.0749                 1.0639
 Frc consts  --      6.9191                 8.1016                 8.4695
 IR Inten    --      1.8512                12.1537                45.9208

 - Thermochemistry -
 -------------------
 Temperature   298.150 Kelvin.  Pressure   1.00000 Atm.
 Atom     1 has atomic number  6 and mass  12.00000

 Molecular mass:   264.09325 amu.
 Principal axes and moments of inertia in atomic units:
                           1         2         3
     Eigenvalues --  2099.052019793.16466**********
           X            0.99991   0.01119   0.00796
           Y           -0.01105   0.99980  -0.01691
           Z           -0.00815   0.01682   0.99983
 This molecule is an asymmetric top.
 Rotational symmetry number  1.
 Warning -- assumption of classical behavior for rotation
           may cause significant error
 Rotational temperatures (Kelvin)      0.04126     0.00884     0.00810
 Rotational constants (GHZ):           0.85979     0.18429     0.16880
 Zero-point vibrational energy     728040.5 (Joules/Mol)
                                  174.00584 (Kcal/Mol)
 Warning -- explicit consideration of  27 degrees of freedom as
           vibrations may cause significant error
 Vibrational temperatures:     36.12    48.98    82.07    88.48   105.95
          (Kelvin)            147.93   174.31   234.47   280.52   297.70
                              329.02   338.25   360.94   389.98   420.94
                              429.10   554.76   567.74   609.90   656.63
                              669.38   696.92   757.57   788.47   827.62
                              849.55   889.14   906.79   963.85  1004.11
                             1018.44  1068.33  1112.46  1141.67  1153.56
                             1156.52  1163.19  1214.93  1272.65  1278.78
                             1358.44  1366.63  1376.60  1385.40  1412.86
                             1429.60  1540.33  1583.80  1612.42  1629.44
                             1660.24  1687.23  1705.95  1740.05  1746.92
                             1787.14  1813.20  1879.19  1903.10  1916.62
                             1945.47  1960.54  2001.68  2003.69  2021.12
                             2056.94  2061.59  2087.75  2090.92  2137.37
                             2174.62  2189.19  2196.47  2208.43  2210.17
                             2226.04  2240.39  2311.82  2351.58  2656.52
                             4354.68  4368.82  4372.43  4382.64  4427.10
                             4463.85  4471.63  4481.55  4509.38  4540.23
                             4576.90  4639.41  4641.01  4706.83  5145.98
                             5288.64

 Zero-point correction=                           0.277296 (Hartree/Particle)
 Thermal correction to Energy=                    0.294616
 Thermal correction to Enthalpy=                  0.295560
 Thermal correction to Gibbs Free Energy=         0.230660
 Sum of electronic and zero-point Energies=          -1162.979035
 Sum of electronic and thermal Energies=             -1162.961715
 Sum of electronic and thermal Enthalpies=           -1162.960771
 Sum of electronic and thermal Free Energies=        -1163.025671

                     E (Thermal)             CV                S
                      KCal/Mol        Cal/Mol-Kelvin    Cal/Mol-Kelvin
 Total                  184.874             65.746            136.594
 Electronic               0.000              0.000              0.000
 Translational            0.889              2.981             42.613
 Rotational               0.889              2.981             33.752
 Vibrational            183.097             59.784             60.230
 Vibration     1          0.593              1.985              6.183
 Vibration     2          0.594              1.983              5.579
 Vibration     3          0.596              1.975              4.557
 Vibration     4          0.597              1.973              4.409
 Vibration     5          0.599              1.966              4.054
 Vibration     6          0.605              1.947              3.400
 Vibration     7          0.609              1.932              3.082
 Vibration     8          0.623              1.888              2.515
 Vibration     9          0.636              1.847              2.180
 Vibration    10          0.641              1.830              2.071
 Vibration    11          0.651              1.797              1.889
 Vibration    12          0.655              1.787              1.840
 Vibration    13          0.663              1.761              1.724
 Vibration    14          0.675              1.727              1.590
 Vibration    15          0.688              1.688              1.459
 Vibration    16          0.691              1.677              1.427
 Vibration    17          0.754              1.501              1.017
 Vibration    18          0.762              1.482              0.983
 Vibration    19          0.786              1.418              0.879
 Vibration    20          0.815              1.347              0.777
 Vibration    21          0.823              1.327              0.751
 Vibration    22          0.841              1.285              0.698
 Vibration    23          0.881              1.191              0.595
 Vibration    24          0.903              1.144              0.548
 Vibration    25          0.932              1.085              0.494
 Vibration    26          0.948              1.052              0.466
 Vibration    27          0.978              0.994              0.420

                           ! Non-Optimized Parameters !
 Normal termination of Gaussian 16 at Fri Dec 11 21:27:36 2020.

 ----------------------------------------------------------------------
 # B3LYP/6-311++G(d,p) empiricaldispersion=gd3bj scf=xqc pop=npa geom=c
 heck
 ----------------------------------------------------------------------

 --------------------------------------
 CID_61670992_JID_8585_Energie_neutraal
 --------------------------------------
 Structure from the checkpoint file:  "JID_8585.chk"
 Charge =  0 Multiplicity = 1

 SCF Done:  E(RB3LYP) =  -1163.50167112     A.U. after   16 cycles
 Normal termination of Gaussian 16 at Fri Dec 11 21:35:08 2020.

 ----------------------------------------------------------------------
 # B3LYP/6-311++G(d,p) empiricaldispersion=gd3bj scf=xqc pop=npa geom=c
 heck
 ----------------------------------------------------------------------

 ------------------------------------
 CID_61670992_JID_8585_Energie_kation
 ------------------------------------
 Structure from the checkpoint file:  "JID_8585.chk"
 Charge =  1 Multiplicity = 2

 SCF Done:  E(UB3LYP) =  -1163.22396720     A.U. after   25 cycles
 Normal termination of Gaussian 16 at Fri Dec 11 21:52:00 2020.
 Gaussian 16:  ES64L-G16RevA.03 25-Dec-2016

 ----------------------------------------------------------------------
 # B3LYP/6-311++G(d,p) empiricaldispersion=gd3bj scf=xqc pop=npa geom=c
 heck
 ----------------------------------------------------------------------

 -----------------------------------
 CID_61670992_JID_8585_Energie_anion
 -----------------------------------
 Structure from the checkpoint file:  "JID_8585.chk"
 Charge = -1 Multiplicity = 2

                         Standard orientation:
 ---------------------------------------------------------------------
 Center     Atomic      Atomic             Coordinates (Angstroms)
 Number     Number       Type             X           Y           Z
 ---------------------------------------------------------------------
      1          6           0       -4.444713    0.359126   -1.399542
      2          6           0       -4.169285   -0.549827   -0.195140
      3          6           0       -5.136656   -1.740166   -0.176299
      4          6           0       -2.720962   -1.066742   -0.176351
      5          6           0       -1.618397    0.006818   -0.143701
      6          6           0       -1.743785    0.860315    1.117205
      7          8           0       -1.274374    0.563309    2.193325
      8          8           0       -2.493355    1.968840    0.920739
      9          7           0       -0.323318   -0.652401   -0.185046
     10          6           0        0.818596    0.129794   -0.285438
     11          7           0        0.664319    1.418043   -0.580536
     12          6           0        1.762622    2.188474   -0.722891
     13          6           0        3.063821    1.743195   -0.564822
     14          6           0        3.218675    0.385074   -0.251519
     15          6           0        2.100524   -0.460335   -0.116018
     16          6           0        2.470389   -1.817870    0.182562
     17          6           0        3.815539   -1.984202    0.278210
     18         16           0        4.707459   -0.499920    0.004096
     19          1           0       -4.215838   -0.159817   -2.339516
     20          1           0       -3.850444    1.276418   -1.360056
     21          1           0       -5.500765    0.650315   -1.429096
     22          1           0       -4.339728    0.037452    0.717277
     23          1           0       -5.016043   -2.355117   -1.077352
     24          1           0       -4.963806   -2.384093    0.694030
     25          1           0       -6.177521   -1.399575   -0.142749
     26          1           0       -2.586454   -1.720920    0.697031
     27          1           0       -2.542077   -1.682887   -1.066842
     28          1           0       -1.690247    0.662996   -1.010403
     29          1           0       -2.539677    2.421737    1.784270
     30          1           0       -0.240870   -1.402118    0.491843
     31          1           0        1.570083    3.230355   -0.969129
     32          1           0        3.908676    2.412763   -0.678677
     33          1           0        1.764335   -2.631481    0.303463
     34          1           0        4.357647   -2.895914    0.489380
 ---------------------------------------------------------------------

 SCF Done:  E(UB3LYP) =  -1163.49349778     A.U. after   33 cycles
 SCF Done:  E(UB3LYP) =  -1163.49349778     a.u. after    1 cycles

 The electronic state is 2-A.
 Alpha  occ. eigenvalues --  -88.76339 -19.07517 -19.01757 -14.22445 -14.18692
 Alpha  occ. eigenvalues --  -10.20556 -10.13322 -10.11975 -10.09805 -10.08432
 Alpha  occ. eigenvalues --  -10.08318 -10.08288 -10.08168 -10.07044 -10.07002
 Alpha  occ. eigenvalues --  -10.06511 -10.06481 -10.06260  -7.84988  -5.81301
 Alpha  occ. eigenvalues --   -5.80942  -5.80546  -1.01432  -0.92515  -0.86543
 Alpha  occ. eigenvalues --   -0.80283  -0.76708  -0.72328  -0.67373  -0.65956
 Alpha  occ. eigenvalues --   -0.63160  -0.60731  -0.59224  -0.57505  -0.52691
 Alpha  occ. eigenvalues --   -0.51658  -0.47932  -0.46898  -0.46325  -0.43438
 Alpha  occ. eigenvalues --   -0.41112  -0.39807  -0.39228  -0.37799  -0.36570
 Alpha  occ. eigenvalues --   -0.35929  -0.34703  -0.33931  -0.33569  -0.32456
 Alpha  occ. eigenvalues --   -0.31827  -0.31025  -0.30265  -0.29256  -0.28209
 Alpha  occ. eigenvalues --   -0.27668  -0.27138  -0.26489  -0.25453  -0.24495
 Alpha  occ. eigenvalues --   -0.23967  -0.23798  -0.23337  -0.22656  -0.21134
 Alpha  occ. eigenvalues --   -0.18654  -0.15700  -0.15368  -0.14867  -0.10282
 Alpha  occ. eigenvalues --    0.04384
 Alpha virt. eigenvalues --    0.05709   0.06796   0.07456   0.08038   0.08134
 Alpha virt. eigenvalues --    0.08387   0.08834   0.09536   0.10037   0.10290
 Alpha virt. eigenvalues --    0.10435   0.11131   0.11884   0.12030   0.12173

  Beta  occ. eigenvalues --  -88.76311 -19.07490 -19.01734 -14.22433 -14.18704
  Beta  occ. eigenvalues --  -10.20547 -10.13277 -10.11972 -10.09693 -10.08278
  Beta  occ. eigenvalues --  -10.08159 -10.08156 -10.08119 -10.07023 -10.06969
  Beta  occ. eigenvalues --  -10.06503 -10.06479 -10.06240  -7.84962  -5.81291
  Beta  occ. eigenvalues --   -5.80933  -5.80444  -1.01389  -0.92469  -0.86464
  Beta  occ. eigenvalues --   -0.80189  -0.76499  -0.72297  -0.67239  -0.65784
  Beta  occ. eigenvalues --   -0.63024  -0.60500  -0.59177  -0.57449  -0.52555
  Beta  occ. eigenvalues --   -0.51475  -0.47805  -0.46761  -0.46143  -0.43359
  Beta  occ. eigenvalues --   -0.41052  -0.39718  -0.39176  -0.37736  -0.36514
  Beta  occ. eigenvalues --   -0.35853  -0.34642  -0.33820  -0.33508  -0.32404
  Beta  occ. eigenvalues --   -0.31719  -0.30738  -0.30170  -0.29229  -0.28123
  Beta  occ. eigenvalues --   -0.27548  -0.27095  -0.26420  -0.25007  -0.24319
  Beta  occ. eigenvalues --   -0.23853  -0.23765  -0.23281  -0.22574  -0.20715
  Beta  occ. eigenvalues --   -0.18580  -0.15429  -0.15055  -0.14273  -0.09652
  Beta virt. eigenvalues --    0.06476   0.07324   0.07530   0.08051   0.08074
  Beta virt. eigenvalues --    0.08389   0.08671   0.09029   0.09790   0.10219
  Beta virt. eigenvalues --    0.10326   0.10687   0.11371   0.11948   0.12212

 Mulliken charges and spin densities:
               1          2
     1  C    0.203965  -0.971957
     2  C   -1.481421   2.144368
     3  C    0.599235  -1.295895
     4  C    0.527055  -1.520589
     5  C   -0.078676  -0.284879
     6  C   -0.216653   0.197563
     7  O   -0.205571   0.012347
     8  O   -0.119478   0.016977
     9  N    0.393657   0.038088
    10  C   -0.185598  -0.137019
    11  N    0.066322  -0.011200
    12  C   -0.265159   0.163636
    13  C    0.029223  -0.072530
    14  C    0.714776   0.142407
    15  C    0.085529   0.146685
    16  C   -0.825669  -0.108726
    17  C   -0.022519   0.201062
    18  S   -0.755992   0.040379
    19  H   -0.004948   0.141339
    20  H    0.086984   0.065595
    21  H   -0.177583   0.328324
    22  H   -0.049439   0.238480
    23  H   -0.033988   0.160491
    24  H   -0.191553   0.325712
    25  H   -0.480315   0.637400
    26  H    0.106561   0.021612
    27  H    0.190846   0.009297
    28  H    0.426538  -0.076227
    29  H   -0.096474   0.375856
    30  H    0.262866   0.000003
    31  H    0.112199   0.019590
    32  H    0.153486   0.000936
    33  H    0.026336   0.049181
    34  H    0.205457   0.001696
 Sum of Mulliken charges =  -1.00000   1.00000

 Dipole moment (field-independent basis, Debye):
    X=              5.3134    Y=             -0.5620    Z=             -1.0309  Tot=              5.4416
 Quadrupole moment (field-independent basis, Debye-Ang):
   XX=           -216.2643   YY=           -138.4629   ZZ=           -141.7846
   XY=             -3.7148   XZ=              0.5905   YZ=             -1.4995

 Summary of Natural Population Analysis:

                                       Natural Population
                Natural  -----------------------------------------------
    Atom  No    Charge         Core      Valence    Rydberg      Total
 -----------------------------------------------------------------------
      C    1   -0.28718      0.99965     2.28127    0.00626     3.28718
      C    2   -0.11730      0.99961     2.10842    0.00927     3.11730
      C    3   -0.28171      0.99965     2.27595    0.00610     3.28171
      C    4   -0.18515      0.99960     2.17532    0.01024     3.18515
      C    5   -0.05648      0.99954     2.04262    0.01432     3.05648
      C    6    0.40972      0.99969     1.56291    0.02767     2.59028
      O    7   -0.30774      0.99987     3.30160    0.00628     4.30774
      O    8   -0.34244      0.99987     3.33559    0.00697     4.34244
      N    9   -0.30966      0.99967     2.79994    0.01005     3.80966
      C   10    0.22633      0.99950     1.75980    0.01436     2.77367
      N   11   -0.27716      0.99967     2.76754    0.00994     3.77716
      C   12    0.06260      0.99960     1.92326    0.01454     2.93740
      C   13   -0.15645      0.99949     2.14760    0.00936     3.15645
      C   14   -0.05799      0.99942     2.04743    0.01114     3.05799
      C   15   -0.07084      0.99942     2.06154    0.00988     3.07084
      C   16   -0.12770      0.99951     2.11861    0.00958     3.12770
      C   17   -0.13187      0.99954     2.12206    0.01027     3.13187
      S   18    0.18462      4.99946     2.79442    0.02150     7.81538
      H   19    0.09398      0.00000     0.40523    0.00079     0.40602
      H   20    0.10477      0.00000     0.39410    0.00112     0.39523
      H   21    0.10056      0.00000     0.39854    0.00089     0.39944
      H   22    0.09582      0.00000     0.40174    0.00244     0.40418
      H   23    0.09454      0.00000     0.40446    0.00100     0.40546
      H   24    0.09900      0.00000     0.40003    0.00097     0.40100
      H   25    0.10141      0.00000     0.39732    0.00127     0.39859
      H   26    0.09962      0.00000     0.39914    0.00124     0.40038
      H   27    0.10230      0.00000     0.39648    0.00122     0.39770
      H   28    0.11868      0.00000     0.37902    0.00229     0.38132
      H   29    0.23865      0.00000     0.25646    0.00490     0.26135
      H   30    0.18840      0.00000     0.30903    0.00257     0.31160
      H   31    0.08407      0.00000     0.41494    0.00099     0.41593
      H   32    0.10053      0.00000     0.39850    0.00096     0.39947
      H   33    0.10377      0.00000     0.39517    0.00106     0.39623
      H   34    0.10026      0.00000     0.39891    0.00083     0.39974
 =======================================================================
   * Total *    0.00000     21.99275    47.77496    0.23229    70.00000

 Normal termination of Gaussian 16 at Fri Dec 11 22:14:28 2020.
