 Gaussian 16, Revision A.03,

 -----------------------------------------------------------
 # opt freq B3LYP/6-31G(d) empiricaldispersion=gd3bj scf=xqc
 -----------------------------------------------------------

 -------------------------------
 CID_115740095_JID_5026_neutraal
 -------------------------------
 Symbolic Z-matrix:
 Charge =  0 Multiplicity = 1

 SCF Done:  E(RB3LYP) =  -1015.40085495     A.U. after   14 cycles
 SCF Done:  E(RB3LYP) =  -1015.40539913     A.U. after   12 cycles
 SCF Done:  E(RB3LYP) =  -1015.40606549     A.U. after   12 cycles
 SCF Done:  E(RB3LYP) =  -1015.40725928     A.U. after   12 cycles
 SCF Done:  E(RB3LYP) =  -1015.40821746     A.U. after   12 cycles
 SCF Done:  E(RB3LYP) =  -1015.40748686     A.U. after   14 cycles
 SCF Done:  E(RB3LYP) =  -1015.40910592     A.U. after   12 cycles
 SCF Done:  E(RB3LYP) =  -1015.40920301     A.U. after   11 cycles
 SCF Done:  E(RB3LYP) =  -1015.40929302     A.U. after   10 cycles
 SCF Done:  E(RB3LYP) =  -1015.40934455     A.U. after   11 cycles
 SCF Done:  E(RB3LYP) =  -1015.41008075     A.U. after    9 cycles
 SCF Done:  E(RB3LYP) =  -1015.41008050     A.U. after    9 cycles
 SCF Done:  E(RB3LYP) =  -1015.41008132     A.U. after    9 cycles
 SCF Done:  E(RB3LYP) =  -1015.41008134     A.U. after    7 cycles
 Optimization completed.
    -- Stationary point found.
 Normal termination of Gaussian 16 at Thu Dec 10 15:02:35 2020.

 --------------------------------------------------------------------
 #N Geom=AllCheck Guess=TCheck SCRF=Check GenChk RB3LYP/6-31G(d) Freq
 --------------------------------------------------------------------

 Structure from the checkpoint file:  "JID_5026.chk"
 -------------------------------
 CID_115740095_JID_5026_neutraal
 -------------------------------
 Charge =  0 Multiplicity = 1

 SCF Done:  E(RB3LYP) =  -1015.41008134     A.U. after    1 cycles

  Exact polarizability: 183.265  -1.419 139.137  -3.494   0.946 119.586
 Approx polarizability: 211.000   1.103 219.748  -7.944   2.261 182.468

                      1                      2                      3
                      A                      A                      A
 Frequencies --     18.3098                29.4406                34.9747
 Red. masses --      3.8769                 2.7603                 4.2636
 Frc consts  --      0.0008                 0.0014                 0.0031
 IR Inten    --      0.6320                 0.6329                 0.6206

                      4                      5                      6
                      A                      A                      A
 Frequencies --     55.5553                59.0036                68.2695
 Red. masses --      2.7728                 3.6573                 3.5102
 Frc consts  --      0.0050                 0.0075                 0.0096
 IR Inten    --      1.1309                 2.0072                 0.0704

                      7                      8                      9
                      A                      A                      A
 Frequencies --     70.9908               116.2480               136.1147
 Red. masses --      3.9424                 5.4541                 4.2231
 Frc consts  --      0.0117                 0.0434                 0.0461
 IR Inten    --      2.0392                 1.1767                 0.8078

                     10                     11                     12
                      A                      A                      A
 Frequencies --    174.0031               193.7346               196.3097
 Red. masses --      1.1395                 2.3368                 3.2186
 Frc consts  --      0.0203                 0.0517                 0.0731
 IR Inten    --      0.2453                 0.7778                 3.0848

                     13                     14                     15
                      A                      A                      A
 Frequencies --    235.0066               264.5096               290.3691
 Red. masses --      1.6839                 2.7876                 1.3177
 Frc consts  --      0.0548                 0.1149                 0.0655
 IR Inten    --      0.2996                 4.2451                 0.3074

                     16                     17                     18
                      A                      A                      A
 Frequencies --    305.7199               331.5406               349.3432
 Red. masses --      4.1806                 2.5078                 3.3219
 Frc consts  --      0.2302                 0.1624                 0.2389
 IR Inten    --      0.5197                 0.4808                 1.6271

                     19                     20                     21
                      A                      A                      A
 Frequencies --    403.2945               448.6412               520.3916
 Red. masses --      2.8540                 2.1427                 2.8834
 Frc consts  --      0.2735                 0.2541                 0.4601
 IR Inten    --      0.8114                 1.4645                11.7683

                     22                     23                     24
                      A                      A                      A
 Frequencies --    551.5140               579.9630               609.0364
 Red. masses --      3.9081                 2.2438                 2.3971
 Frc consts  --      0.7004                 0.4447                 0.5239
 IR Inten    --     12.7808                17.5117                11.4420

                     25                     26                     27
                      A                      A                      A
 Frequencies --    621.0280               658.5715               671.4330
 Red. masses --      1.9660                 1.3818                 3.5528
 Frc consts  --      0.4467                 0.3531                 0.9437
 IR Inten    --      1.7355               107.6407                 1.8444

                     28                     29                     30
                      A                      A                      A
 Frequencies --    724.6717               740.2460               813.2865
 Red. masses --      6.1354                 4.3292                 1.3886
 Frc consts  --      1.8983                 1.3977                 0.5411
 IR Inten    --      1.2111                22.2046                 3.3267

                     31                     32                     33
                      A                      A                      A
 Frequencies --    820.8962               841.6362               856.5147
 Red. masses --      2.5487                 2.4334                 3.0109
 Frc consts  --      1.0119                 1.0156                 1.3014
 IR Inten    --      6.0347                21.2572                 2.7808

                     34                     35                     36
                      A                      A                      A
 Frequencies --    876.8659               899.7825               910.0952
 Red. masses --      1.8403                 1.7160                 1.6795
 Frc consts  --      0.8337                 0.8185                 0.8196
 IR Inten    --     31.7038                54.7654                12.2726

                     37                     38                     39
                      A                      A                      A
 Frequencies --    916.5245               941.8263               979.4487
 Red. masses --      2.6593                 1.7488                 1.4574
 Frc consts  --      1.3161                 0.9140                 0.8238
 IR Inten    --      1.2405                 0.3511                 6.7174

                     40                     41                     42
                      A                      A                      A
 Frequencies --    995.6517              1001.1866              1006.7334
 Red. masses --      1.2491                 1.8451                 1.7930
 Frc consts  --      0.7296                 1.0897                 1.0707
 IR Inten    --      1.3614                15.4622                 4.8811

                     43                     44                     45
                      A                      A                      A
 Frequencies --   1011.2392              1032.6201              1035.3952
 Red. masses --      1.9477                 1.6657                 1.6927
 Frc consts  --      1.1735                 1.0465                 1.0692
 IR Inten    --      1.8212                 7.7098                 1.0092

                     46                     47                     48
                      A                      A                      A
 Frequencies --   1087.4641              1099.8154              1105.2451
 Red. masses --      1.7163                 2.2885                 1.7574
 Frc consts  --      1.1958                 1.6309                 1.2648
 IR Inten    --      4.0432                21.0725                 3.0608

                     49                     50                     51
                      A                      A                      A
 Frequencies --   1108.4604              1123.6241              1179.8003
 Red. masses --      1.9273                 2.8405                 1.4357
 Frc consts  --      1.3952                 2.1129                 1.1774
 IR Inten    --      8.8858                32.8459                31.4235

                     52                     53                     54
                      A                      A                      A
 Frequencies --   1209.2074              1215.4174              1232.6710
 Red. masses --      2.2731                 1.4099                 1.3172
 Frc consts  --      1.9583                 1.2271                 1.1792
 IR Inten    --      9.6778                 4.5400                 5.3754

                     55                     56                     57
                      A                      A                      A
 Frequencies --   1248.8805              1274.2159              1277.2274
 Red. masses --      1.3169                 1.3010                 1.3244
 Frc consts  --      1.2102                 1.2445                 1.2729
 IR Inten    --      6.3430                 9.5511                21.9318

                     58                     59                     60
                      A                      A                      A
 Frequencies --   1315.4158              1323.2354              1340.9137
 Red. masses --      1.3379                 1.3885                 1.2125
 Frc consts  --      1.3639                 1.4324                 1.2845
 IR Inten    --      5.0627                 2.7858                26.6776

                     61                     62                     63
                      A                      A                      A
 Frequencies --   1343.8288              1360.4616              1365.1675
 Red. masses --      1.3386                 1.3178                 1.4306
 Frc consts  --      1.4243                 1.4370                 1.5709
 IR Inten    --      6.3395                13.5593                14.9581

                     64                     65                     66
                      A                      A                      A
 Frequencies --   1374.4591              1383.9617              1393.2683
 Red. masses --      1.3103                 1.3797                 1.1757
 Frc consts  --      1.4584                 1.5570                 1.3446
 IR Inten    --     27.5878                46.4096                 2.9277

                     67                     68                     69
                      A                      A                      A
 Frequencies --   1402.7820              1410.4711              1415.2190
 Red. masses --      1.7134                 1.7894                 1.3919
 Frc consts  --      1.9865                 2.0974                 1.6425
 IR Inten    --     86.5025                86.6098                 6.7857

                     70                     71                     72
                      A                      A                      A
 Frequencies --   1441.8103              1488.0484              1498.8638
 Red. masses --      1.2907                 1.1686                 1.2227
 Frc consts  --      1.5808                 1.5245                 1.6184
 IR Inten    --     15.6724                23.9599                36.4211

                     73                     74                     75
                      A                      A                      A
 Frequencies --   1499.5935              1504.6334              1511.4740
 Red. masses --      1.1017                 1.1625                 1.0727
 Frc consts  --      1.4597                 1.5507                 1.4439
 IR Inten    --     14.0953                11.0357                12.0130

                     76                     77                     78
                      A                      A                      A
 Frequencies --   1517.2758              1519.1839              1523.3187
 Red. masses --      1.0856                 1.0951                 1.1171
 Frc consts  --      1.4725                 1.4891                 1.5273
 IR Inten    --      0.0598                 6.1742                13.8122

                     79                     80                     81
                      A                      A                      A
 Frequencies --   1524.5228              1528.3718              1542.8244
 Red. masses --      1.0700                 1.0910                 1.1001
 Frc consts  --      1.4652                 1.5015                 1.5428
 IR Inten    --      6.0841                 7.0412                 1.5807

                     82                     83                     84
                      A                      A                      A
 Frequencies --   1543.1754              1781.5667              3020.9511
 Red. masses --      1.0718                 7.9869                 1.0837
 Frc consts  --      1.5039                14.9359                 5.8272
 IR Inten    --      6.2491               331.5371                36.5166

                     85                     86                     87
                      A                      A                      A
 Frequencies --   3038.4116              3044.4486              3052.7715
 Red. masses --      1.0638                 1.0693                 1.0481
 Frc consts  --      5.7863                 5.8394                 5.7547
 IR Inten    --     17.1889                47.0775                19.7520

                     88                     89                     90
                      A                      A                      A
 Frequencies --   3055.1924              3058.2045              3059.2816
 Red. masses --      1.0321                 1.0445                 1.0625
 Frc consts  --      5.6762                 5.7557                 5.8591
 IR Inten    --     36.3180                31.4893                33.3111

                     91                     92                     93
                      A                      A                      A
 Frequencies --   3070.6064              3081.7315              3086.2894
 Red. masses --      1.0597                 1.0636                 1.1017
 Frc consts  --      5.8866                 5.9514                 6.1831
 IR Inten    --     15.9219                22.0464                16.2412

                     94                     95                     96
                      A                      A                      A
 Frequencies --   3096.0105              3099.5483              3101.0915
 Red. masses --      1.0856                 1.0985                 1.1053
 Frc consts  --      6.1308                 6.2177                 6.2627
 IR Inten    --     13.7784                23.0911                36.3927

                     97                     98                     99
                      A                      A                      A
 Frequencies --   3114.1891              3118.3501              3125.6466
 Red. masses --      1.1010                 1.1050                 1.1015
 Frc consts  --      6.2913                 6.3308                 6.3404
 IR Inten    --     32.7732                14.1661                32.9693

                    100                    101                    102
                      A                      A                      A
 Frequencies --   3127.0186              3131.3719              3136.7096
 Red. masses --      1.1050                 1.1076                 1.1026
 Frc consts  --      6.3663                 6.3991                 6.3918
 IR Inten    --     52.3226                12.3654                26.5144

                    103                    104                    105
                      A                      A                      A
 Frequencies --   3156.9541              3436.7087              3567.9509
 Red. masses --      1.1031                 1.0735                 1.0756
 Frc consts  --      6.4776                 7.4706                 8.0672
 IR Inten    --      6.9070                 2.9406                34.8235

 - Thermochemistry -
 -------------------
 Temperature   298.150 Kelvin.  Pressure   1.00000 Atm.
 Atom     1 has atomic number  6 and mass  12.00000

 Molecular mass:   230.14529 amu.
 Principal axes and moments of inertia in atomic units:
                           1         2         3
     Eigenvalues --  1459.992498399.181818978.00005
           X            0.99998   0.00687   0.00009
           Y           -0.00687   0.99980  -0.01895
           Z           -0.00022   0.01895   0.99982
 This molecule is an asymmetric top.
 Rotational symmetry number  1.
 Warning -- assumption of classical behavior for rotation
           may cause significant error
 Rotational temperatures (Kelvin)      0.05932     0.01031     0.00965
 Rotational constants (GHZ):           1.23613     0.21487     0.20102
 Zero-point vibrational energy     868448.5 (Joules/Mol)
                                  207.56417 (Kcal/Mol)
 Warning -- explicit consideration of  24 degrees of freedom as
           vibrations may cause significant error
 Vibrational temperatures:     26.34    42.36    50.32    79.93    84.89
          (Kelvin)             98.22   102.14   167.26   195.84   250.35
                              278.74   282.45   338.12   380.57   417.78
                              439.86   477.01   502.63   580.25   645.49
                              748.73   793.51   834.44   876.27   893.52
                              947.54   966.04  1042.64  1065.05  1170.14
                             1181.09  1210.93  1232.33  1261.61  1294.59
                             1309.42  1318.67  1355.08  1409.21  1432.52
                             1440.48  1448.46  1454.95  1485.71  1489.70
                             1564.62  1582.39  1590.20  1594.83  1616.64
                             1697.47  1739.78  1748.71  1773.54  1796.86
                             1833.31  1837.65  1892.59  1903.84  1929.28
                             1933.47  1957.40  1964.17  1977.54  1991.21
                             2004.60  2018.29  2029.35  2036.18  2074.44
                             2140.97  2156.53  2157.58  2164.83  2174.67
                             2183.02  2185.77  2191.72  2193.45  2198.99
                             2219.78  2220.29  2563.28  4346.47  4371.60
                             4380.28  4392.26  4395.74  4400.07  4401.62
                             4417.92  4433.92  4440.48  4454.47  4459.56
                             4461.78  4480.62  4486.61  4497.11  4499.08
                             4505.35  4513.03  4542.15  4944.66  5133.49

 Zero-point correction=                           0.330775 (Hartree/Particle)
 Thermal correction to Energy=                    0.348240
 Thermal correction to Enthalpy=                  0.349184
 Thermal correction to Gibbs Free Energy=         0.282242
 Sum of electronic and zero-point Energies=          -1015.079307
 Sum of electronic and thermal Energies=             -1015.061842
 Sum of electronic and thermal Enthalpies=           -1015.060897
 Sum of electronic and thermal Free Energies=        -1015.127839

                     E (Thermal)             CV                S
                      KCal/Mol        Cal/Mol-Kelvin    Cal/Mol-Kelvin
 Total                  218.524             63.338            140.891
 Electronic               0.000              0.000              0.000
 Translational            0.889              2.981             42.203
 Rotational               0.889              2.981             33.065
 Vibrational            216.746             57.376             65.624
 Vibration     1          0.593              1.986              6.810
 Vibration     2          0.593              1.984              5.867
 Vibration     3          0.594              1.982              5.525
 Vibration     4          0.596              1.975              4.609
 Vibration     5          0.596              1.974              4.490
 Vibration     6          0.598              1.969              4.203
 Vibration     7          0.598              1.968              4.126
 Vibration     8          0.608              1.936              3.162
 Vibration     9          0.614              1.917              2.858
 Vibration    10          0.627              1.874              2.392
 Vibration    11          0.635              1.849              2.192
 Vibration    12          0.636              1.845              2.167
 Vibration    13          0.655              1.787              1.840
 Vibration    14          0.671              1.738              1.632
 Vibration    15          0.686              1.692              1.472
 Vibration    16          0.696              1.663              1.385
 Vibration    17          0.714              1.613              1.253
 Vibration    18          0.727              1.577              1.169
 Vibration    19          0.769              1.463              0.951
 Vibration    20          0.808              1.364              0.800
 Vibration    21          0.875              1.205              0.609
 Vibration    22          0.907              1.136              0.541
 Vibration    23          0.937              1.075              0.485
 Vibration    24          0.968              1.013              0.434

 Optimization completed.
    -- Stationary point found.
 Normal termination of Gaussian 16 at Thu Dec 10 15:14:08 2020.

 ----------------------------------------------------------------------
 # B3LYP/6-311++G(d,p) empiricaldispersion=gd3bj scf=xqc pop=npa geom=c
 heck
 ----------------------------------------------------------------------

 ---------------------------------------
 CID_115740095_JID_5026_Energie_neutraal
 ---------------------------------------
 Structure from the checkpoint file:  "JID_5026.chk"
 Charge =  0 Multiplicity = 1

 SCF Done:  E(RB3LYP) =  -1015.61928780     A.U. after   14 cycles
 Normal termination of Gaussian 16 at Thu Dec 10 15:21:46 2020.

 ----------------------------------------------------------------------
 # B3LYP/6-311++G(d,p) empiricaldispersion=gd3bj scf=xqc pop=npa geom=c
 heck
 ----------------------------------------------------------------------

 -------------------------------------
 CID_115740095_JID_5026_Energie_kation
 -------------------------------------
 Structure from the checkpoint file:  "JID_5026.chk"
 Charge =  1 Multiplicity = 2

 SCF Done:  E(UB3LYP) =  -1015.32783978     A.U. after   33 cycles
 SCF Done:  E(UB3LYP) =  -1015.32783978     a.u. after    2 cycles
 Normal termination of Gaussian 16 at Thu Dec 10 15:55:08 2020.
 Gaussian 16:  ES64L-G16RevA.03 25-Dec-2016

 ----------------------------------------------------------------------
 # B3LYP/6-311++G(d,p) empiricaldispersion=gd3bj scf=xqc pop=npa geom=c
 heck
 ----------------------------------------------------------------------

 ------------------------------------
 CID_115740095_JID_5026_Energie_anion
 ------------------------------------
 Structure from the checkpoint file:  "JID_5026.chk"
 Charge = -1 Multiplicity = 2

                         Standard orientation:
 ---------------------------------------------------------------------
 Center     Atomic      Atomic             Coordinates (Angstroms)
 Number     Number       Type             X           Y           Z
 ---------------------------------------------------------------------
      1          6           0       -1.261051   -1.807920    1.604567
      2          6           0       -0.808437   -1.138645    0.304332
      3          6           0       -1.807143   -1.340031   -0.858459
      4          6           0       -3.276097   -1.023696   -0.567199
      5         16           0       -3.559251    0.743475   -0.147651
      6          6           0       -5.370607    0.677102    0.060516
      7          7           0       -0.513224    0.267483    0.571522
      8          6           0        0.393665    1.078093   -0.061621
      9          8           0        0.422356    2.284940    0.151720
     10          6           0        1.421825    0.408858   -0.964693
     11          6           0        2.586340   -0.167657   -0.152656
     12          6           0        3.355301    0.882886    0.703752
     13          6           0        4.845876    0.481206    0.562144
     14          6           0        4.798195   -0.855954   -0.215170
     15          7           0        3.572933   -0.824949   -1.028557
     16          1           0       -2.146947   -1.311359    2.015897
     17          1           0       -0.466332   -1.753857    2.354294
     18          1           0       -1.508980   -2.861087    1.433957
     19          1           0        0.128981   -1.610058   -0.002580
     20          1           0       -1.467814   -0.747433   -1.716028
     21          1           0       -1.759597   -2.394320   -1.163786
     22          1           0       -3.875291   -1.259465   -1.453659
     23          1           0       -3.647344   -1.643717    0.256455
     24          1           0       -5.861368    0.369554   -0.868228
     25          1           0       -5.652553   -0.006263    0.867599
     26          1           0       -5.704164    1.685161    0.318689
     27          1           0       -1.199765    0.783451    1.111905
     28          1           0        0.984716   -0.380509   -1.584859
     29          1           0        1.796725    1.193995   -1.628775
     30          1           0        2.199774   -0.946315    0.519920
     31          1           0        3.166470    1.893213    0.329288
     32          1           0        3.014487    0.866501    1.743356
     33          1           0        5.391900    1.233346   -0.018766
     34          1           0        5.355575    0.386762    1.526548
     35          1           0        5.673904   -1.032451   -0.846827
     36          1           0        4.720099   -1.699029    0.483836
     37          1           0        3.741533   -0.204440   -1.823428
 ---------------------------------------------------------------------

 SCF Done:  E(UB3LYP) =  -1015.60918495     A.U. after   33 cycles
 SCF Done:  E(UB3LYP) =  -1015.60918495     a.u. after    1 cycles

 The electronic state is 2-A.
 Alpha  occ. eigenvalues --  -88.74679 -18.99244 -14.23813 -14.21297 -10.17943
 Alpha  occ. eigenvalues --  -10.12689 -10.11489 -10.10510 -10.10441 -10.10211
 Alpha  occ. eigenvalues --  -10.08931 -10.08670 -10.08054 -10.07503 -10.07290
 Alpha  occ. eigenvalues --   -7.83289  -5.79688  -5.79327  -5.78644  -0.94335
 Alpha  occ. eigenvalues --   -0.83803  -0.83236  -0.72356  -0.68995  -0.68086
 Alpha  occ. eigenvalues --   -0.67043  -0.63673  -0.59876  -0.57603  -0.53038
 Alpha  occ. eigenvalues --   -0.51495  -0.49894  -0.48619  -0.47914  -0.41249
 Alpha  occ. eigenvalues --   -0.39932  -0.39744  -0.38597  -0.37509  -0.35603
 Alpha  occ. eigenvalues --   -0.35306  -0.34356  -0.34036  -0.33532  -0.32790
 Alpha  occ. eigenvalues --   -0.31994  -0.30682  -0.30668  -0.29953  -0.28977
 Alpha  occ. eigenvalues --   -0.27844  -0.27220  -0.26523  -0.25815  -0.25614
 Alpha  occ. eigenvalues --   -0.24708  -0.24236  -0.23397  -0.22245  -0.16451
 Alpha  occ. eigenvalues --   -0.15970  -0.15351  -0.13347   0.03883
 Alpha virt. eigenvalues --    0.05226   0.06275   0.06774   0.07750   0.08107
 Alpha virt. eigenvalues --    0.08128   0.09186   0.09578   0.09692   0.10291
 Alpha virt. eigenvalues --    0.10728   0.10788   0.10896   0.11614   0.11786

  Beta  occ. eigenvalues --  -88.74676 -18.99243 -14.23810 -14.21287 -10.17941
  Beta  occ. eigenvalues --  -10.12683 -10.11480 -10.10476 -10.10422 -10.10173
  Beta  occ. eigenvalues --  -10.08926 -10.08651 -10.08039 -10.07499 -10.07250
  Beta  occ. eigenvalues --   -7.83286  -5.79686  -5.79319  -5.78642  -0.94332
  Beta  occ. eigenvalues --   -0.83784  -0.83225  -0.72321  -0.68973  -0.68058
  Beta  occ. eigenvalues --   -0.67017  -0.63621  -0.59847  -0.57532  -0.52983
  Beta  occ. eigenvalues --   -0.51445  -0.49868  -0.48573  -0.47869  -0.41219
  Beta  occ. eigenvalues --   -0.39907  -0.39720  -0.38560  -0.37481  -0.35576
  Beta  occ. eigenvalues --   -0.35274  -0.34330  -0.33994  -0.33495  -0.32750
  Beta  occ. eigenvalues --   -0.31962  -0.30646  -0.30636  -0.29931  -0.28946
  Beta  occ. eigenvalues --   -0.27823  -0.27181  -0.26493  -0.25789  -0.25590
  Beta  occ. eigenvalues --   -0.24666  -0.24217  -0.23374  -0.22191  -0.16443
  Beta  occ. eigenvalues --   -0.15959  -0.15334  -0.13331
  Beta virt. eigenvalues --    0.05740   0.06219   0.06917   0.07198   0.08175
  Beta virt. eigenvalues --    0.08369   0.08548   0.09573   0.09888   0.10042
  Beta virt. eigenvalues --    0.10495   0.10857   0.10948   0.11221   0.11755

 Mulliken charges and spin densities:
               1          2
     1  C    1.428456  -2.204921
     2  C   -1.118236   1.345622
     3  C   -0.222738  -0.383270
     4  C    0.417047  -0.589527
     5  S   -0.233763   0.085410
     6  C    0.298732  -0.688672
     7  N   -0.043282  -0.009052
     8  C   -0.199215  -0.073046
     9  O   -0.298645   0.000778
    10  C    0.041446  -0.235782
    11  C   -0.406837   0.230541
    12  C   -0.261292  -0.134154
    13  C   -0.049657  -0.367975
    14  C    0.265927  -0.618914
    15  N    0.016845   0.066770
    16  H    0.098138   0.067066
    17  H   -0.103745   0.259735
    18  H   -0.435100   0.602694
    19  H    0.123610   0.087892
    20  H    0.264828  -0.152092
    21  H   -0.466082   0.651702
    22  H   -0.290114   0.545388
    23  H    0.030900   0.157621
    24  H   -0.181208   0.338334
    25  H   -0.239793   0.412880
    26  H   -0.042932   0.203034
    27  H    0.298274  -0.029970
    28  H    0.068886   0.125854
    29  H    0.073145   0.128795
    30  H    0.072915   0.117269
    31  H    0.199169  -0.006588
    32  H    0.115611   0.052211
    33  H   -0.010885   0.131680
    34  H   -0.037814   0.172827
    35  H   -0.259734   0.442695
    36  H   -0.029452   0.165570
    37  H    0.116597   0.101594
 Sum of Mulliken charges =  -1.00000   1.00000

 Dipole moment (field-independent basis, Debye):
    X=              3.0378    Y=              3.0025    Z=             -0.1075  Tot=              4.2725
 Quadrupole moment (field-independent basis, Debye-Ang):
   XX=           -202.2235   YY=           -155.6273   ZZ=           -133.5911
   XY=             -5.6035   XZ=             -1.3597   YZ=             -0.1004

 Summary of Natural Population Analysis:

                                       Natural Population
                Natural  -----------------------------------------------
    Atom  No    Charge         Core      Valence    Rydberg      Total
 -----------------------------------------------------------------------
      C    1   -0.28946      0.99964     2.28333    0.00649     3.28946
      C    2   -0.01571      0.99959     2.00275    0.01338     3.01571
      C    3   -0.19660      0.99959     2.18623    0.01078     3.19660
      C    4   -0.24930      0.99959     2.23867    0.01104     3.24930
      S    5    0.08117      4.99963     2.90025    0.01895     7.91883
      C    6   -0.34965      0.99963     2.34397    0.00605     3.34965
      N    7   -0.32545      0.99965     2.81562    0.01018     3.82545
      C    8    0.34718      0.99967     1.63029    0.02286     2.65282
      O    9   -0.32407      0.99988     3.31877    0.00543     4.32407
      C   10   -0.23670      0.99956     2.22811    0.00903     3.23670
      C   11   -0.01101      0.99960     1.99786    0.01355     3.01101
      C   12   -0.20367      0.99962     2.19676    0.00729     3.20367
      C   13   -0.20165      0.99965     2.19520    0.00680     3.20165
      C   14   -0.08951      0.99964     2.08036    0.00951     3.08951
      N   15   -0.33211      0.99976     2.82039    0.01196     3.83211
      H   16    0.10099      0.00000     0.39750    0.00150     0.39901
      H   17    0.10407      0.00000     0.39476    0.00118     0.39593
      H   18    0.10576      0.00000     0.39284    0.00139     0.39424
      H   19    0.10107      0.00000     0.39652    0.00241     0.39893
      H   20    0.10019      0.00000     0.39819    0.00162     0.39981
      H   21    0.10764      0.00000     0.39081    0.00155     0.39236
      H   22    0.10503      0.00000     0.39291    0.00206     0.39497
      H   23    0.10230      0.00000     0.39526    0.00244     0.39770
      H   24    0.10210      0.00000     0.39608    0.00182     0.39790
      H   25    0.10294      0.00000     0.39523    0.00183     0.39706
      H   26    0.10570      0.00000     0.39344    0.00087     0.39430
      H   27    0.19835      0.00000     0.29789    0.00376     0.30165
      H   28    0.10905      0.00000     0.38953    0.00141     0.39095
      H   29    0.10814      0.00000     0.39061    0.00125     0.39186
      H   30    0.09223      0.00000     0.40583    0.00194     0.40777
      H   31    0.10517      0.00000     0.39353    0.00130     0.39483
      H   32    0.10247      0.00000     0.39648    0.00106     0.39753
      H   33    0.09399      0.00000     0.40450    0.00152     0.40601
      H   34    0.09897      0.00000     0.39972    0.00131     0.40103
      H   35    0.09552      0.00000     0.40315    0.00134     0.40448
      H   36    0.08941      0.00000     0.40905    0.00154     0.41059
      H   37    0.16548      0.00000     0.33172    0.00279     0.33452
 =======================================================================
   * Total *   -0.00000     18.99470    43.80411    0.20118    63.00000

 Normal termination of Gaussian 16 at Thu Dec 10 16:16:19 2020.
