 Gaussian 16, Revision A.03,

 -----------------------------------------------------------
 # opt freq B3LYP/6-31G(d) empiricaldispersion=gd3bj scf=xqc
 -----------------------------------------------------------

 --------------------------------
 CID_130598735_JID_10816_neutraal
 --------------------------------
 Symbolic Z-matrix:
 Charge =  0 Multiplicity = 1

 SCF Done:  E(RB3LYP) =  -855.651578967     A.U. after   14 cycles
 SCF Done:  E(RB3LYP) =  -855.658661683     A.U. after   12 cycles
 SCF Done:  E(RB3LYP) =  -855.660523000     A.U. after   12 cycles
 SCF Done:  E(RB3LYP) =  -855.661079767     A.U. after   12 cycles
 SCF Done:  E(RB3LYP) =  -855.661316107     A.U. after   12 cycles
 SCF Done:  E(RB3LYP) =  -855.661467635     A.U. after   11 cycles
 SCF Done:  E(RB3LYP) =  -855.661628058     A.U. after   12 cycles
 SCF Done:  E(RB3LYP) =  -855.661746697     A.U. after   12 cycles
 SCF Done:  E(RB3LYP) =  -855.661856211     A.U. after   12 cycles
 SCF Done:  E(RB3LYP) =  -855.661952792     A.U. after   12 cycles
 SCF Done:  E(RB3LYP) =  -855.662020652     A.U. after    7 cycles
 SCF Done:  E(RB3LYP) =  -855.662020815     A.U. after    7 cycles
 SCF Done:  E(RB3LYP) =  -855.662020945     A.U. after    7 cycles
 SCF Done:  E(RB3LYP) =  -855.662021028     A.U. after    7 cycles
 SCF Done:  E(RB3LYP) =  -855.662021052     A.U. after    7 cycles
 Optimization completed.
    -- Stationary point found.
 Normal termination of Gaussian 16 at Sat Dec 12 16:43:11 2020.

 --------------------------------------------------------------------
 #N Geom=AllCheck Guess=TCheck SCRF=Check GenChk RB3LYP/6-31G(d) Freq
 --------------------------------------------------------------------

 Structure from the checkpoint file:  "JID_10816.chk"
 --------------------------------
 CID_130598735_JID_10816_neutraal
 --------------------------------
 Charge =  0 Multiplicity = 1

 SCF Done:  E(RB3LYP) =  -855.662021052     A.U. after    1 cycles

  Exact polarizability: 254.349 -19.501 177.200   6.081   0.718 122.552
 Approx polarizability: 336.181 -33.383 296.638   5.902  -2.991 203.350

                      1                      2                      3
                      A                      A                      A
 Frequencies --     19.2376                29.9649                39.1947
 Red. masses --      4.4433                 4.4701                 3.8158
 Frc consts  --      0.0010                 0.0024                 0.0035
 IR Inten    --      0.3986                 0.3922                 1.7601

                      4                      5                      6
                      A                      A                      A
 Frequencies --     45.6612                77.7308                81.6122
 Red. masses --      3.9797                 4.3067                 1.2782
 Frc consts  --      0.0049                 0.0153                 0.0050
 IR Inten    --      2.6713                 1.4811                 1.1287

                      7                      8                      9
                      A                      A                      A
 Frequencies --     90.2787               131.3157               159.7821
 Red. masses --      3.4736                 3.2741                 1.2451
 Frc consts  --      0.0167                 0.0333                 0.0187
 IR Inten    --      4.1244                 2.5279                 0.9495

                     10                     11                     12
                      A                      A                      A
 Frequencies --    183.9158               197.8495               216.9740
 Red. masses --      2.4315                 3.6330                 3.6279
 Frc consts  --      0.0485                 0.0838                 0.1006
 IR Inten    --      1.3951                 3.4276                 3.3451

                     13                     14                     15
                      A                      A                      A
 Frequencies --    239.0942               259.5013               277.2102
 Red. masses --      1.4578                 3.8029                 2.7273
 Frc consts  --      0.0491                 0.1509                 0.1235
 IR Inten    --     26.6743                 2.0567                10.3139

                     16                     17                     18
                      A                      A                      A
 Frequencies --    308.6070               316.4360               339.3693
 Red. masses --      4.1989                 4.0998                 2.2287
 Frc consts  --      0.2356                 0.2419                 0.1512
 IR Inten    --      4.9357                 5.5658                 4.4695

                     19                     20                     21
                      A                      A                      A
 Frequencies --    375.9252               397.0030               416.6024
 Red. masses --      3.8223                 3.2318                 2.9997
 Frc consts  --      0.3183                 0.3001                 0.3067
 IR Inten    --      1.3557                 4.4867                 0.1936

                     22                     23                     24
                      A                      A                      A
 Frequencies --    435.9706               482.0728               573.7219
 Red. masses --      4.5078                 3.7494                 4.4515
 Frc consts  --      0.5048                 0.5134                 0.8633
 IR Inten    --      1.0846                 0.9703                 7.5258

                     25                     26                     27
                      A                      A                      A
 Frequencies --    595.4124               621.3116               632.6450
 Red. masses --      4.5941                 4.3186                 3.8432
 Frc consts  --      0.9596                 0.9822                 0.9063
 IR Inten    --     10.1167                 4.0698                 7.6511

                     28                     29                     30
                      A                      A                      A
 Frequencies --    637.8360               672.4374               688.0787
 Red. masses --      5.8567                 5.7228                 1.8754
 Frc consts  --      1.4039                 1.5246                 0.5231
 IR Inten    --      1.0905                 9.5037                 3.4557

                     31                     32                     33
                      A                      A                      A
 Frequencies --    697.5635               701.6840               715.6374
 Red. masses --      2.1166                 5.8823                 2.1903
 Frc consts  --      0.6068                 1.7064                 0.6609
 IR Inten    --      8.4890                 4.3260                20.6245

                     34                     35                     36
                      A                      A                      A
 Frequencies --    741.9048               754.3147               786.9538
 Red. masses --      2.4344                 3.7946                 5.4605
 Frc consts  --      0.7895                 1.2721                 1.9924
 IR Inten    --     23.1868                26.2964                 5.9586

                     37                     38                     39
                      A                      A                      A
 Frequencies --    808.2011               814.7943               831.2627
 Red. masses --      1.4016                 2.9175                 3.9313
 Frc consts  --      0.5394                 1.1412                 1.6005
 IR Inten    --     18.5959                10.3139                 4.2292

                     40                     41                     42
                      A                      A                      A
 Frequencies --    864.2844               902.3333               925.8872
 Red. masses --      1.2462                 1.4305                 1.5947
 Frc consts  --      0.5485                 0.6862                 0.8055
 IR Inten    --      0.1932               140.5785                17.7082

                     43                     44                     45
                      A                      A                      A
 Frequencies --    948.4612               972.4259               990.3014
 Red. masses --      2.4159                 1.3441                 3.2143
 Frc consts  --      1.2805                 0.7489                 1.8572
 IR Inten    --     16.3452                 0.2574                20.2481

                     46                     47                     48
                      A                      A                      A
 Frequencies --    999.3444              1022.4286              1027.1883
 Red. masses --      1.2838                 6.1785                 1.7357
 Frc consts  --      0.7554                 3.8054                 1.0790
 IR Inten    --      0.1909                 0.8613                12.3275

                     49                     50                     51
                      A                      A                      A
 Frequencies --   1061.4449              1069.7413              1077.5398
 Red. masses --      2.2379                 3.7859                 1.4591
 Frc consts  --      1.4856                 2.5526                 0.9982
 IR Inten    --      3.8181                10.8883                 2.7074

                     52                     53                     54
                      A                      A                      A
 Frequencies --   1081.4291              1086.8311              1121.5035
 Red. masses --      2.7659                 1.5236                 1.5903
 Frc consts  --      1.9058                 1.0603                 1.1785
 IR Inten    --     10.8859                 5.5557                 4.4253

                     55                     56                     57
                      A                      A                      A
 Frequencies --   1149.3625              1159.4550              1194.0077
 Red. masses --      1.7381                 1.3020                 1.9465
 Frc consts  --      1.3529                 1.0312                 1.6350
 IR Inten    --      2.5138                 0.0914                 5.7055

                     58                     59                     60
                      A                      A                      A
 Frequencies --   1194.6202              1217.3465              1231.9191
 Red. masses --      1.1057                 1.1453                 2.9914
 Frc consts  --      0.9297                 1.0000                 2.6748
 IR Inten    --      0.1776                 3.0883                 4.4350

                     61                     62                     63
                      A                      A                      A
 Frequencies --   1258.1105              1259.6579              1265.4816
 Red. masses --      1.6302                 3.4516                 2.1745
 Frc consts  --      1.5203                 3.2269                 2.0517
 IR Inten    --     14.1769                 1.4263                49.0572

                     64                     65                     66
                      A                      A                      A
 Frequencies --   1284.4271              1343.4714              1361.3200
 Red. masses --      2.4404                 4.0481                 3.2720
 Frc consts  --      2.3721                 4.3048                 3.5727
 IR Inten    --     89.2096                14.4938                 9.2396

                     67                     68                     69
                      A                      A                      A
 Frequencies --   1371.7291              1395.8826              1398.7227
 Red. masses --      1.8116                 1.9658                 2.8782
 Frc consts  --      2.0083                 2.2568                 3.3177
 IR Inten    --      6.5972                35.2563                20.9077

                     70                     71                     72
                      A                      A                      A
 Frequencies --   1426.6329              1433.8202              1454.2078
 Red. masses --      2.1232                 1.6057                 3.2807
 Frc consts  --      2.5460                 1.9449                 4.0876
 IR Inten    --      9.2110                 4.1374                54.6055

                     73                     74                     75
                      A                      A                      A
 Frequencies --   1475.6919              1488.6973              1505.8215
 Red. masses --      1.3716                 2.8839                 1.3163
 Frc consts  --      1.7598                 3.7657                 1.7586
 IR Inten    --     40.5463                35.8001                11.5094

                     76                     77                     78
                      A                      A                      A
 Frequencies --   1507.7726              1510.8409              1514.3444
 Red. masses --      1.7566                 1.0419                 1.1171
 Frc consts  --      2.3529                 1.4013                 1.5094
 IR Inten    --      6.9048                 6.9962                11.5420

                     79                     80                     81
                      A                      A                      A
 Frequencies --   1525.0106              1543.3624              1546.6203
 Red. masses --      1.3201                 1.6062                 1.7378
 Frc consts  --      1.8089                 2.2542                 2.4492
 IR Inten    --      9.6442                69.3928                27.5784

                     82                     83                     84
                      A                      A                      A
 Frequencies --   1549.6632              1575.2193              1602.2262
 Red. masses --      2.1801                 4.1523                 5.9382
 Frc consts  --      3.0846                 6.0705                 8.9815
 IR Inten    --     11.3529                 6.5700                29.5427

                     85                     86                     87
                      A                      A                      A
 Frequencies --   1649.4634              1653.5238              1669.0218
 Red. masses --      5.4704                 3.5195                 5.4884
 Frc consts  --      8.7692                 5.6697                 9.0079
 IR Inten    --      3.8457                43.1668                 2.7931

                     88                     89                     90
                      A                      A                      A
 Frequencies --   1697.8136              3036.6704              3055.8775
 Red. masses --      1.3983                 1.0422                 1.0339
 Frc consts  --      2.3749                 5.6624                 5.6886
 IR Inten    --     58.5266                39.8066                71.6686

                     91                     92                     93
                      A                      A                      A
 Frequencies --   3078.3663              3086.2602              3115.0080
 Red. masses --      1.0595                 1.0986                 1.1060
 Frc consts  --      5.9153                 6.1655                 6.3231
 IR Inten    --     33.3975                17.8613                22.2625

                     94                     95                     96
                      A                      A                      A
 Frequencies --   3121.4261              3153.2227              3161.4737
 Red. masses --      1.1054                 1.1023                 1.0972
 Frc consts  --      6.3457                 6.4572                 6.4611
 IR Inten    --      9.7675                10.1723                 5.9979

                     97                     98                     99
                      A                      A                      A
 Frequencies --   3176.0597              3185.3234              3195.3569
 Red. masses --      1.0868                 1.0867                 1.0907
 Frc consts  --      6.4591                 6.4965                 6.5615
 IR Inten    --      8.1795                 1.1546                19.6736

                    100                    101                    102
                      A                      A                      A
 Frequencies --   3204.1820              3211.7978              3250.6607
 Red. masses --      1.0940                 1.0980                 1.0957
 Frc consts  --      6.6176                 6.6736                 6.8218
 IR Inten    --     18.5227                23.0000                 8.4133

                    103                    104                    105
                      A                      A                      A
 Frequencies --   3269.5931              3444.6889              3557.5057
 Red. masses --      1.0974                 1.0539                 1.0882
 Frc consts  --      6.9120                 7.3680                 8.1142
 IR Inten    --      2.0849                 8.9801                11.5172

 - Thermochemistry -
 -------------------
 Temperature   298.150 Kelvin.  Pressure   1.00000 Atm.
 Atom     1 has atomic number  6 and mass  12.00000

 Molecular mass:   267.14840 amu.
 Principal axes and moments of inertia in atomic units:
                           1         2         3
     Eigenvalues --  2446.97316********************
           X            0.99985  -0.01700   0.00215
           Y            0.01700   0.99985   0.00151
           Z           -0.00217  -0.00147   1.00000
 This molecule is an asymmetric top.
 Rotational symmetry number  1.
 Warning -- assumption of classical behavior for rotation
           may cause significant error
 Rotational temperatures (Kelvin)      0.03540     0.00815     0.00735
 Rotational constants (GHZ):           0.73754     0.16989     0.15309
 Zero-point vibrational energy     803082.8 (Joules/Mol)
                                  191.94139 (Kcal/Mol)
 Warning -- explicit consideration of  25 degrees of freedom as
           vibrations may cause significant error
 Vibrational temperatures:     27.68    43.11    56.39    65.70   111.84
          (Kelvin)            117.42   129.89   188.93   229.89   264.61
                              284.66   312.18   344.00   373.36   398.84
                              444.02   455.28   488.28   540.87   571.20
                              599.40   627.26   693.60   825.46   856.67
                              893.93   910.24   917.70   967.49   989.99
                             1003.64  1009.57  1029.64  1067.44  1085.29
                             1132.25  1162.82  1172.31  1196.00  1243.51
                             1298.26  1332.15  1364.62  1399.10  1424.82
                             1437.83  1471.05  1477.89  1527.18  1539.12
                             1550.34  1555.94  1563.71  1613.59  1653.68
                             1668.20  1717.91  1718.79  1751.49  1772.46
                             1810.14  1812.37  1820.75  1848.00  1932.96
                             1958.64  1973.61  2008.36  2012.45  2052.61
                             2062.95  2092.28  2123.19  2141.90  2166.54
                             2169.35  2173.76  2178.80  2194.15  2220.55
                             2225.24  2229.62  2266.39  2305.25  2373.21
                             2379.05  2401.35  2442.78  4369.09  4396.73
                             4429.08  4440.44  4481.80  4491.04  4536.78
                             4548.66  4569.64  4582.97  4597.41  4610.10
                             4621.06  4676.98  4704.22  4956.14  5118.46

 Zero-point correction=                           0.305878 (Hartree/Particle)
 Thermal correction to Energy=                    0.324208
 Thermal correction to Enthalpy=                  0.325153
 Thermal correction to Gibbs Free Energy=         0.256994
 Sum of electronic and zero-point Energies=           -855.356143
 Sum of electronic and thermal Energies=              -855.337813
 Sum of electronic and thermal Enthalpies=            -855.336869
 Sum of electronic and thermal Free Energies=         -855.405027

                     E (Thermal)             CV                S
                      KCal/Mol        Cal/Mol-Kelvin    Cal/Mol-Kelvin
 Total                  203.444             68.974            143.452
 Electronic               0.000              0.000              0.000
 Translational            0.889              2.981             42.647
 Rotational               0.889              2.981             34.082
 Vibrational            201.666             63.013             66.723
 Vibration     1          0.593              1.986              6.711
 Vibration     2          0.594              1.984              5.832
 Vibration     3          0.594              1.981              5.299
 Vibration     4          0.595              1.979              4.997
 Vibration     5          0.599              1.964              3.947
 Vibration     6          0.600              1.962              3.852
 Vibration     7          0.602              1.956              3.654
 Vibration     8          0.612              1.922              2.927
 Vibration     9          0.622              1.892              2.552
 Vibration    10          0.631              1.862              2.288
 Vibration    11          0.637              1.843              2.153
 Vibration    12          0.646              1.815              1.984
 Vibration    13          0.657              1.781              1.810
 Vibration    14          0.668              1.747              1.665
 Vibration    15          0.678              1.716              1.551
 Vibration    16          0.698              1.657              1.370
 Vibration    17          0.703              1.642              1.328
 Vibration    18          0.719              1.597              1.215
 Vibration    19          0.747              1.521              1.056
 Vibration    20          0.764              1.477              0.974
 Vibration    21          0.780              1.434              0.904
 Vibration    22          0.796              1.392              0.839
 Vibration    23          0.838              1.290              0.704
 Vibration    24          0.930              1.088              0.497
 Vibration    25          0.953              1.042              0.458

 Optimization completed.
    -- Stationary point found.
 Normal termination of Gaussian 16 at Sat Dec 12 17:00:53 2020.

 ----------------------------------------------------------------------
 # B3LYP/6-311++G(d,p) empiricaldispersion=gd3bj scf=xqc pop=npa geom=c
 heck
 ----------------------------------------------------------------------

 ----------------------------------------
 CID_130598735_JID_10816_Energie_neutraal
 ----------------------------------------
 Structure from the checkpoint file:  "JID_10816.chk"
 Charge =  0 Multiplicity = 1

 SCF Done:  E(RB3LYP) =  -855.889647282     A.U. after   16 cycles
 Normal termination of Gaussian 16 at Sat Dec 12 17:08:01 2020.

 ----------------------------------------------------------------------
 # B3LYP/6-311++G(d,p) empiricaldispersion=gd3bj scf=xqc pop=npa geom=c
 heck
 ----------------------------------------------------------------------

 --------------------------------------
 CID_130598735_JID_10816_Energie_kation
 --------------------------------------
 Structure from the checkpoint file:  "JID_10816.chk"
 Charge =  1 Multiplicity = 2

 SCF Done:  E(UB3LYP) =  -855.643184683     A.U. after   22 cycles
 Normal termination of Gaussian 16 at Sat Dec 12 17:21:42 2020.
 Gaussian 16:  ES64L-G16RevA.03 25-Dec-2016

 ----------------------------------------------------------------------
 # B3LYP/6-311++G(d,p) empiricaldispersion=gd3bj scf=xqc pop=npa geom=c
 heck
 ----------------------------------------------------------------------

 -------------------------------------
 CID_130598735_JID_10816_Energie_anion
 -------------------------------------
 Structure from the checkpoint file:  "JID_10816.chk"
 Charge = -1 Multiplicity = 2

                         Standard orientation:
 ---------------------------------------------------------------------
 Center     Atomic      Atomic             Coordinates (Angstroms)
 Number     Number       Type             X           Y           Z
 ---------------------------------------------------------------------
      1          6           0       -1.633445    2.760930   -0.804704
      2          6           0       -0.582945    1.835484   -0.290923
      3          7           0        0.644936    1.742050   -0.744217
      4          6           0        1.267894    0.759582    0.014088
      5          6           0        0.379830    0.262120    0.945907
      6          7           0       -0.805064    0.950832    0.753516
      7          6           0       -2.085924    0.656653    1.384633
      8          6           0       -2.980489   -0.208013    0.519999
      9          6           0       -4.224756    0.258113    0.089890
     10          6           0       -5.041324   -0.538643   -0.715711
     11          6           0       -4.613880   -1.809068   -1.098037
     12          6           0       -3.369894   -2.280850   -0.669608
     13          6           0       -2.557054   -1.486644    0.135554
     14          7           0        0.488885   -0.754656    1.915169
     15          6           0        2.650343    0.337786   -0.173547
     16          6           0        3.143672   -0.953740   -0.115463
     17          7           0        4.509201   -0.851816   -0.308778
     18          6           0        4.772174    0.480086   -0.481159
     19          7           0        3.691368    1.223358   -0.402633
     20          6           0        5.462155   -1.942432   -0.353185
     21          1           0       -2.486178    2.218064   -1.230722
     22          1           0       -1.186751    3.379229   -1.585569
     23          1           0       -2.022285    3.422811   -0.019213
     24          1           0       -1.876979    0.153319    2.332625
     25          1           0       -2.583821    1.601823    1.621376
     26          1           0       -4.556722    1.250856    0.384918
     27          1           0       -6.006036   -0.163817   -1.046021
     28          1           0       -5.244959   -2.430157   -1.727453
     29          1           0       -3.034439   -3.271473   -0.964019
     30          1           0       -1.590640   -1.849305    0.474514
     31          1           0        1.429743   -1.139883    1.874851
     32          1           0        0.352001   -0.392046    2.859357
     33          1           0        2.653327   -1.913504   -0.037998
     34          1           0        5.778616    0.839731   -0.654612
     35          1           0        6.457771   -1.533251   -0.538889
     36          1           0        5.478233   -2.486253    0.597441
     37          1           0        5.215689   -2.642705   -1.158393
 ---------------------------------------------------------------------

 SCF Done:  E(UB3LYP) =  -855.883586567     A.U. after   33 cycles
 SCF Done:  E(UB3LYP) =  -855.883586567     a.u. after    1 cycles

 The electronic state is 2-A.
 Alpha  occ. eigenvalues --  -14.27603 -14.26664 -14.22583 -14.19267 -14.18745
 Alpha  occ. eigenvalues --  -10.13289 -10.13031 -10.12618 -10.12522 -10.12278
 Alpha  occ. eigenvalues --  -10.09908 -10.09730 -10.09646 -10.09544 -10.09461
 Alpha  occ. eigenvalues --  -10.09447 -10.09347 -10.08809 -10.08586 -10.08123
 Alpha  occ. eigenvalues --   -0.92404  -0.92008  -0.81448  -0.79755  -0.78762
 Alpha  occ. eigenvalues --   -0.76998  -0.68792  -0.67905  -0.66703  -0.65693
 Alpha  occ. eigenvalues --   -0.62850  -0.61685  -0.58160  -0.53060  -0.52456
 Alpha  occ. eigenvalues --   -0.51533  -0.48855  -0.47472  -0.45988  -0.43917
 Alpha  occ. eigenvalues --   -0.43468  -0.41974  -0.39576  -0.38706  -0.38252
 Alpha  occ. eigenvalues --   -0.37862  -0.36558  -0.36181  -0.35203  -0.34437
 Alpha  occ. eigenvalues --   -0.34092  -0.33520  -0.32912  -0.31734  -0.31197
 Alpha  occ. eigenvalues --   -0.30724  -0.30188  -0.29641  -0.29171  -0.28344
 Alpha  occ. eigenvalues --   -0.26906  -0.26330  -0.22027  -0.18567  -0.17684
 Alpha  occ. eigenvalues --   -0.17573  -0.17518  -0.16910  -0.16234  -0.13957
 Alpha  occ. eigenvalues --   -0.09268   0.03529
 Alpha virt. eigenvalues --    0.04974   0.05629   0.06117   0.06534   0.06609
 Alpha virt. eigenvalues --    0.07656   0.07787   0.08233   0.08808   0.08847
 Alpha virt. eigenvalues --    0.09920   0.10598   0.10972   0.11322   0.11544

  Beta  occ. eigenvalues --  -14.27599 -14.26659 -14.22531 -14.19268 -14.18744
  Beta  occ. eigenvalues --  -10.13272 -10.13026 -10.12619 -10.12513 -10.12219
  Beta  occ. eigenvalues --  -10.09852 -10.09715 -10.09635 -10.09539 -10.09463
  Beta  occ. eigenvalues --  -10.09442 -10.09298 -10.08788 -10.08579 -10.08123
  Beta  occ. eigenvalues --   -0.92394  -0.91999  -0.81383  -0.79722  -0.78729
  Beta  occ. eigenvalues --   -0.76955  -0.68707  -0.67885  -0.66659  -0.65667
  Beta  occ. eigenvalues --   -0.62789  -0.61634  -0.58128  -0.53034  -0.52417
  Beta  occ. eigenvalues --   -0.51457  -0.48813  -0.47445  -0.45954  -0.43867
  Beta  occ. eigenvalues --   -0.43417  -0.41907  -0.39533  -0.38662  -0.38201
  Beta  occ. eigenvalues --   -0.37814  -0.36522  -0.36151  -0.35157  -0.34412
  Beta  occ. eigenvalues --   -0.34062  -0.33476  -0.32890  -0.31691  -0.31178
  Beta  occ. eigenvalues --   -0.30699  -0.30165  -0.29614  -0.29154  -0.28217
  Beta  occ. eigenvalues --   -0.26865  -0.26300  -0.21991  -0.18531  -0.17598
  Beta  occ. eigenvalues --   -0.17545  -0.17345  -0.16900  -0.16145  -0.13934
  Beta  occ. eigenvalues --   -0.09245
  Beta virt. eigenvalues --    0.05333   0.06061   0.06214   0.06403   0.06600
  Beta virt. eigenvalues --    0.07161   0.07995   0.08337   0.08597   0.08943
  Beta virt. eigenvalues --    0.09073   0.10204   0.10813   0.11164   0.11496

 Mulliken charges and spin densities:
               1          2
     1  C   -0.658465   0.003089
     2  C    0.128641   0.035255
     3  N   -0.066706   0.036819
     4  C    1.178300  -1.074199
     5  C   -0.980546   0.461972
     6  N    0.278578  -0.034434
     7  C    0.751924  -1.298224
     8  C    0.564566   0.471429
     9  C   -0.030311  -0.317060
    10  C   -0.017065  -0.314547
    11  C   -0.008662  -0.280340
    12  C   -0.476815   0.194652
    13  C   -0.868511   0.651448
    14  N   -0.455134   0.120765
    15  C   -0.178596  -0.592199
    16  C   -0.083578  -0.065871
    17  N   -0.184459   0.214590
    18  C    0.119330   0.176341
    19  N   -0.117994   0.010961
    20  C    1.326099  -1.652540
    21  H    0.156659   0.005481
    22  H    0.182827  -0.007370
    23  H    0.103524   0.054825
    24  H   -0.289298   0.452886
    25  H   -0.088592   0.274422
    26  H   -0.077905   0.214052
    27  H    0.002707   0.160787
    28  H    0.083325   0.046558
    29  H    0.023580   0.148557
    30  H    0.136856   0.063375
    31  H   -0.043031   0.311576
    32  H   -0.175854   0.450388
    33  H   -0.042662   0.223134
    34  H    0.005577   0.166491
    35  H   -0.434338   0.567425
    36  H   -0.530277   0.717946
    37  H   -0.233692   0.401556
 Sum of Mulliken charges =  -1.00000   1.00000

 Dipole moment (field-independent basis, Debye):
    X=             -7.6772    Y=              1.8386    Z=             -2.2807  Tot=              8.2171
 Quadrupole moment (field-independent basis, Debye-Ang):
   XX=           -215.1137   YY=           -159.7887   ZZ=           -155.8567
   XY=              8.9354   XZ=              1.9942   YZ=              7.8828

 Summary of Natural Population Analysis:

                                       Natural Population
                Natural  -----------------------------------------------
    Atom  No    Charge         Core      Valence    Rydberg      Total
 -----------------------------------------------------------------------
      C    1   -0.30807      0.99963     2.30427    0.00417     3.30807
      C    2    0.19144      0.99962     1.79297    0.01596     2.80856
      N    3   -0.24073      0.99968     2.73298    0.00807     3.74073
      C    4    0.01073      0.99942     1.97500    0.01484     2.98927
      C    5    0.16702      0.99944     1.82006    0.01348     2.83298
      N    6   -0.21897      0.99958     2.70893    0.01045     3.71897
      C    7   -0.09173      0.99957     2.07938    0.01278     3.09173
      C    8   -0.01602      0.99949     2.00690    0.00963     3.01602
      C    9   -0.10392      0.99951     2.09450    0.00991     3.10392
      C   10   -0.10178      0.99957     2.09268    0.00954     3.10178
      C   11   -0.09828      0.99957     2.08915    0.00957     3.09828
      C   12   -0.09940      0.99957     2.09085    0.00899     3.09940
      C   13   -0.09251      0.99951     2.08350    0.00950     3.09251
      N   14   -0.41220      0.99973     2.90214    0.01033     3.91220
      C   15    0.04614      0.99952     1.93883    0.01551     2.95386
      C   16   -0.03812      0.99951     2.02718    0.01143     3.03812
      N   17   -0.20646      0.99966     2.69654    0.01026     3.70646
      C   18    0.10669      0.99963     1.87613    0.01756     2.89331
      N   19   -0.24417      0.99971     2.73542    0.00904     3.74417
      C   20   -0.17172      0.99964     2.16426    0.00782     3.17172
      H   21    0.10605      0.00000     0.39276    0.00119     0.39395
      H   22    0.11446      0.00000     0.38469    0.00085     0.38554
      H   23    0.10040      0.00000     0.39844    0.00116     0.39960
      H   24    0.11283      0.00000     0.38523    0.00194     0.38717
      H   25    0.10190      0.00000     0.39681    0.00128     0.39810
      H   26    0.09954      0.00000     0.39944    0.00102     0.40046
      H   27    0.09879      0.00000     0.40040    0.00081     0.40121
      H   28    0.09808      0.00000     0.40119    0.00073     0.40192
      H   29    0.10037      0.00000     0.39887    0.00076     0.39963
      H   30    0.11262      0.00000     0.38548    0.00190     0.38738
      H   31    0.19308      0.00000     0.30440    0.00252     0.30692
      H   32    0.18438      0.00000     0.31228    0.00334     0.31562
      H   33    0.10500      0.00000     0.39383    0.00118     0.39500
      H   34    0.09039      0.00000     0.40844    0.00117     0.40961
      H   35    0.10223      0.00000     0.39609    0.00168     0.39777
      H   36    0.10356      0.00000     0.39325    0.00319     0.39644
      H   37    0.09838      0.00000     0.40027    0.00135     0.40162
 =======================================================================
   * Total *   -0.00000     19.99155    50.76355    0.24490    71.00000

 Normal termination of Gaussian 16 at Sat Dec 12 17:42:45 2020.
