 Gaussian 16, Revision A.03,

 -----------------------------------------------------------
 # opt freq B3LYP/6-31G(d) empiricaldispersion=gd3bj scf=xqc
 -----------------------------------------------------------

 -----------------------------
 CID_215154_JID_10206_neutraal
 -----------------------------
 Symbolic Z-matrix:
 Charge =  0 Multiplicity = 1

 SCF Done:  E(RB3LYP) =  -917.755780074     A.U. after   14 cycles
 SCF Done:  E(RB3LYP) =  -917.762240737     A.U. after   13 cycles
 SCF Done:  E(RB3LYP) =  -917.762459494     A.U. after   14 cycles
 SCF Done:  E(RB3LYP) =  -917.763333607     A.U. after   13 cycles
 SCF Done:  E(RB3LYP) =  -917.763615282     A.U. after   12 cycles
 SCF Done:  E(RB3LYP) =  -917.763778833     A.U. after   12 cycles
 SCF Done:  E(RB3LYP) =  -917.763841406     A.U. after   11 cycles
 SCF Done:  E(RB3LYP) =  -917.763911841     A.U. after   11 cycles
 SCF Done:  E(RB3LYP) =  -917.763984490     A.U. after   12 cycles
 SCF Done:  E(RB3LYP) =  -917.764016582     A.U. after   12 cycles
 SCF Done:  E(RB3LYP) =  -917.764740766     A.U. after   10 cycles
 SCF Done:  E(RB3LYP) =  -917.764741151     A.U. after   10 cycles
 SCF Done:  E(RB3LYP) =  -917.764741181     A.U. after    8 cycles
 SCF Done:  E(RB3LYP) =  -917.764741203     A.U. after    6 cycles
 Optimization completed.
    -- Stationary point found.
 Normal termination of Gaussian 16 at Sat Dec 12 15:25:49 2020.

 --------------------------------------------------------------------
 #N Geom=AllCheck Guess=TCheck SCRF=Check GenChk RB3LYP/6-31G(d) Freq
 --------------------------------------------------------------------

 Structure from the checkpoint file:  "JID_10206.chk"
 -----------------------------
 CID_215154_JID_10206_neutraal
 -----------------------------
 Charge =  0 Multiplicity = 1

 SCF Done:  E(RB3LYP) =  -917.764741202     A.U. after    1 cycles

  Exact polarizability: 146.195  24.570 173.405  -4.000   1.393 163.235
 Approx polarizability: 206.383  51.978 268.671  -7.884  11.920 295.379

                      1                      2                      3
                      A                      A                      A
 Frequencies --     29.0971                32.7043                41.1706
 Red. masses --      4.4156                 5.5582                 4.8832
 Frc consts  --      0.0022                 0.0035                 0.0049
 IR Inten    --      0.4548                 0.3983                 0.3362

                      4                      5                      6
                      A                      A                      A
 Frequencies --     68.1099                80.4289               103.4429
 Red. masses --      5.6665                 5.1835                 3.5085
 Frc consts  --      0.0155                 0.0198                 0.0221
 IR Inten    --      1.1277                 0.0194                 0.2139

                      7                      8                      9
                      A                      A                      A
 Frequencies --    115.3043               135.9366               156.4350
 Red. masses --      2.8167                 7.7663                 6.3487
 Frc consts  --      0.0221                 0.0846                 0.0915
 IR Inten    --      0.6432                 3.4716                 2.8304

                     10                     11                     12
                      A                      A                      A
 Frequencies --    186.3298               201.7801               221.8791
 Red. masses --      2.7126                 2.1979                 1.4244
 Frc consts  --      0.0555                 0.0527                 0.0413
 IR Inten    --      0.9783                 3.3548                 0.2225

                     13                     14                     15
                      A                      A                      A
 Frequencies --    233.8829               236.4646               288.6734
 Red. masses --      1.7277                 2.1741                 4.8249
 Frc consts  --      0.0557                 0.0716                 0.2369
 IR Inten    --      1.5151                 2.1077                 1.3221

                     16                     17                     18
                      A                      A                      A
 Frequencies --    318.2956               359.6553               391.5556
 Red. masses --      1.9625                 2.3178                 7.0285
 Frc consts  --      0.1171                 0.1766                 0.6349
 IR Inten    --      1.4156                 0.1960                18.4292

                     19                     20                     21
                      A                      A                      A
 Frequencies --    397.6735               409.5054               420.5406
 Red. masses --      5.5702                 5.5738                 2.9797
 Frc consts  --      0.5190                 0.5507                 0.3105
 IR Inten    --      8.7829                26.6399                 0.1057

                     22                     23                     24
                      A                      A                      A
 Frequencies --    433.9321               472.3511               500.8545
 Red. masses --      6.4853                 4.2803                 4.6146
 Frc consts  --      0.7195                 0.5627                 0.6820
 IR Inten    --      7.5190                11.3860                 2.2255

                     25                     26                     27
                      A                      A                      A
 Frequencies --    504.1220               525.6924               605.4329
 Red. masses --      4.6296                 3.1060                 4.0015
 Frc consts  --      0.6932                 0.5057                 0.8642
 IR Inten    --      4.9039                 8.6579                 2.5727

                     28                     29                     30
                      A                      A                      A
 Frequencies --    608.8051               620.2102               637.7996
 Red. masses --      5.8825                 2.8408                 6.2294
 Frc consts  --      1.2846                 0.6438                 1.4930
 IR Inten    --      4.1113                22.7536                 0.2958

                     31                     32                     33
                      A                      A                      A
 Frequencies --    690.2636               691.2567               717.7664
 Red. masses --      5.1085                 1.4720                 2.5291
 Frc consts  --      1.4341                 0.4144                 0.7677
 IR Inten    --      2.4342                58.5716                33.8008

                     34                     35                     36
                      A                      A                      A
 Frequencies --    720.0487               754.9775               767.1769
 Red. masses --      2.1089                 9.5373                 1.9424
 Frc consts  --      0.6442                 3.2029                 0.6736
 IR Inten    --     14.4493                54.9951                13.2575

                     37                     38                     39
                      A                      A                      A
 Frequencies --    784.8266               823.8145               831.9811
 Red. masses --      1.8014                 2.6012                 3.6011
 Frc consts  --      0.6537                 1.0401                 1.4686
 IR Inten    --      4.9539                12.3441                 0.5661

                     40                     41                     42
                      A                      A                      A
 Frequencies --    866.0932               867.6404               915.3391
 Red. masses --      1.3292                 3.2241                 1.7352
 Frc consts  --      0.5874                 1.4300                 0.8566
 IR Inten    --      1.4164                 6.9835                 2.1381

                     43                     44                     45
                      A                      A                      A
 Frequencies --    923.9481               944.3806               957.4710
 Red. masses --      1.5016                 1.6253                 2.1985
 Frc consts  --      0.7553                 0.8540                 1.1875
 IR Inten    --      1.2067                 1.9544                 4.1083

                     46                     47                     48
                      A                      A                      A
 Frequencies --    975.4322               995.8518              1000.0802
 Red. masses --      1.3522                 1.2423                 2.5715
 Frc consts  --      0.7580                 0.7259                 1.5153
 IR Inten    --      1.1254                 0.5566                 1.8136

                     49                     50                     51
                      A                      A                      A
 Frequencies --   1023.1811              1036.2273              1060.8906
 Red. masses --      6.1930                 1.9139                 2.2292
 Frc consts  --      3.8199                 1.2108                 1.4782
 IR Inten    --      0.4452                18.3520                 1.2105

                     52                     53                     54
                      A                      A                      A
 Frequencies --   1079.4341              1098.7297              1119.7272
 Red. masses --      1.4712                 1.7255                 2.9854
 Frc consts  --      1.0100                 1.2273                 2.2053
 IR Inten    --      3.7975                 4.6449                11.7413

                     55                     56                     57
                      A                      A                      A
 Frequencies --   1135.1446              1145.7473              1163.2142
 Red. masses --      2.1212                 1.9450                 1.6503
 Frc consts  --      1.6104                 1.5044                 1.3156
 IR Inten    --      7.2637                 2.4856                 2.1942

                     58                     59                     60
                      A                      A                      A
 Frequencies --   1180.0696              1194.0225              1203.6701
 Red. masses --      2.7007                 1.0995                 2.5450
 Frc consts  --      2.2158                 0.9235                 2.1725
 IR Inten    --     14.3212                 0.0224                49.2562

                     61                     62                     63
                      A                      A                      A
 Frequencies --   1218.0449              1235.3903              1264.4823
 Red. masses --      1.1705                 2.4529                 2.0089
 Frc consts  --      1.0232                 2.2056                 1.8925
 IR Inten    --      2.0704                 0.9755                41.8079

                     64                     65                     66
                      A                      A                      A
 Frequencies --   1279.3458              1284.9229              1339.5723
 Red. masses --      1.7778                 1.4172                 1.5897
 Frc consts  --      1.7143                 1.3786                 1.6807
 IR Inten    --     12.8317                 6.3234                 3.1489

                     67                     68                     69
                      A                      A                      A
 Frequencies --   1349.7636              1363.4596              1365.8003
 Red. masses --      1.4665                 3.3746                 2.4770
 Frc consts  --      1.5741                 3.6962                 2.7224
 IR Inten    --     41.6524                25.7072               183.4884

                     70                     71                     72
                      A                      A                      A
 Frequencies --   1372.3616              1397.7934              1401.1392
 Red. masses --      1.3471                 1.4165                 1.3783
 Frc consts  --      1.4948                 1.6307                 1.5943
 IR Inten    --      0.7565                22.3862                17.0114

                     73                     74                     75
                      A                      A                      A
 Frequencies --   1410.9714              1435.1171              1440.9371
 Red. masses --      2.0534                 1.3014                 1.6747
 Frc consts  --      2.4086                 1.5792                 2.0487
 IR Inten    --     80.7575                27.1619                79.3082

                     76                     77                     78
                      A                      A                      A
 Frequencies --   1444.4516              1467.3283              1501.9123
 Red. masses --      1.8254                 1.9721                 1.9923
 Frc consts  --      2.2439                 2.5017                 2.6478
 IR Inten    --     81.7386               129.2702                 8.1804

                     79                     80                     81
                      A                      A                      A
 Frequencies --   1508.3636              1517.1659              1523.9304
 Red. masses --      1.0847                 1.0692                 1.1386
 Frc consts  --      1.4540                 1.4501                 1.5579
 IR Inten    --     19.5950                 3.2752                13.7232

                     82                     83                     84
                      A                      A                      A
 Frequencies --   1536.8217              1537.9626              1541.8957
 Red. masses --      1.0399                 1.0515                 1.0600
 Frc consts  --      1.4471                 1.4654                 1.4847
 IR Inten    --      7.9698                 2.8208                 8.4988

                     85                     86                     87
                      A                      A                      A
 Frequencies --   1548.3992              1644.7139              1667.2226
 Red. masses --      2.1866                 5.4341                 5.5376
 Frc consts  --      3.0888                 8.6609                 9.0690
 IR Inten    --      9.7915                 1.4553                 4.0246

                     88                     89                     90
                      A                      A                      A
 Frequencies --   1773.6234              1810.9821              1836.5999
 Red. masses --     11.8769                 8.1768                12.0505
 Frc consts  --     22.0129                15.8002                23.9489
 IR Inten    --    367.9387               475.6593                51.7090

                     91                     92                     93
                      A                      A                      A
 Frequencies --   2992.7344              3059.9838              3060.8162
 Red. masses --      1.0801                 1.0351                 1.0581
 Frc consts  --      5.6994                 5.7102                 5.8408
 IR Inten    --      3.0263                19.3186                 7.8885

                     94                     95                     96
                      A                      A                      A
 Frequencies --   3065.5092              3091.7995              3122.9819
 Red. masses --      1.0475                 1.0612                 1.1034
 Frc consts  --      5.7999                 5.9768                 6.3405
 IR Inten    --     45.8859                11.1035                 3.3387

                     97                     98                     99
                      A                      A                      A
 Frequencies --   3125.6521              3128.3734              3128.4575
 Red. masses --      1.1019                 1.0944                 1.1000
 Frc consts  --      6.3426                 6.3108                 6.3429
 IR Inten    --     24.0457                15.6451                21.3271

                    100                    101                    102
                      A                      A                      A
 Frequencies --   3144.6841              3147.7450              3175.1364
 Red. masses --      1.1054                 1.0892                 1.0984
 Frc consts  --      6.4405                 6.3585                 6.5243
 IR Inten    --     22.2548                 4.4490                 5.5965

                    103                    104                    105
                      A                      A                      A
 Frequencies --   3182.1807              3187.0470              3196.2242
 Red. masses --      1.0852                 1.0874                 1.0908
 Frc consts  --      6.4748                 6.5078                 6.5652
 IR Inten    --      3.2686                 0.5694                11.9408

                    106                    107                    108
                      A                      A                      A
 Frequencies --   3203.4803              3212.7264              3600.4339
 Red. masses --      1.0942                 1.0980                 1.0772
 Frc consts  --      6.6159                 6.6776                 8.2271
 IR Inten    --     25.5922                13.8587                65.3505

 - Thermochemistry -
 -------------------
 Temperature   298.150 Kelvin.  Pressure   1.00000 Atm.
 Atom     1 has atomic number  6 and mass  12.00000

 Molecular mass:   274.13174 amu.
 Principal axes and moments of inertia in atomic units:
                           1         2         3
     Eigenvalues --  4122.674415324.000656317.22401
           X            0.99875   0.04560   0.02062
           Y           -0.04513   0.99872  -0.02265
           Z           -0.02163   0.02169   0.99953
 This molecule is an asymmetric top.
 Rotational symmetry number  1.
 Warning -- assumption of classical behavior for rotation
           may cause significant error
 Rotational temperatures (Kelvin)      0.02101     0.01627     0.01371
 Rotational constants (GHZ):           0.43776     0.33898     0.28569
 Zero-point vibrational energy     830524.9 (Joules/Mol)
                                  198.50020 (Kcal/Mol)
 Warning -- explicit consideration of  29 degrees of freedom as
           vibrations may cause significant error
 Vibrational temperatures:     41.86    47.05    59.24    97.99   115.72
          (Kelvin)            148.83   165.90   195.58   225.08   268.09
                              290.32   319.23   336.51   340.22   415.34
                              457.96   517.46   563.36   572.16   589.19
                              605.06   624.33   679.61   720.62   725.32
                              756.35   871.08   875.93   892.34   917.65
                              993.14   994.56  1032.71  1035.99  1086.24
                             1103.80  1129.19  1185.29  1197.04  1246.12
                             1248.34  1316.97  1329.36  1358.75  1377.59
                             1403.43  1432.81  1438.89  1472.13  1490.90
                             1526.38  1553.06  1580.83  1611.04  1633.22
                             1648.47  1673.61  1697.86  1717.93  1731.81
                             1752.49  1777.45  1819.31  1840.69  1848.72
                             1927.35  1942.01  1961.71  1965.08  1974.52
                             2011.11  2015.93  2030.07  2064.81  2073.19
                             2078.24  2111.16  2160.92  2170.20  2182.86
                             2192.60  2211.14  2212.79  2218.44  2227.80
                             2366.38  2398.76  2551.85  2605.60  2642.46
                             4305.88  4402.63  4403.83  4410.58  4448.41
                             4493.27  4497.12  4501.03  4501.15  4524.50
                             4528.90  4568.31  4578.45  4585.45  4598.65
                             4609.09  4622.40  5180.22

 Zero-point correction=                           0.316330 (Hartree/Particle)
 Thermal correction to Energy=                    0.334693
 Thermal correction to Enthalpy=                  0.335637
 Thermal correction to Gibbs Free Energy=         0.268968
 Sum of electronic and zero-point Energies=           -917.448411
 Sum of electronic and thermal Energies=              -917.430048
 Sum of electronic and thermal Enthalpies=            -917.429104
 Sum of electronic and thermal Free Energies=         -917.495773

                     E (Thermal)             CV                S
                      KCal/Mol        Cal/Mol-Kelvin    Cal/Mol-Kelvin
 Total                  210.023             70.437            140.317
 Electronic               0.000              0.000              0.000
 Translational            0.889              2.981             42.724
 Rotational               0.889              2.981             33.294
 Vibrational            208.246             64.475             64.299
 Vibration     1          0.593              1.984              5.890
 Vibration     2          0.594              1.983              5.658
 Vibration     3          0.594              1.981              5.202
 Vibration     4          0.598              1.969              4.207
 Vibration     5          0.600              1.962              3.880
 Vibration     6          0.605              1.946              3.388
 Vibration     7          0.608              1.937              3.178
 Vibration     8          0.614              1.917              2.860
 Vibration     9          0.620              1.895              2.592
 Vibration    10          0.632              1.859              2.264
 Vibration    11          0.639              1.837              2.117
 Vibration    12          0.648              1.808              1.944
 Vibration    13          0.654              1.789              1.849
 Vibration    14          0.655              1.785              1.829
 Vibration    15          0.685              1.695              1.482
 Vibration    16          0.705              1.639              1.319
 Vibration    17          0.734              1.555              1.124
 Vibration    18          0.759              1.488              0.994
 Vibration    19          0.764              1.475              0.971
 Vibration    20          0.774              1.450              0.928
 Vibration    21          0.783              1.426              0.890
 Vibration    22          0.795              1.396              0.846
 Vibration    23          0.829              1.311              0.731
 Vibration    24          0.856              1.248              0.656
 Vibration    25          0.859              1.241              0.648
 Vibration    26          0.881              1.193              0.597
 Vibration    27          0.964              1.020              0.440
 Vibration    28          0.968              1.013              0.435
 Vibration    29          0.980              0.989              0.416

 Optimization completed.
    -- Stationary point found.
 Normal termination of Gaussian 16 at Sat Dec 12 15:50:44 2020.

 ----------------------------------------------------------------------
 # B3LYP/6-311++G(d,p) empiricaldispersion=gd3bj scf=xqc pop=npa geom=c
 heck
 ----------------------------------------------------------------------

 -------------------------------------
 CID_215154_JID_10206_Energie_neutraal
 -------------------------------------
 Structure from the checkpoint file:  "JID_10206.chk"
 Charge =  0 Multiplicity = 1

 SCF Done:  E(RB3LYP) =  -918.020856787     A.U. after   15 cycles
 Normal termination of Gaussian 16 at Sat Dec 12 16:00:54 2020.

 ----------------------------------------------------------------------
 # B3LYP/6-311++G(d,p) empiricaldispersion=gd3bj scf=xqc pop=npa geom=c
 heck
 ----------------------------------------------------------------------

 -----------------------------------
 CID_215154_JID_10206_Energie_kation
 -----------------------------------
 Structure from the checkpoint file:  "JID_10206.chk"
 Charge =  1 Multiplicity = 2

 SCF Done:  E(UB3LYP) =  -917.694679190     A.U. after   33 cycles
 SCF Done:  E(UB3LYP) =  -917.694679190     a.u. after    1 cycles
 Normal termination of Gaussian 16 at Sat Dec 12 16:32:50 2020.
 Gaussian 16:  ES64L-G16RevA.03 25-Dec-2016

 ----------------------------------------------------------------------
 # B3LYP/6-311++G(d,p) empiricaldispersion=gd3bj scf=xqc pop=npa geom=c
 heck
 ----------------------------------------------------------------------

 ----------------------------------
 CID_215154_JID_10206_Energie_anion
 ----------------------------------
 Structure from the checkpoint file:  "JID_10206.chk"
 Charge = -1 Multiplicity = 2

                         Standard orientation:
 ---------------------------------------------------------------------
 Center     Atomic      Atomic             Coordinates (Angstroms)
 Number     Number       Type             X           Y           Z
 ---------------------------------------------------------------------
      1          6           0       -3.839460   -0.074671   -1.341346
      2          6           0       -2.826861   -1.170418   -1.002151
      3          6           0       -1.637359   -0.661755   -0.175668
      4          6           0       -2.055103   -0.194422    1.204275
      5          8           0       -2.994793   -0.651512    1.824792
      6          7           0       -1.232842    0.773508    1.753992
      7          6           0       -0.137059    1.402714    1.168685
      8          8           0        0.597929    2.106729    1.839281
      9          7           0        0.026422    1.203566   -0.197427
     10          6           0       -0.765937    0.319350   -0.947404
     11          8           0       -0.682816    0.272159   -2.159985
     12          6           0        1.234764    1.764186   -0.861229
     13          6           0        1.280227    3.289236   -0.833907
     14          6           0        2.508844    1.092806   -0.288367
     15          6           0        2.297329   -0.390263   -0.087432
     16          6           0        2.081546   -0.908771    1.195495
     17          6           0        1.744843   -2.251068    1.378237
     18          6           0        1.619607   -3.097566    0.275306
     19          6           0        1.844989   -2.594105   -1.008274
     20          6           0        2.182232   -1.252771   -1.185349
     21          1           0       -4.263510    0.364139   -0.432112
     22          1           0       -4.666887   -0.486696   -1.928029
     23          1           0       -3.374851    0.720161   -1.933727
     24          1           0       -3.311408   -1.962758   -0.424976
     25          1           0       -2.429531   -1.613243   -1.918940
     26          1           0       -0.951675   -1.506449    0.014478
     27          1           0       -1.397037    1.025558    2.722167
     28          1           0        1.113203    1.441083   -1.894478
     29          1           0        1.387652    3.668169    0.183315
     30          1           0        2.133495    3.632074   -1.429595
     31          1           0        0.369724    3.706540   -1.275908
     32          1           0        3.322225    1.281353   -0.999535
     33          1           0        2.778983    1.568877    0.656850
     34          1           0        2.158179   -0.246555    2.053397
     35          1           0        1.577821   -2.633900    2.381266
     36          1           0        1.354635   -4.141841    0.414093
     37          1           0        1.753109   -3.245426   -1.872814
     38          1           0        2.332638   -0.864510   -2.189336
 ---------------------------------------------------------------------

 SCF Done:  E(UB3LYP) =  -918.023834972     A.U. after   33 cycles
 SCF Done:  E(UB3LYP) =  -918.023834972     a.u. after    1 cycles

 The electronic state is 2-A.
 Alpha  occ. eigenvalues --  -18.96973 -18.96392 -18.96192 -14.23500 -14.23198
 Alpha  occ. eigenvalues --  -10.16782 -10.14623 -10.13970 -10.10496 -10.07572
 Alpha  occ. eigenvalues --  -10.06924 -10.06825 -10.06819 -10.06697 -10.06666
 Alpha  occ. eigenvalues --  -10.06511 -10.06336 -10.05864 -10.04860 -10.04378
 Alpha  occ. eigenvalues --   -0.94681  -0.92125  -0.91650  -0.82404  -0.79721
 Alpha  occ. eigenvalues --   -0.75215  -0.69279  -0.67937  -0.64651  -0.64008
 Alpha  occ. eigenvalues --   -0.60482  -0.57972  -0.54358  -0.51603  -0.51206
 Alpha  occ. eigenvalues --   -0.50107  -0.48396  -0.46496  -0.43608  -0.41226
 Alpha  occ. eigenvalues --   -0.39846  -0.37711  -0.36683  -0.35683  -0.34358
 Alpha  occ. eigenvalues --   -0.34188  -0.33265  -0.32698  -0.32220  -0.31716
 Alpha  occ. eigenvalues --   -0.30953  -0.30307  -0.30133  -0.29370  -0.28521
 Alpha  occ. eigenvalues --   -0.28240  -0.27559  -0.26212  -0.25965  -0.25318
 Alpha  occ. eigenvalues --   -0.24387  -0.23485  -0.22987  -0.22809  -0.22389
 Alpha  occ. eigenvalues --   -0.21876  -0.16760  -0.16208  -0.15427  -0.15172
 Alpha  occ. eigenvalues --   -0.14658  -0.14222  -0.12583   0.04684
 Alpha virt. eigenvalues --    0.07313   0.07663   0.08643   0.08885   0.09025
 Alpha virt. eigenvalues --    0.09097   0.09778   0.10190   0.10831   0.11186
 Alpha virt. eigenvalues --    0.11294   0.12137   0.12286   0.12729   0.13016

  Beta  occ. eigenvalues --  -18.96797 -18.96140 -18.95900 -14.23606 -14.23284
  Beta  occ. eigenvalues --  -10.16471 -10.14394 -10.13689 -10.10492 -10.07581
  Beta  occ. eigenvalues --  -10.06924 -10.06820 -10.06795 -10.06715 -10.06642
  Beta  occ. eigenvalues --  -10.06481 -10.06308 -10.05863 -10.04822 -10.04375
  Beta  occ. eigenvalues --   -0.94269  -0.91757  -0.91161  -0.82187  -0.79708
  Beta  occ. eigenvalues --   -0.75159  -0.69191  -0.67850  -0.64610  -0.63911
  Beta  occ. eigenvalues --   -0.60298  -0.57953  -0.54002  -0.51457  -0.50816
  Beta  occ. eigenvalues --   -0.49989  -0.48343  -0.46401  -0.43484  -0.41161
  Beta  occ. eigenvalues --   -0.39717  -0.37138  -0.36585  -0.35628  -0.34251
  Beta  occ. eigenvalues --   -0.34074  -0.33042  -0.32393  -0.32060  -0.31611
  Beta  occ. eigenvalues --   -0.30564  -0.29926  -0.29906  -0.29026  -0.28427
  Beta  occ. eigenvalues --   -0.28170  -0.27440  -0.25645  -0.25336  -0.25129
  Beta  occ. eigenvalues --   -0.24185  -0.23428  -0.22912  -0.22710  -0.22329
  Beta  occ. eigenvalues --   -0.21237  -0.16486  -0.15472  -0.15157  -0.14970
  Beta  occ. eigenvalues --   -0.14349  -0.14038  -0.12364
  Beta virt. eigenvalues --    0.07228   0.07742   0.08655   0.08817   0.09034
  Beta virt. eigenvalues --    0.09123   0.09820   0.10201   0.10410   0.10848
  Beta virt. eigenvalues --    0.11221   0.11516   0.12290   0.12558   0.13026

 Mulliken charges and spin densities:
               1          2
     1  C   -0.633090   0.043215
     2  C   -0.013100  -0.422590
     3  C    0.437531   0.470833
     4  C   -0.395698   0.065231
     5  O   -0.341095   0.071022
     6  N   -0.329140  -0.054261
     7  C   -0.003429   0.154070
     8  O   -0.352755   0.103357
     9  N    0.286341  -0.032719
    10  C   -0.282844  -0.153037
    11  O   -0.288256   0.106253
    12  C    0.104095   0.125602
    13  C   -0.460602  -0.138636
    14  C   -0.583329  -0.495285
    15  C    0.668011  -0.034499
    16  C   -0.599051   0.384274
    17  C   -0.312365   0.001990
    18  C    0.316163  -0.587827
    19  C   -0.112623  -0.074740
    20  C   -0.101485   0.128981
    21  H    0.169686  -0.011290
    22  H    0.094757   0.023578
    23  H    0.170507  -0.005561
    24  H    0.056531   0.122833
    25  H    0.066953   0.090146
    26  H    0.197474   0.183074
    27  H    0.313400   0.015454
    28  H    0.201409  -0.004735
    29  H    0.169854   0.021971
    30  H    0.103721   0.021629
    31  H    0.144346   0.004529
    32  H    0.094671   0.059617
    33  H    0.208801  -0.008874
    34  H    0.207417  -0.015040
    35  H    0.058757   0.097488
    36  H   -0.175333   0.322225
    37  H   -0.151790   0.316052
    38  H    0.065561   0.105671
 Sum of Mulliken charges =  -1.00000   1.00000

 Dipole moment (field-independent basis, Debye):
    X=              2.7598    Y=              2.2221    Z=             -0.5669  Tot=              3.5883
 Quadrupole moment (field-independent basis, Debye-Ang):
   XX=           -156.5001   YY=           -151.1466   ZZ=           -146.0907
   XY=             -2.1107   XZ=              1.7726   YZ=             -4.3493

 Summary of Natural Population Analysis:

                                       Natural Population
                Natural  -----------------------------------------------
    Atom  No    Charge         Core      Valence    Rydberg      Total
 -----------------------------------------------------------------------
      C    1   -0.28907      0.99966     2.28495    0.00446     3.28907
      C    2   -0.18544      0.99963     2.17443    0.01138     3.18544
      C    3   -0.19755      0.99951     2.18800    0.01003     3.19755
      C    4    0.38285      0.99966     1.59473    0.02276     2.61715
      O    5   -0.30335      0.99987     3.29770    0.00578     4.30335
      N    6   -0.33715      0.99964     2.82920    0.00831     3.83715
      C    7    0.45241      0.99969     1.52492    0.02298     2.54759
      O    8   -0.30778      0.99988     3.30317    0.00473     4.30778
      N    9   -0.28565      0.99960     2.77633    0.00973     3.78565
      C   10    0.39653      0.99965     1.57984    0.02399     2.60347
      O   11   -0.29310      0.99987     3.28820    0.00502     4.29310
      C   12   -0.00313      0.99959     1.99181    0.01173     3.00313
      C   13   -0.28988      0.99964     2.28523    0.00501     3.28988
      C   14   -0.20302      0.99958     2.19405    0.00940     3.20302
      C   15   -0.01749      0.99950     2.00740    0.01059     3.01749
      C   16   -0.09946      0.99951     2.09055    0.00941     3.09946
      C   17   -0.09393      0.99956     2.08422    0.01014     3.09393
      C   18   -0.11071      0.99956     2.10100    0.01015     3.11071
      C   19   -0.09607      0.99956     2.08645    0.01006     3.09607
      C   20   -0.09407      0.99951     2.08530    0.00926     3.09407
      H   21    0.09935      0.00000     0.39969    0.00096     0.40065
      H   22    0.09235      0.00000     0.40694    0.00071     0.40765
      H   23    0.10069      0.00000     0.39839    0.00092     0.39931
      H   24    0.10282      0.00000     0.39616    0.00103     0.39718
      H   25    0.10481      0.00000     0.39409    0.00109     0.39519
      H   26    0.14204      0.00000     0.35523    0.00273     0.35796
      H   27    0.20008      0.00000     0.29743    0.00248     0.29992
      H   28    0.11390      0.00000     0.38415    0.00196     0.38610
      H   29    0.11237      0.00000     0.38655    0.00108     0.38763
      H   30    0.09336      0.00000     0.40577    0.00087     0.40664
      H   31    0.10098      0.00000     0.39812    0.00090     0.39902
      H   32    0.09953      0.00000     0.39958    0.00089     0.40047
      H   33    0.11048      0.00000     0.38843    0.00109     0.38952
      H   34    0.10533      0.00000     0.39325    0.00142     0.39467
      H   35    0.09795      0.00000     0.40126    0.00079     0.40205
      H   36    0.09957      0.00000     0.39961    0.00082     0.40043
      H   37    0.09964      0.00000     0.39947    0.00089     0.40036
      H   38    0.09984      0.00000     0.39884    0.00132     0.40016
 =======================================================================
   * Total *   -0.00000     19.99268    52.77046    0.23686    73.00000

 Normal termination of Gaussian 16 at Sat Dec 12 17:03:08 2020.
