 Gaussian 16, Revision A.03,

 -----------------------------------------------------------
 # opt freq B3LYP/6-31G(d) empiricaldispersion=gd3bj scf=xqc
 -----------------------------------------------------------

 -------------------------------
 CID_132314655_JID_8599_neutraal
 -------------------------------
 Symbolic Z-matrix:
 Charge =  0 Multiplicity = 1

 SCF Done:  E(RB3LYP) =  -857.463192620     A.U. after   15 cycles
 SCF Done:  E(RB3LYP) =  -857.469104464     A.U. after   13 cycles
 SCF Done:  E(RB3LYP) =  -857.470432037     A.U. after   13 cycles
 SCF Done:  E(RB3LYP) =  -857.471905143     A.U. after   12 cycles
 SCF Done:  E(RB3LYP) =  -857.473065916     A.U. after   13 cycles
 SCF Done:  E(RB3LYP) =  -857.473604212     A.U. after   12 cycles
 SCF Done:  E(RB3LYP) =  -857.474108735     A.U. after   13 cycles
 SCF Done:  E(RB3LYP) =  -857.474513784     A.U. after   12 cycles
 SCF Done:  E(RB3LYP) =  -857.474740222     A.U. after   12 cycles
 SCF Done:  E(RB3LYP) =  -857.474911397     A.U. after   11 cycles
 SCF Done:  E(RB3LYP) =  -857.475137885     A.U. after    7 cycles
 SCF Done:  E(RB3LYP) =  -857.475138050     A.U. after    9 cycles
 SCF Done:  E(RB3LYP) =  -857.475138136     A.U. after    7 cycles
 SCF Done:  E(RB3LYP) =  -857.475138172     A.U. after    7 cycles
 SCF Done:  E(RB3LYP) =  -857.475138182     A.U. after    6 cycles
 Optimization completed.
    -- Stationary point found.
 Normal termination of Gaussian 16 at Fri Dec 11 21:32:32 2020.

 --------------------------------------------------------------------
 #N Geom=AllCheck Guess=TCheck SCRF=Check GenChk RB3LYP/6-31G(d) Freq
 --------------------------------------------------------------------

 Structure from the checkpoint file:  "JID_8599.chk"
 -------------------------------
 CID_132314655_JID_8599_neutraal
 -------------------------------
 Charge =  0 Multiplicity = 1

 SCF Done:  E(RB3LYP) =  -857.475138182     A.U. after    1 cycles

  Exact polarizability: 208.287 -30.922 154.883 -14.966 -12.699 106.023
 Approx polarizability: 273.545 -55.540 236.448 -27.629 -27.229 174.459

                      1                      2                      3
                      A                      A                      A
 Frequencies --     12.8133                14.6014                25.5483
 Red. masses --      3.6039                 1.0723                 4.5539
 Frc consts  --      0.0003                 0.0001                 0.0018
 IR Inten    --      0.5984                 0.4505                 0.6152

                      4                      5                      6
                      A                      A                      A
 Frequencies --     34.2924                54.5028                72.9676
 Red. masses --      4.4463                 4.5329                 4.2973
 Frc consts  --      0.0031                 0.0079                 0.0135
 IR Inten    --      0.1359                 0.2529                 0.5189

                      7                      8                      9
                      A                      A                      A
 Frequencies --     84.7361                98.1647               120.9811
 Red. masses --      4.5579                 4.1852                 4.2002
 Frc consts  --      0.0193                 0.0238                 0.0362
 IR Inten    --      0.3608                 0.6513                 0.1417

                     10                     11                     12
                      A                      A                      A
 Frequencies --    151.0500               155.3178               191.5918
 Red. masses --      5.0777                 4.7074                 3.1010
 Frc consts  --      0.0683                 0.0669                 0.0671
 IR Inten    --      2.3183                 3.5872                 2.4151

                     13                     14                     15
                      A                      A                      A
 Frequencies --    230.9832               268.1099               321.4853
 Red. masses --      1.2512                 4.4189                 3.5552
 Frc consts  --      0.0393                 0.1872                 0.2165
 IR Inten    --      0.6222                 1.4019                 0.7904

                     16                     17                     18
                      A                      A                      A
 Frequencies --    325.3468               344.3327               367.3872
 Red. masses --      2.9119                 3.5425                 5.8672
 Frc consts  --      0.1816                 0.2475                 0.4666
 IR Inten    --      2.1391                14.0361                 1.9941

                     19                     20                     21
                      A                      A                      A
 Frequencies --    383.2240               398.9780               424.0010
 Red. masses --      4.3820                 3.5760                 3.1529
 Frc consts  --      0.3792                 0.3354                 0.3340
 IR Inten    --     16.3561                 2.1485                 0.7926

                     22                     23                     24
                      A                      A                      A
 Frequencies --    442.0878               485.3571               509.1999
 Red. masses --      3.3151                 1.7008                 2.5500
 Frc consts  --      0.3817                 0.2361                 0.3896
 IR Inten    --      7.1280                28.5197                44.6423

                     25                     26                     27
                      A                      A                      A
 Frequencies --    529.6887               552.8334               593.8679
 Red. masses --      2.2315                 1.9466                 3.6502
 Frc consts  --      0.3689                 0.3505                 0.7585
 IR Inten    --     32.4884                44.7246                 3.8254

                     28                     29                     30
                      A                      A                      A
 Frequencies --    604.5554               627.1297               653.6555
 Red. masses --      2.2954                 2.4859                 5.0967
 Frc consts  --      0.4943                 0.5760                 1.2830
 IR Inten    --      7.6332                80.5831                 8.9319

                     31                     32                     33
                      A                      A                      A
 Frequencies --    691.0701               730.0857               737.6924
 Red. masses --      4.5099                 3.9928                 3.7678
 Frc consts  --      1.2690                 1.2539                 1.2081
 IR Inten    --     27.9745                22.2109                39.9503

                     34                     35                     36
                      A                      A                      A
 Frequencies --    779.0972               793.0076               830.2748
 Red. masses --      3.8357                 1.4267                 3.4259
 Frc consts  --      1.3717                 0.5286                 1.3915
 IR Inten    --      0.2750                37.6060                 9.1583

                     37                     38                     39
                      A                      A                      A
 Frequencies --    835.7591               840.9734               848.6602
 Red. masses --      2.7323                 1.8075                 1.3341
 Frc consts  --      1.1244                 0.7532                 0.5661
 IR Inten    --    121.9975                 9.6783                 2.2563

                     40                     41                     42
                      A                      A                      A
 Frequencies --    905.9793               930.6420               961.8855
 Red. masses --      1.9732                 3.9753                 1.3203
 Frc consts  --      0.9542                 2.0286                 0.7197
 IR Inten    --     57.2289                 4.3672                 0.9710

                     43                     44                     45
                      A                      A                      A
 Frequencies --    962.6140               981.1230              1020.8141
 Red. masses --      1.3243                 2.1861                 1.4350
 Frc consts  --      0.7230                 1.2398                 0.8811
 IR Inten    --      0.4694                23.5977                 9.2980

                     46                     47                     48
                      A                      A                      A
 Frequencies --   1029.1168              1043.5192              1057.1332
 Red. masses --      2.3614                 2.6715                 2.6759
 Frc consts  --      1.4735                 1.7140                 1.7619
 IR Inten    --     98.1894                 3.2525                40.0684

                     49                     50                     51
                      A                      A                      A
 Frequencies --   1076.8056              1110.0675              1136.7697
 Red. masses --      1.5207                 2.1699                 2.4912
 Frc consts  --      1.0389                 1.5754                 1.8967
 IR Inten    --     11.0572                22.3235                48.7171

                     52                     53                     54
                      A                      A                      A
 Frequencies --   1143.7775              1151.3389              1199.1814
 Red. masses --      2.5239                 1.3723                 2.3343
 Frc consts  --      1.9454                 1.0718                 1.9778
 IR Inten    --     18.8084                15.9251                 9.2789

                     55                     56                     57
                      A                      A                      A
 Frequencies --   1215.6639              1245.0117              1254.6999
 Red. masses --      1.1349                 3.7070                 2.3996
 Frc consts  --      0.9882                 3.3854                 2.2257
 IR Inten    --      1.7279                15.5248                27.8127

                     58                     59                     60
                      A                      A                      A
 Frequencies --   1304.9375              1326.6073              1331.5467
 Red. masses --      1.3881                 1.5118                 1.2091
 Frc consts  --      1.3926                 1.5675                 1.2630
 IR Inten    --    123.8831               209.3817                19.8077

                     61                     62                     63
                      A                      A                      A
 Frequencies --   1345.4414              1352.6793              1394.4569
 Red. masses --      2.2424                 2.3712                 1.4248
 Frc consts  --      2.3916                 2.5563                 1.6324
 IR Inten    --      1.5753                12.6907                65.8080

                     64                     65                     66
                      A                      A                      A
 Frequencies --   1413.5534              1434.6671              1439.7376
 Red. masses --      1.2511                 1.3810                 1.5633
 Frc consts  --      1.4729                 1.6747                 1.9093
 IR Inten    --     77.5671                28.8686                 4.6735

                     67                     68                     69
                      A                      A                      A
 Frequencies --   1442.2607              1444.6933              1461.4733
 Red. masses --      1.9963                 1.3094                 1.8167
 Frc consts  --      2.4466                 1.6102                 2.2863
 IR Inten    --      3.3848                 0.4256                89.9456

                     70                     71                     72
                      A                      A                      A
 Frequencies --   1471.8368              1488.9263              1492.1350
 Red. masses --      1.1797                 1.9537                 1.6475
 Frc consts  --      1.5057                 2.5519                 2.1612
 IR Inten    --     19.9646                28.9411                66.5651

                     73                     74                     75
                      A                      A                      A
 Frequencies --   1517.0807              1521.9424              1525.5224
 Red. masses --      1.0499                 1.1005                 1.1376
 Frc consts  --      1.4237                 1.5019                 1.5599
 IR Inten    --      6.4061                 2.7583                10.4947

                     76                     77                     78
                      A                      A                      A
 Frequencies --   1525.9532              1541.4894              1569.5444
 Red. masses --      1.1468                 1.0847                 2.7135
 Frc consts  --      1.5734                 1.5186                 3.9384
 IR Inten    --     25.9365                 6.8386               104.0152

                     79                     80                     81
                      A                      A                      A
 Frequencies --   1638.6130              1676.6080              1787.7844
 Red. masses --      5.7733                 5.9160                 8.6208
 Frc consts  --      9.1333                 9.7981                16.2341
 IR Inten    --      3.7571                12.8368               685.6072

                     82                     83                     84
                      A                      A                      A
 Frequencies --   1805.8448              3045.4870              3046.6182
 Red. masses --      7.0621                 1.0397                 1.0676
 Frc consts  --     13.5689                 5.6814                 5.8386
 IR Inten    --    267.8029                32.2446                39.2609

                     85                     86                     87
                      A                      A                      A
 Frequencies --   3050.1110              3053.4530              3101.8831
 Red. masses --      1.0620                 1.0421                 1.0974
 Frc consts  --      5.8209                 5.7246                 6.2209
 IR Inten    --     28.4967                34.7988                17.9835

                     88                     89                     90
                      A                      A                      A
 Frequencies --   3111.0444              3121.7011              3129.9301
 Red. masses --      1.1011                 1.1007                 1.1023
 Frc consts  --      6.2788                 6.3195                 6.3621
 IR Inten    --     18.1921                 6.8399                14.8335

                     91                     92                     93
                      A                      A                      A
 Frequencies --   3138.3349              3156.5200              3183.2447
 Red. masses --      1.0924                 1.1014                 1.0877
 Frc consts  --      6.3392                 6.4655                 6.4940
 IR Inten    --     28.9189                27.7020                12.9671

                     94                     95                     96
                      A                      A                      A
 Frequencies --   3187.7950              3202.0060              3216.2809
 Red. masses --      1.0888                 1.0945                 1.0932
 Frc consts  --      6.5193                 6.6117                 6.6627
 IR Inten    --     14.5846                12.9641                 9.3526

                     97                     98                     99
                      A                      A                      A
 Frequencies --   3528.8792              3574.3854              3619.6786
 Red. masses --      1.0761                 1.0754                 1.0760
 Frc consts  --      7.8957                 8.0953                 8.3064
 IR Inten    --     49.7195                29.0099                31.7192

 - Thermochemistry -
 -------------------
 Temperature   298.150 Kelvin.  Pressure   1.00000 Atm.
 Atom     1 has atomic number  6 and mass  12.00000

 Molecular mass:   251.12699 amu.
 Principal axes and moments of inertia in atomic units:
                           1         2         3
     Eigenvalues --  2339.33762********************
           X            0.99999   0.00367   0.00064
           Y           -0.00367   0.99999   0.00024
           Z           -0.00064  -0.00025   1.00000
 This molecule is an asymmetric top.
 Rotational symmetry number  1.
 Warning -- assumption of classical behavior for rotation
           may cause significant error
 Rotational temperatures (Kelvin)      0.03702     0.00857     0.00734
 Rotational constants (GHZ):           0.77148     0.17866     0.15287
 Zero-point vibrational energy     761508.3 (Joules/Mol)
                                  182.00485 (Kcal/Mol)
 Warning -- explicit consideration of  28 degrees of freedom as
           vibrations may cause significant error
 Vibrational temperatures:     18.44    21.01    36.76    49.34    78.42
          (Kelvin)            104.98   121.92   141.24   174.06   217.33
                              223.47   275.66   332.33   385.75   462.55
                              468.10   495.42   528.59   551.37   574.04
                              610.04   636.07   698.32   732.63   762.10
                              795.40   854.44   869.82   902.30   940.46
                              994.30  1050.43  1061.37  1120.95  1140.96
                             1194.58  1202.47  1209.97  1221.03  1303.50
                             1338.99  1383.94  1384.99  1411.62  1468.72
                             1480.67  1501.39  1520.98  1549.28  1597.14
                             1635.56  1645.64  1656.52  1725.35  1749.07
                             1791.29  1805.23  1877.51  1908.69  1915.80
                             1935.79  1946.20  2006.31  2033.79  2064.17
                             2071.46  2075.09  2078.59  2102.73  2117.64
                             2142.23  2146.85  2182.74  2189.74  2194.89
                             2195.51  2217.86  2258.22  2357.60  2412.26
                             2572.22  2598.21  4381.78  4383.40  4388.43
                             4393.24  4462.92  4476.10  4491.43  4503.27
                             4515.36  4541.53  4579.98  4586.53  4606.97
                             4627.51  5077.27  5142.74  5207.91

 Zero-point correction=                           0.290043 (Hartree/Particle)
 Thermal correction to Energy=                    0.308647
 Thermal correction to Enthalpy=                  0.309592
 Thermal correction to Gibbs Free Energy=         0.238633
 Sum of electronic and zero-point Energies=           -857.185095
 Sum of electronic and thermal Energies=              -857.166491
 Sum of electronic and thermal Enthalpies=            -857.165547
 Sum of electronic and thermal Free Energies=         -857.236505

                     E (Thermal)             CV                S
                      KCal/Mol        Cal/Mol-Kelvin    Cal/Mol-Kelvin
 Total                  193.679             67.596            149.344
 Electronic               0.000              0.000              0.000
 Translational            0.889              2.981             42.463
 Rotational               0.889              2.981             33.989
 Vibrational            191.902             61.634             72.893
 Vibration     1          0.593              1.987              7.519
 Vibration     2          0.593              1.986              7.259
 Vibration     3          0.593              1.985              6.148
 Vibration     4          0.594              1.983              5.564
 Vibration     5          0.596              1.976              4.647
 Vibration     6          0.599              1.967              4.072
 Vibration     7          0.601              1.960              3.778
 Vibration     8          0.604              1.950              3.490
 Vibration     9          0.609              1.932              3.085
 Vibration    10          0.618              1.902              2.659
 Vibration    11          0.620              1.897              2.606
 Vibration    12          0.634              1.851              2.212
 Vibration    13          0.653              1.794              1.871
 Vibration    14          0.673              1.732              1.608
 Vibration    15          0.707              1.632              1.303
 Vibration    16          0.709              1.625              1.283
 Vibration    17          0.723              1.587              1.192
 Vibration    18          0.740              1.539              1.091
 Vibration    19          0.752              1.506              1.026
 Vibration    20          0.765              1.472              0.966
 Vibration    21          0.786              1.418              0.878
 Vibration    22          0.802              1.378              0.820
 Vibration    23          0.841              1.283              0.696
 Vibration    24          0.864              1.230              0.636
 Vibration    25          0.885              1.184              0.588
 Vibration    26          0.908              1.133              0.538
 Vibration    27          0.951              1.045              0.460
 Vibration    28          0.963              1.022              0.442

                           ! Non-Optimized Parameters !
 Normal termination of Gaussian 16 at Fri Dec 11 21:45:41 2020.

 ----------------------------------------------------------------------
 # B3LYP/6-311++G(d,p) empiricaldispersion=gd3bj scf=xqc pop=npa geom=c
 heck
 ----------------------------------------------------------------------

 ---------------------------------------
 CID_132314655_JID_8599_Energie_neutraal
 ---------------------------------------
 Structure from the checkpoint file:  "JID_8599.chk"
 Charge =  0 Multiplicity = 1

 SCF Done:  E(RB3LYP) =  -857.728393896     A.U. after   15 cycles
 Normal termination of Gaussian 16 at Fri Dec 11 21:51:42 2020.

 ----------------------------------------------------------------------
 # B3LYP/6-311++G(d,p) empiricaldispersion=gd3bj scf=xqc pop=npa geom=c
 heck
 ----------------------------------------------------------------------

 -------------------------------------
 CID_132314655_JID_8599_Energie_kation
 -------------------------------------
 Structure from the checkpoint file:  "JID_8599.chk"
 Charge =  1 Multiplicity = 2

 SCF Done:  E(UB3LYP) =  -857.424900843     A.U. after   30 cycles
 Normal termination of Gaussian 16 at Fri Dec 11 22:08:54 2020.
 Gaussian 16:  ES64L-G16RevA.03 25-Dec-2016

 ----------------------------------------------------------------------
 # B3LYP/6-311++G(d,p) empiricaldispersion=gd3bj scf=xqc pop=npa geom=c
 heck
 ----------------------------------------------------------------------

 ------------------------------------
 CID_132314655_JID_8599_Energie_anion
 ------------------------------------
 Structure from the checkpoint file:  "JID_8599.chk"
 Charge = -1 Multiplicity = 2

                         Standard orientation:
 ---------------------------------------------------------------------
 Center     Atomic      Atomic             Coordinates (Angstroms)
 Number     Number       Type             X           Y           Z
 ---------------------------------------------------------------------
      1          6           0        2.619772    2.803355    1.015578
      2          6           0        3.144531    2.170620   -0.272790
      3          7           0        4.173629    1.161942   -0.040910
      4          6           0        4.099096   -0.189140   -0.236374
      5          8           0        5.086065   -0.900598   -0.374465
      6          7           0        2.812374   -0.755738   -0.352623
      7          8           0        1.875606   -0.251459    0.607573
      8          6           0        0.575274   -0.318707    0.065037
      9          6           0        0.073903   -1.768416    0.049042
     10          8           0        0.845008   -2.712906    0.147612
     11          7           0       -1.280337   -1.968490   -0.068779
     12          6           0       -2.321240   -1.002120   -0.090018
     13          6           0       -2.342576    0.022736   -1.039892
     14          6           0       -3.373615    0.960820   -1.032613
     15          6           0       -4.423386    0.881780   -0.111804
     16          6           0       -4.403178   -0.167358    0.817433
     17          6           0       -3.365335   -1.093414    0.838224
     18          6           0       -5.559291    1.874622   -0.132501
     19          1           0        3.430230    3.292358    1.567620
     20          1           0        2.181935    2.034931    1.656920
     21          1           0        1.858292    3.559866    0.790464
     22          1           0        2.330990    1.710436   -0.836590
     23          1           0        3.575326    2.943924   -0.921817
     24          1           0        5.134431    1.475328   -0.018036
     25          1           0        2.864986   -1.762334   -0.205755
     26          1           0       -0.054715    0.303032    0.708642
     27          1           0        0.562240    0.097723   -0.949823
     28          1           0       -1.542253   -2.942436    0.037574
     29          1           0       -1.564219    0.074683   -1.793816
     30          1           0       -3.370268    1.757484   -1.771991
     31          1           0       -5.205771   -0.251699    1.545865
     32          1           0       -3.349739   -1.885022    1.582217
     33          1           0       -6.446908    1.451437   -0.620287
     34          1           0       -5.855219    2.164454    0.881608
     35          1           0       -5.286170    2.782875   -0.678297
 ---------------------------------------------------------------------

 SCF Done:  E(UB3LYP) =  -857.724456931     A.U. after   33 cycles
 SCF Done:  E(UB3LYP) =  -857.724456931     a.u. after    1 cycles

 The electronic state is 2-A.
 Alpha  occ. eigenvalues --  -19.07740 -19.00044 -18.99614 -14.27599 -14.25419
 Alpha  occ. eigenvalues --  -14.24464 -10.20517 -10.18142 -10.13935 -10.11685
 Alpha  occ. eigenvalues --  -10.11472 -10.08068 -10.07994 -10.07942 -10.07699
 Alpha  occ. eigenvalues --  -10.07554 -10.07188 -10.06797  -1.00669  -0.95585
 Alpha  occ. eigenvalues --   -0.94582  -0.84525  -0.83492  -0.76552  -0.75711
 Alpha  occ. eigenvalues --   -0.67531  -0.66402  -0.65503  -0.62327  -0.59451
 Alpha  occ. eigenvalues --   -0.55039  -0.52533  -0.51912  -0.51111  -0.48539
 Alpha  occ. eigenvalues --   -0.45158  -0.43929  -0.42136  -0.40549  -0.39390
 Alpha  occ. eigenvalues --   -0.38617  -0.37780  -0.37246  -0.35156  -0.34945
 Alpha  occ. eigenvalues --   -0.34302  -0.33033  -0.32966  -0.32828  -0.32483
 Alpha  occ. eigenvalues --   -0.31870  -0.30150  -0.29550  -0.28423  -0.27631
 Alpha  occ. eigenvalues --   -0.26803  -0.26427  -0.26151  -0.24991  -0.23075
 Alpha  occ. eigenvalues --   -0.19723  -0.18958  -0.17397  -0.16498  -0.16475
 Alpha  occ. eigenvalues --   -0.16076  -0.13626   0.03935
 Alpha virt. eigenvalues --    0.05896   0.06090   0.07233   0.07313   0.07518
 Alpha virt. eigenvalues --    0.08291   0.08948   0.09385   0.09587   0.09944
 Alpha virt. eigenvalues --    0.10355   0.10918   0.11159   0.11580   0.12064

  Beta  occ. eigenvalues --  -19.07735 -18.99967 -18.99613 -14.27593 -14.25450
  Beta  occ. eigenvalues --  -14.24455 -10.20517 -10.18050 -10.13932 -10.11656
  Beta  occ. eigenvalues --  -10.11352 -10.08094 -10.08006 -10.07822 -10.07591
  Beta  occ. eigenvalues --  -10.07544 -10.07103 -10.06776  -1.00655  -0.95518
  Beta  occ. eigenvalues --   -0.94505  -0.84434  -0.83474  -0.76528  -0.75556
  Beta  occ. eigenvalues --   -0.67337  -0.66363  -0.65363  -0.62227  -0.59336
  Beta  occ. eigenvalues --   -0.54989  -0.52464  -0.51874  -0.50871  -0.48449
  Beta  occ. eigenvalues --   -0.45093  -0.43860  -0.42080  -0.40477  -0.39340
  Beta  occ. eigenvalues --   -0.38555  -0.37650  -0.37165  -0.35089  -0.34877
  Beta  occ. eigenvalues --   -0.34247  -0.32929  -0.32872  -0.32742  -0.32312
  Beta  occ. eigenvalues --   -0.31791  -0.30097  -0.29488  -0.28372  -0.27505
  Beta  occ. eigenvalues --   -0.26530  -0.26284  -0.26090  -0.24896  -0.23043
  Beta  occ. eigenvalues --   -0.19476  -0.18891  -0.17333  -0.16450  -0.16220
  Beta  occ. eigenvalues --   -0.15917  -0.13103
  Beta virt. eigenvalues --    0.06140   0.06486   0.07117   0.07433   0.07581
  Beta virt. eigenvalues --    0.07959   0.08533   0.09242   0.09660   0.09896
  Beta virt. eigenvalues --    0.10093   0.10406   0.10940   0.11606   0.11797

 Mulliken charges and spin densities:
               1          2
     1  C    0.454669  -0.924835
     2  C   -0.055006  -0.134069
     3  N   -0.258833   0.001796
     4  C    0.295360  -0.087638
     5  O   -0.373348   0.003345
     6  N   -0.403290   0.032114
     7  O    0.069416  -0.026553
     8  C   -0.265501  -0.090380
     9  C    0.226301  -0.116458
    10  O   -0.373114   0.024399
    11  N   -0.153884   0.000502
    12  C    0.331011  -0.730571
    13  C    0.383929  -0.049584
    14  C   -0.233709  -0.169936
    15  C   -0.364163   0.899902
    16  C   -0.895520   0.655778
    17  C   -0.236962   0.108205
    18  C    0.989061  -1.691272
    19  H   -0.047786   0.175650
    20  H    0.034370   0.144306
    21  H   -0.078161   0.200300
    22  H   -0.179755   0.319481
    23  H   -0.562043   0.755007
    24  H    0.274414   0.041372
    25  H    0.326454  -0.004157
    26  H    0.290348  -0.069975
    27  H   -0.035714   0.194286
    28  H    0.306301   0.004848
    29  H    0.007010   0.163300
    30  H   -0.315867   0.481558
    31  H   -0.034359   0.190144
    32  H    0.105020   0.033893
    33  H    0.185067  -0.038474
    34  H   -0.116578   0.254688
    35  H   -0.295137   0.449028
 Sum of Mulliken charges =  -1.00000   1.00000

 Dipole moment (field-independent basis, Debye):
    X=             -2.2367    Y=             -3.5766    Z=              1.2663  Tot=              4.4043
 Quadrupole moment (field-independent basis, Debye-Ang):
   XX=           -197.6291   YY=           -158.7346   ZZ=           -130.0920
   XY=             19.8473   XZ=              3.9692   YZ=              3.6984

 Summary of Natural Population Analysis:

                                       Natural Population
                Natural  -----------------------------------------------
    Atom  No    Charge         Core      Valence    Rydberg      Total
 -----------------------------------------------------------------------
      C    1   -0.28943      0.99966     2.28394    0.00583     3.28943
      C    2   -0.09047      0.99963     2.07963    0.01120     3.09047
      N    3   -0.32235      0.99966     2.81287    0.00982     3.82235
      C    4    0.39856      0.99972     1.57940    0.02232     2.60144
      O    5   -0.33337      0.99988     3.32817    0.00532     4.33337
      N    6   -0.19013      0.99966     2.67860    0.01187     3.69013
      O    7   -0.21775      0.99989     3.20857    0.00929     4.21775
      C    8   -0.05776      0.99956     2.04554    0.01266     3.05776
      C    9    0.34533      0.99970     1.63219    0.02279     2.65467
      O   10   -0.32122      0.99987     3.31545    0.00590     4.32122
      N   11   -0.31756      0.99964     2.80879    0.00912     3.81756
      C   12    0.07601      0.99946     1.91371    0.01082     2.92399
      C   13   -0.11090      0.99952     2.10189    0.00949     3.11090
      C   14   -0.08319      0.99952     2.07350    0.01017     3.08319
      C   15    0.00061      0.99952     1.99098    0.00889     2.99939
      C   16   -0.10471      0.99952     2.09576    0.00944     3.10471
      C   17   -0.08919      0.99952     2.08045    0.00922     3.08919
      C   18   -0.29357      0.99964     2.28836    0.00557     3.29357
      H   19    0.09360      0.00000     0.40538    0.00101     0.40640
      H   20    0.10525      0.00000     0.39340    0.00135     0.39475
      H   21    0.10153      0.00000     0.39726    0.00121     0.39847
      H   22    0.10183      0.00000     0.39599    0.00219     0.39817
      H   23    0.09304      0.00000     0.40530    0.00166     0.40696
      H   24    0.19438      0.00000     0.30371    0.00191     0.30562
      H   25    0.20067      0.00000     0.29758    0.00175     0.29933
      H   26    0.10787      0.00000     0.39068    0.00145     0.39213
      H   27    0.10018      0.00000     0.39729    0.00252     0.39982
      H   28    0.19677      0.00000     0.30161    0.00163     0.30323
      H   29    0.10256      0.00000     0.39591    0.00154     0.39744
      H   30    0.10070      0.00000     0.39818    0.00113     0.39930
      H   31    0.09691      0.00000     0.40225    0.00084     0.40309
      H   32    0.09792      0.00000     0.40122    0.00086     0.40208
      H   33    0.10026      0.00000     0.39894    0.00080     0.39974
      H   34    0.10288      0.00000     0.39599    0.00112     0.39712
      H   35    0.10475      0.00000     0.39408    0.00117     0.39525
 =======================================================================
   * Total *   -0.00000     17.99357    48.79256    0.21388    67.00000

 Normal termination of Gaussian 16 at Fri Dec 11 22:28:14 2020.
