 Gaussian 16, Revision A.03,

 -----------------------------------------------------------
 # opt freq B3LYP/6-31G(d) empiricaldispersion=gd3bj scf=xqc
 -----------------------------------------------------------

 ------------------------------
 CID_84433944_JID_8169_neutraal
 ------------------------------
 Symbolic Z-matrix:
 Charge =  0 Multiplicity = 1

 SCF Done:  E(RB3LYP) =  -1205.05931872     A.U. after   15 cycles
 SCF Done:  E(RB3LYP) =  -1205.06401250     A.U. after   13 cycles
 SCF Done:  E(RB3LYP) =  -1205.06471611     A.U. after   13 cycles
 SCF Done:  E(RB3LYP) =  -1205.06592698     A.U. after   12 cycles
 SCF Done:  E(RB3LYP) =  -1205.06657466     A.U. after   13 cycles
 SCF Done:  E(RB3LYP) =  -1205.06749426     A.U. after   13 cycles
 SCF Done:  E(RB3LYP) =  -1205.06828752     A.U. after   12 cycles
 SCF Done:  E(RB3LYP) =  -1205.06885376     A.U. after   13 cycles
 SCF Done:  E(RB3LYP) =  -1205.06917149     A.U. after   12 cycles
 SCF Done:  E(RB3LYP) =  -1205.06929806     A.U. after   12 cycles
 SCF Done:  E(RB3LYP) =  -1205.06989512     A.U. after   12 cycles
 SCF Done:  E(RB3LYP) =  -1205.06991403     A.U. after   12 cycles
 SCF Done:  E(RB3LYP) =  -1205.06991192     A.U. after   11 cycles
 SCF Done:  E(RB3LYP) =  -1205.06991520     A.U. after   11 cycles
 SCF Done:  E(RB3LYP) =  -1205.06991522     A.U. after    8 cycles
 SCF Done:  E(RB3LYP) =  -1205.06991524     A.U. after    8 cycles
 Optimization completed.
    -- Stationary point found.
 Normal termination of Gaussian 16 at Fri Dec 11 19:37:55 2020.

 --------------------------------------------------------------------
 #N Geom=AllCheck Guess=TCheck SCRF=Check GenChk RB3LYP/6-31G(d) Freq
 --------------------------------------------------------------------

 Structure from the checkpoint file:  "JID_8169.chk"
 ------------------------------
 CID_84433944_JID_8169_neutraal
 ------------------------------
 Charge =  0 Multiplicity = 1

 SCF Done:  E(RB3LYP) =  -1205.06991524     A.U. after    1 cycles

  Exact polarizability: 176.216   5.761 171.889  16.563  -3.426 101.445
 Approx polarizability: 270.242  14.425 309.561  43.828  -8.908 174.305

                      1                      2                      3
                      A                      A                      A
 Frequencies --     28.4743                39.1881                53.0258
 Red. masses --      7.1744                 6.5665                 5.2215
 Frc consts  --      0.0034                 0.0059                 0.0087
 IR Inten    --      0.4022                 1.2128                 1.5018

                      4                      5                      6
                      A                      A                      A
 Frequencies --     90.1702               117.5562               127.1588
 Red. masses --      8.8559                 4.3434                 6.1150
 Frc consts  --      0.0424                 0.0354                 0.0583
 IR Inten    --      5.7861                 1.7907                 4.0547

                      7                      8                      9
                      A                      A                      A
 Frequencies --    150.6914               185.6196               213.5069
 Red. masses --      4.0994                 1.1445                 3.2264
 Frc consts  --      0.0548                 0.0232                 0.0867
 IR Inten    --      1.4412                 0.6875                 0.0882

                     10                     11                     12
                      A                      A                      A
 Frequencies --    220.6525               241.4898               272.2892
 Red. masses --      1.7620                 4.3650                 2.8201
 Frc consts  --      0.0505                 0.1500                 0.1232
 IR Inten    --      1.1283                 1.3477                 7.1252

                     13                     14                     15
                      A                      A                      A
 Frequencies --    289.7634               317.7309               330.2313
 Red. masses --      5.3558                 4.1930                 2.9840
 Frc consts  --      0.2649                 0.2494                 0.1917
 IR Inten    --      1.3155                 0.2587                 0.0292

                     16                     17                     18
                      A                      A                      A
 Frequencies --    352.4540               383.6156               455.2043
 Red. masses --      5.4127                 7.5210                 6.3811
 Frc consts  --      0.3962                 0.6521                 0.7790
 IR Inten    --     19.1200                 0.0457                 2.1659

                     19                     20                     21
                      A                      A                      A
 Frequencies --    492.0214               495.5074               540.7372
 Red. masses --      5.4755                 1.4829                 3.9308
 Frc consts  --      0.7810                 0.2145                 0.6772
 IR Inten    --     12.3253                48.4293                25.4131

                     22                     23                     24
                      A                      A                      A
 Frequencies --    546.1590               567.5516               579.2298
 Red. masses --      5.3252                 5.0170                 6.4802
 Frc consts  --      0.9359                 0.9521                 1.2810
 IR Inten    --     11.3262                 6.6177                12.9359

                     25                     26                     27
                      A                      A                      A
 Frequencies --    650.4762               655.3696               687.2101
 Red. masses --      3.8351                 2.9376                 3.3303
 Frc consts  --      0.9561                 0.7434                 0.9266
 IR Inten    --     27.3400                40.6025                39.4090

                     28                     29                     30
                      A                      A                      A
 Frequencies --    696.1376               725.4916               731.3433
 Red. masses --      9.5675                 5.0496                 5.2194
 Frc consts  --      2.7317                 1.5659                 1.6448
 IR Inten    --      1.8001                12.3168                12.8145

                     31                     32                     33
                      A                      A                      A
 Frequencies --    751.2546               796.3146               887.5270
 Red. masses --      5.4613                 5.1937                 4.5259
 Frc consts  --      1.8160                 1.9404                 2.1005
 IR Inten    --     30.8654                14.0253                12.9510

                     34                     35                     36
                      A                      A                      A
 Frequencies --    896.6452               975.9188               990.5999
 Red. masses --      1.3551                 7.7798                 6.7683
 Frc consts  --      0.6419                 4.3656                 3.9132
 IR Inten    --     10.2021                51.1950                 8.0419

                     37                     38                     39
                      A                      A                      A
 Frequencies --   1018.5388              1025.8590              1055.9099
 Red. masses --      3.2678                 2.8153                 5.5147
 Frc consts  --      1.9974                 1.7456                 3.6226
 IR Inten    --      1.4989                 8.4872                19.2559

                     40                     41                     42
                      A                      A                      A
 Frequencies --   1066.0708              1074.0176              1079.1118
 Red. masses --      3.0677                 1.4817                 1.4485
 Frc consts  --      2.0541                 1.0070                 0.9938
 IR Inten    --     30.6878                 2.7739                 1.6873

                     43                     44                     45
                      A                      A                      A
 Frequencies --   1090.5122              1118.4485              1155.6147
 Red. masses --      2.0274                 5.0753                 5.5231
 Frc consts  --      1.4206                 3.7406                 4.3457
 IR Inten    --     15.8656                 9.1986                64.2179

                     46                     47                     48
                      A                      A                      A
 Frequencies --   1228.4617              1266.4582              1301.7785
 Red. masses --      2.4142                 1.9732                10.5794
 Frc consts  --      2.1466                 1.8647                10.5629
 IR Inten    --     16.3074                29.6782                13.7344

                     49                     50                     51
                      A                      A                      A
 Frequencies --   1311.0840              1319.2712              1387.0059
 Red. masses --      3.1207                 4.2677                 6.7211
 Frc consts  --      3.1606                 4.3764                 7.6181
 IR Inten    --     19.2354               225.6935               252.1635

                     52                     53                     54
                      A                      A                      A
 Frequencies --   1425.3271              1433.1295              1436.2582
 Red. masses --      4.9526                 1.9538                 1.3143
 Frc consts  --      5.9281                 2.3643                 1.5974
 IR Inten    --     71.6635                14.6405                 3.0355

                     55                     56                     57
                      A                      A                      A
 Frequencies --   1447.5504              1458.0692              1501.6206
 Red. masses --      1.3749                 2.4683                 1.2673
 Frc consts  --      1.6974                 3.0918                 1.6836
 IR Inten    --      5.0366                11.1327                62.9089

                     58                     59                     60
                      A                      A                      A
 Frequencies --   1509.4086              1514.1685              1523.8020
 Red. masses --      1.0874                 1.4500                 1.2586
 Frc consts  --      1.4596                 1.9587                 1.7218
 IR Inten    --      9.9177                19.6434                53.9345

                     61                     62                     63
                      A                      A                      A
 Frequencies --   1532.7353              1546.6401              1567.0933
 Red. masses --      1.9769                 3.6214                 4.8272
 Frc consts  --      2.7363                 5.1040                 6.9844
 IR Inten    --     86.9696               137.9600                13.6868

                     64                     65                     66
                      A                      A                      A
 Frequencies --   1614.0704              1649.6316              1775.2970
 Red. masses --      5.3974                 7.4427                 8.7807
 Frc consts  --      8.2848                11.9331                16.3051
 IR Inten    --    141.3076                95.6069               357.4589

                     67                     68                     69
                      A                      A                      A
 Frequencies --   3054.3508              3068.9788              3109.0135
 Red. masses --      1.0393                 1.0417                 1.1011
 Frc consts  --      5.7126                 5.7807                 6.2708
 IR Inten    --     12.8854                13.2294                10.3080

                     70                     71                     72
                      A                      A                      A
 Frequencies --   3131.4090              3163.0841              3182.3393
 Red. masses --      1.0984                 1.0988                 1.0985
 Frc consts  --      6.3461                 6.4775                 6.5545
 IR Inten    --     10.4122                 3.2401                 5.0715

                     73                     74                     75
                      A                      A                      A
 Frequencies --   3284.1783              3548.9011              3652.4479
 Red. masses --      1.0975                 1.0748                 1.0820
 Frc consts  --      6.9746                 7.9757                 8.5041
 IR Inten    --      3.5450                47.9656                84.0839

 - Thermochemistry -
 -------------------
 Temperature   298.150 Kelvin.  Pressure   1.00000 Atm.
 Atom     1 has atomic number  6 and mass  12.00000

 Molecular mass:   263.05893 amu.
 Principal axes and moments of inertia in atomic units:
                           1         2         3
     Eigenvalues --  2843.102626112.278327913.12817
           X            0.99979   0.02038  -0.00293
           Y           -0.02043   0.99965  -0.01705
           Z            0.00259   0.01711   0.99985
 This molecule is an asymmetric top.
 Rotational symmetry number  1.
 Warning -- assumption of classical behavior for rotation
           may cause significant error
 Rotational temperatures (Kelvin)      0.03046     0.01417     0.01095
 Rotational constants (GHZ):           0.63478     0.29526     0.22807
 Zero-point vibrational energy     515363.0 (Joules/Mol)
                                  123.17471 (Kcal/Mol)
 Warning -- explicit consideration of  24 degrees of freedom as
           vibrations may cause significant error
 Vibrational temperatures:     40.97    56.38    76.29   129.73   169.14
          (Kelvin)            182.95   216.81   267.07   307.19   317.47
                              347.45   391.76   416.90   457.14   475.13
                              507.10   551.94   654.94   707.91   712.92
                              778.00   785.80   816.58   833.38   935.89
                              942.93   988.74  1001.59  1043.82  1052.24
                             1080.89  1145.72  1276.95  1290.07  1404.13
                             1425.25  1465.45  1475.98  1519.22  1533.84
                             1545.27  1552.60  1569.00  1609.20  1662.67
                             1767.48  1822.15  1872.97  1886.36  1898.14
                             1995.59  2050.73  2061.95  2066.46  2082.70
                             2097.84  2160.50  2171.70  2178.55  2192.41
                             2205.26  2225.27  2254.70  2322.29  2373.45
                             2554.26  4394.53  4415.58  4473.18  4505.40
                             4550.97  4578.68  4725.20  5106.08  5255.06

 Zero-point correction=                           0.196291 (Hartree/Particle)
 Thermal correction to Energy=                    0.211886
 Thermal correction to Enthalpy=                  0.212830
 Thermal correction to Gibbs Free Energy=         0.151927
 Sum of electronic and zero-point Energies=          -1204.873624
 Sum of electronic and thermal Energies=             -1204.858030
 Sum of electronic and thermal Enthalpies=           -1204.857085
 Sum of electronic and thermal Free Energies=        -1204.917988

                     E (Thermal)             CV                S
                      KCal/Mol        Cal/Mol-Kelvin    Cal/Mol-Kelvin
 Total                  132.960             57.969            128.180
 Electronic               0.000              0.000              0.000
 Translational            0.889              2.981             42.601
 Rotational               0.889              2.981             33.286
 Vibrational            131.183             52.008             52.293
 Vibration     1          0.593              1.984              5.933
 Vibration     2          0.594              1.981              5.300
 Vibration     3          0.596              1.976              4.701
 Vibration     4          0.602              1.956              3.656
 Vibration     5          0.608              1.935              3.140
 Vibration     6          0.611              1.926              2.989
 Vibration     7          0.618              1.902              2.663
 Vibration     8          0.632              1.859              2.271
 Vibration     9          0.644              1.820              2.013
 Vibration    10          0.647              1.810              1.954
 Vibration    11          0.658              1.777              1.792
 Vibration    12          0.675              1.724              1.582
 Vibration    13          0.686              1.693              1.475
 Vibration    14          0.704              1.640              1.322
 Vibration    15          0.713              1.615              1.259
 Vibration    16          0.729              1.570              1.155
 Vibration    17          0.753              1.505              1.025
 Vibration    18          0.814              1.349              0.780
 Vibration    19          0.848              1.268              0.678
 Vibration    20          0.851              1.260              0.669
 Vibration    21          0.896              1.160              0.564
 Vibration    22          0.901              1.148              0.552
 Vibration    23          0.924              1.101              0.509
 Vibration    24          0.936              1.076              0.487

 Optimization completed.
    -- Stationary point found.
 Normal termination of Gaussian 16 at Fri Dec 11 19:48:27 2020.

 ----------------------------------------------------------------------
 # B3LYP/6-311++G(d,p) empiricaldispersion=gd3bj scf=xqc pop=npa geom=c
 heck
 ----------------------------------------------------------------------

 --------------------------------------
 CID_84433944_JID_8169_Energie_neutraal
 --------------------------------------
 Structure from the checkpoint file:  "JID_8169.chk"
 Charge =  0 Multiplicity = 1

 SCF Done:  E(RB3LYP) =  -1205.31466044     A.U. after   17 cycles
 Normal termination of Gaussian 16 at Fri Dec 11 19:53:31 2020.

 ----------------------------------------------------------------------
 # B3LYP/6-311++G(d,p) empiricaldispersion=gd3bj scf=xqc pop=npa geom=c
 heck
 ----------------------------------------------------------------------

 ------------------------------------
 CID_84433944_JID_8169_Energie_kation
 ------------------------------------
 Structure from the checkpoint file:  "JID_8169.chk"
 Charge =  1 Multiplicity = 2

 SCF Done:  E(UB3LYP) =  -1205.01306893     A.U. after   24 cycles
 Normal termination of Gaussian 16 at Fri Dec 11 20:03:41 2020.
 Gaussian 16:  ES64L-G16RevA.03 25-Dec-2016

 ----------------------------------------------------------------------
 # B3LYP/6-311++G(d,p) empiricaldispersion=gd3bj scf=xqc pop=npa geom=c
 heck
 ----------------------------------------------------------------------

 -----------------------------------
 CID_84433944_JID_8169_Energie_anion
 -----------------------------------
 Structure from the checkpoint file:  "JID_8169.chk"
 Charge = -1 Multiplicity = 2

                         Standard orientation:
 ---------------------------------------------------------------------
 Center     Atomic      Atomic             Coordinates (Angstroms)
 Number     Number       Type             X           Y           Z
 ---------------------------------------------------------------------
      1          6           0        0.223190   -1.198381    1.374219
      2          6           0       -0.512926   -0.144773    0.614012
      3          6           0       -0.116686    1.113837    0.266600
      4         16           0       -1.378702    2.069516   -0.547014
      5          6           0       -2.430969    0.679131   -0.467670
      6          7           0       -3.642463    0.377693   -0.849699
      7          7           0       -3.848674   -0.936068   -0.440380
      8          6           0       -2.775385   -1.385174    0.171257
      9          7           0       -1.816986   -0.379942    0.185339
     10          6           0       -2.625601   -2.754501    0.737411
     11          6           0        1.141284    1.833871    0.515107
     12          8           0        1.172876    3.048020    0.635790
     13          7           0        2.334296    1.102768    0.651490
     14          6           0        2.679513   -0.029675   -0.082672
     15          7           0        2.115973   -0.494992   -1.183326
     16          6           0        2.845733   -1.622864   -1.440339
     17          7           0        3.824045   -1.878406   -0.587184
     18          7           0        3.694333   -0.845769    0.296183
     19          1           0       -0.425393   -1.642418    2.134561
     20          1           0        1.092512   -0.773775    1.874959
     21          1           0        0.564703   -1.996953    0.705994
     22          1           0       -2.527297   -2.743503    1.829169
     23          1           0       -3.525885   -3.316592    0.481277
     24          1           0       -1.757024   -3.278107    0.323134
     25          1           0        3.098700    1.732411    0.879448
     26          1           0        2.652791   -2.261249   -2.291040
     27          1           0        4.310519   -0.782045    1.093906
 ---------------------------------------------------------------------

 SCF Done:  E(UB3LYP) =  -1205.34244081     A.U. after   32 cycles

 The electronic state is 2-A.
 Alpha  occ. eigenvalues --  -88.74655 -18.94349 -14.29334 -14.26071 -14.24142
 Alpha  occ. eigenvalues --  -14.23587 -14.19924 -14.19712 -14.19339 -10.17361
 Alpha  occ. eigenvalues --  -10.12383 -10.12345 -10.12276 -10.11502 -10.08366
 Alpha  occ. eigenvalues --  -10.08318 -10.06888 -10.06733  -7.83231  -5.79590
 Alpha  occ. eigenvalues --   -5.79229  -5.78686  -0.98266  -0.94098  -0.90784
 Alpha  occ. eigenvalues --   -0.82802  -0.82081  -0.79322  -0.72812  -0.71834
 Alpha  occ. eigenvalues --   -0.67468  -0.65541  -0.61880  -0.57148  -0.55234
 Alpha  occ. eigenvalues --   -0.54122  -0.52234  -0.48491  -0.47889  -0.44609
 Alpha  occ. eigenvalues --   -0.43585  -0.39388  -0.38269  -0.36824  -0.36537
 Alpha  occ. eigenvalues --   -0.34741  -0.34091  -0.32497  -0.32122  -0.31956
 Alpha  occ. eigenvalues --   -0.30970  -0.29703  -0.29031  -0.28070  -0.27611
 Alpha  occ. eigenvalues --   -0.24269  -0.23375  -0.22311  -0.20939  -0.19926
 Alpha  occ. eigenvalues --   -0.18907  -0.18795  -0.18386  -0.14495  -0.13996
 Alpha  occ. eigenvalues --   -0.13237  -0.12378  -0.09310   0.02895
 Alpha virt. eigenvalues --    0.05995   0.07486   0.08975   0.09218   0.10122
 Alpha virt. eigenvalues --    0.10415   0.11353   0.12101   0.12808   0.13331
 Alpha virt. eigenvalues --    0.13475   0.13751   0.14291   0.14464   0.14567

  Beta  occ. eigenvalues --  -88.74628 -18.93851 -14.29266 -14.26133 -14.24111
  Beta  occ. eigenvalues --  -14.23620 -14.19893 -14.19619 -14.19370 -10.17272
  Beta  occ. eigenvalues --  -10.12397 -10.12264 -10.11876 -10.11438 -10.08370
  Beta  occ. eigenvalues --  -10.07829 -10.06922 -10.06699  -7.83206  -5.79568
  Beta  occ. eigenvalues --   -5.79210  -5.78618  -0.98177  -0.93991  -0.90010
  Beta  occ. eigenvalues --   -0.82518  -0.81876  -0.79224  -0.72707  -0.71712
  Beta  occ. eigenvalues --   -0.67181  -0.65259  -0.61809  -0.56846  -0.54875
  Beta  occ. eigenvalues --   -0.53945  -0.51975  -0.48323  -0.47786  -0.44367
  Beta  occ. eigenvalues --   -0.43397  -0.39325  -0.37912  -0.36464  -0.36289
  Beta  occ. eigenvalues --   -0.34540  -0.34020  -0.32247  -0.31942  -0.31697
  Beta  occ. eigenvalues --   -0.30789  -0.29286  -0.28347  -0.27922  -0.26679
  Beta  occ. eigenvalues --   -0.24075  -0.23188  -0.21822  -0.20246  -0.19351
  Beta  occ. eigenvalues --   -0.18745  -0.18511  -0.18268  -0.14178  -0.13639
  Beta  occ. eigenvalues --   -0.12812  -0.11466  -0.08216
  Beta virt. eigenvalues --    0.06094   0.07464   0.08918   0.08989   0.09710
  Beta virt. eigenvalues --    0.10170   0.10570   0.11447   0.12153   0.12774
  Beta virt. eigenvalues --    0.13377   0.13477   0.13964   0.14446   0.14582

 Mulliken charges and spin densities:
               1          2
     1  C   -0.862675  -0.031068
     2  C   -1.016343   0.335072
     3  C    1.184372  -0.059661
     4  S   -0.310368   0.060093
     5  C    0.151295   0.007621
     6  N   -0.166695  -0.017407
     7  N   -0.133529   0.046905
     8  C    0.331427   0.028820
     9  N    0.300007  -0.029137
    10  C   -0.694162  -0.002567
    11  C   -0.141676   0.278215
    12  O   -0.399289   0.176736
    13  N   -0.322555  -0.014089
    14  C   -0.213592  -0.022193
    15  N   -0.030705   0.018733
    16  C    0.046374  -0.012936
    17  N   -0.163560   0.032339
    18  N   -0.064808   0.011649
    19  H    0.154641   0.012677
    20  H    0.170505  -0.001656
    21  H    0.123380   0.022200
    22  H    0.139032   0.000968
    23  H    0.176109   0.000178
    24  H    0.149954   0.001705
    25  H    0.231890   0.071300
    26  H    0.146353   0.000663
    27  H    0.214619   0.084840
 Sum of Mulliken charges =  -1.00000   1.00000

 Dipole moment (field-independent basis, Debye):
    X=              5.0226    Y=             -5.2542    Z=              3.1168  Tot=              7.9087
 Quadrupole moment (field-independent basis, Debye-Ang):
   XX=           -165.9327   YY=           -142.2614   ZZ=           -118.9581
   XY=              4.2461   XZ=             -3.4300   YZ=             -4.7646

 Summary of Natural Population Analysis:

                                       Natural Population
                Natural  -----------------------------------------------
    Atom  No    Charge         Core      Valence    Rydberg      Total
 -----------------------------------------------------------------------
      C    1   -0.30528      0.99964     2.30115    0.00449     3.30528
      C    2    0.17256      0.99946     1.81873    0.00925     2.82744
      C    3   -0.13001      0.99938     2.11892    0.01171     3.13001
      S    4    0.20517      4.99946     2.77479    0.02058     7.79483
      C    5    0.11721      0.99958     1.86421    0.01901     2.88279
      N    6   -0.19331      0.99965     2.67837    0.01530     3.69331
      N    7   -0.15568      0.99968     2.64141    0.01460     3.65568
      C    8    0.17833      0.99965     1.80738    0.01464     2.82167
      N    9   -0.22460      0.99955     2.71145    0.01360     3.72460
      C   10   -0.30428      0.99964     2.30057    0.00406     3.30428
      C   11    0.37593      0.99960     1.60144    0.02303     2.62407
      O   12   -0.26650      0.99988     3.26136    0.00526     4.26650
      N   13   -0.33679      0.99964     2.82778    0.00937     3.83679
      C   14    0.28814      0.99963     1.69337    0.01886     2.71186
      N   15   -0.26397      0.99969     2.75536    0.00891     3.76397
      C   16    0.08379      0.99971     1.89794    0.01855     2.91621
      N   17   -0.17163      0.99974     2.65875    0.01314     3.67163
      N   18   -0.19163      0.99965     2.67802    0.01396     3.69163
      H   19    0.10217      0.00000     0.39678    0.00105     0.39783
      H   20    0.11101      0.00000     0.38800    0.00098     0.38899
      H   21    0.10869      0.00000     0.39017    0.00114     0.39131
      H   22    0.10042      0.00000     0.39848    0.00110     0.39958
      H   23    0.11176      0.00000     0.38713    0.00111     0.38824
      H   24    0.10337      0.00000     0.39554    0.00109     0.39663
      H   25    0.19658      0.00000     0.29993    0.00349     0.30342
      H   26    0.09001      0.00000     0.40912    0.00087     0.40999
      H   27    0.19852      0.00000     0.29930    0.00218     0.30148
 =======================================================================
   * Total *   -0.00000     21.99322    45.75545    0.25133    68.00000

 Normal termination of Gaussian 16 at Fri Dec 11 20:17:13 2020.
