 Gaussian 16, Revision A.03,

 -----------------------------------------------------------
 # opt freq B3LYP/6-31G(d) empiricaldispersion=gd3bj scf=xqc
 -----------------------------------------------------------

 -------------------------------
 CID_103125188_JID_1017_neutraal
 -------------------------------
 Symbolic Z-matrix:
 Charge =  0 Multiplicity = 1

 SCF Done:  E(RB3LYP) =  -533.943573970     A.U. after   14 cycles
 SCF Done:  E(RB3LYP) =  -533.946380257     A.U. after   12 cycles
 SCF Done:  E(RB3LYP) =  -533.940177175     A.U. after   14 cycles
 SCF Done:  E(RB3LYP) =  -533.946736161     A.U. after   12 cycles
 SCF Done:  E(RB3LYP) =  -533.948155592     A.U. after   12 cycles
 SCF Done:  E(RB3LYP) =  -533.949332750     A.U. after   12 cycles
 SCF Done:  E(RB3LYP) =  -533.950172335     A.U. after   12 cycles
 SCF Done:  E(RB3LYP) =  -533.950589598     A.U. after   11 cycles
 SCF Done:  E(RB3LYP) =  -533.950891602     A.U. after   12 cycles
 SCF Done:  E(RB3LYP) =  -533.950989457     A.U. after   11 cycles
 SCF Done:  E(RB3LYP) =  -533.951064797     A.U. after   10 cycles
 SCF Done:  E(RB3LYP) =  -533.951096607     A.U. after   10 cycles
 SCF Done:  E(RB3LYP) =  -533.951103105     A.U. after   10 cycles
 SCF Done:  E(RB3LYP) =  -533.951104286     A.U. after    8 cycles
 SCF Done:  E(RB3LYP) =  -533.951104792     A.U. after    9 cycles
 SCF Done:  E(RB3LYP) =  -533.951104958     A.U. after    7 cycles
 Optimization completed.
    -- Stationary point found.
 Normal termination of Gaussian 16 at Tue Dec  8 19:12:01 2020.

 --------------------------------------------------------------------
 #N Geom=AllCheck Guess=TCheck SCRF=Check GenChk RB3LYP/6-31G(d) Freq
 --------------------------------------------------------------------

 Structure from the checkpoint file:  "JID_1017.chk"
 -------------------------------
 CID_103125188_JID_1017_neutraal
 -------------------------------
 Charge =  0 Multiplicity = 1

 SCF Done:  E(RB3LYP) =  -533.951104958     A.U. after    1 cycles

  Exact polarizability: 102.728   2.464  94.807  11.134  -1.071  65.854
 Approx polarizability: 136.362   3.578 146.111  23.572  -1.603  99.337

                      1                      2                      3
                      A                      A                      A
 Frequencies --     31.5693                76.4512                95.3588
 Red. masses --      4.7843                 5.5469                 3.4377
 Frc consts  --      0.0028                 0.0191                 0.0184
 IR Inten    --      2.4714                 0.1847                 2.1279

                      4                      5                      6
                      A                      A                      A
 Frequencies --    104.4021               155.7126               208.9095
 Red. masses --      2.9218                 2.5831                 4.0132
 Frc consts  --      0.0188                 0.0369                 0.1032
 IR Inten    --      4.8496                13.3420                 0.4161

                      7                      8                      9
                      A                      A                      A
 Frequencies --    232.3113               253.4731               305.1855
 Red. masses --      1.6881                 2.4579                 2.4510
 Frc consts  --      0.0537                 0.0930                 0.1345
 IR Inten    --      2.0868                15.2638                 4.7755

                     10                     11                     12
                      A                      A                      A
 Frequencies --    351.0605               407.1320               437.3270
 Red. masses --      2.1173                 1.5734                 1.8448
 Frc consts  --      0.1537                 0.1537                 0.2079
 IR Inten    --     19.7387                36.2071                15.8906

                     13                     14                     15
                      A                      A                      A
 Frequencies --    494.8818               551.8220               604.9845
 Red. masses --      2.6130                 3.6808                 3.8706
 Frc consts  --      0.3770                 0.6604                 0.8347
 IR Inten    --      1.4357                 2.3643                 1.0991

                     16                     17                     18
                      A                      A                      A
 Frequencies --    643.7850               657.7034               745.7415
 Red. masses --      1.3413                 3.3692                 6.3164
 Frc consts  --      0.3275                 0.8587                 2.0697
 IR Inten    --    101.9238                11.0681                 2.8706

                     19                     20                     21
                      A                      A                      A
 Frequencies --    772.9319               783.0982               826.5645
 Red. masses --      1.1722                 4.5847                 1.9267
 Frc consts  --      0.4126                 1.6565                 0.7756
 IR Inten    --      1.6354                 6.1944                 2.6037

                     22                     23                     24
                      A                      A                      A
 Frequencies --    890.1849               910.3946               938.0555
 Red. masses --      2.9386                 3.2335                 2.4314
 Frc consts  --      1.3720                 1.5790                 1.2606
 IR Inten    --      6.2110                 6.0985                20.0325

                     25                     26                     27
                      A                      A                      A
 Frequencies --   1037.0701              1051.8116              1100.8562
 Red. masses --      1.9681                 1.9594                 1.9100
 Frc consts  --      1.2471                 1.2772                 1.3638
 IR Inten    --      8.8012                10.2506                33.7517

                     28                     29                     30
                      A                      A                      A
 Frequencies --   1110.8001              1114.7968              1169.8439
 Red. masses --      1.5114                 2.2303                 3.4161
 Frc consts  --      1.0988                 1.6331                 2.7544
 IR Inten    --     15.0026                12.9720                84.4742

                     31                     32                     33
                      A                      A                      A
 Frequencies --   1181.2925              1196.4219              1199.9874
 Red. masses --      1.3886                 2.3569                 1.4179
 Frc consts  --      1.1417                 1.9878                 1.2030
 IR Inten    --      2.6672                16.8065                20.3743

                     34                     35                     36
                      A                      A                      A
 Frequencies --   1239.4267              1267.8374              1292.5944
 Red. masses --      1.7625                 1.3553                 2.0809
 Frc consts  --      1.5952                 1.2836                 2.0484
 IR Inten    --     38.2462                13.1705                18.4464

                     37                     38                     39
                      A                      A                      A
 Frequencies --   1317.6550              1375.8253              1393.6885
 Red. masses --      1.3582                 1.6127                 1.3563
 Frc consts  --      1.3894                 1.7985                 1.5522
 IR Inten    --      4.8666                 3.7387                27.7456

                     40                     41                     42
                      A                      A                      A
 Frequencies --   1405.9103              1418.6984              1441.3407
 Red. masses --      2.1052                 1.5702                 1.3570
 Frc consts  --      2.4516                 1.8620                 1.6609
 IR Inten    --     13.0836                14.1368                20.3669

                     43                     44                     45
                      A                      A                      A
 Frequencies --   1461.8151              1499.3667              1503.8079
 Red. masses --      2.8205                 1.1018                 1.1815
 Frc consts  --      3.5511                 1.4594                 1.5742
 IR Inten    --     91.4462                 2.9722                 1.8836

                     46                     47                     48
                      A                      A                      A
 Frequencies --   1514.4567              1519.0376              1536.9543
 Red. masses --      1.1349                 1.0489                 1.0542
 Frc consts  --      1.5336                 1.4261                 1.4673
 IR Inten    --     19.9665                 1.3327                 5.6928

                     49                     50                     51
                      A                      A                      A
 Frequencies --   1554.7666              1645.0296              1818.2898
 Red. masses --      1.0879                 4.7970                 9.9395
 Frc consts  --      1.5494                 7.6483                19.3617
 IR Inten    --      8.2776                 2.6643               525.0610

                     52                     53                     54
                      A                      A                      A
 Frequencies --   2982.2772              2995.6298              3032.1213
 Red. masses --      1.0601                 1.0529                 1.0932
 Frc consts  --      5.5553                 5.5668                 5.9216
 IR Inten    --     40.0711               126.4234                32.7756

                     55                     56                     57
                      A                      A                      A
 Frequencies --   3051.4185              3072.8109              3078.5927
 Red. masses --      1.0633                 1.0680                 1.0897
 Frc consts  --      5.8334                 5.9415                 6.0849
 IR Inten    --     35.8948                39.0170                23.5449

                     58                     59                     60
                      A                      A                      A
 Frequencies --   3095.5271              3137.1985              3152.2487
 Red. masses --      1.1022                 1.1014                 1.0982
 Frc consts  --      6.2226                 6.3870                 6.4293
 IR Inten    --     43.4277                33.5245                 1.9018

                     61                     62                     63
                      A                      A                      A
 Frequencies --   3289.3290              3311.8257              3689.3090
 Red. masses --      1.0906                 1.1074                 1.0806
 Frc consts  --      6.9522                 7.1563                 8.6655
 IR Inten    --      1.5719                 0.8988                74.4271

 - Thermochemistry -
 -------------------
 Temperature   298.150 Kelvin.  Pressure   1.00000 Atm.
 Atom     1 has atomic number  6 and mass  12.00000

 Molecular mass:   156.08988 amu.
 Principal axes and moments of inertia in atomic units:
                           1         2         3
     Eigenvalues --   921.146122334.763412890.50658
           X            0.99986   0.01666  -0.00271
           Y           -0.01671   0.99965  -0.02066
           Z            0.00236   0.02071   0.99978
 This molecule is an asymmetric top.
 Rotational symmetry number  1.
 Warning -- assumption of classical behavior for rotation
           may cause significant error
 Rotational temperatures (Kelvin)      0.09403     0.03710     0.02996
 Rotational constants (GHZ):           1.95923     0.77299     0.62437
 Zero-point vibrational energy     512819.4 (Joules/Mol)
                                  122.56678 (Kcal/Mol)
 Warning -- explicit consideration of  15 degrees of freedom as
           vibrations may cause significant error
 Vibrational temperatures:     45.42   110.00   137.20   150.21   224.04
          (Kelvin)            300.57   334.24   364.69   439.09   505.10
                              585.77   629.22   712.02   793.95   870.44
                              926.26   946.29  1072.96  1112.08  1126.70
                             1189.24  1280.78  1309.85  1349.65  1492.11
                             1513.32  1583.89  1598.19  1603.94  1683.14
                             1699.62  1721.38  1726.51  1783.26  1824.14
                             1859.76  1895.81  1979.51  2005.21  2022.79
                             2041.19  2073.77  2103.23  2157.25  2163.64
                             2178.97  2185.56  2211.33  2236.96  2366.83
                             2616.11  4290.83  4310.04  4362.55  4390.31
                             4421.09  4429.41  4453.77  4513.73  4535.38
                             4732.61  4764.98  5308.09

 Zero-point correction=                           0.195323 (Hartree/Particle)
 Thermal correction to Energy=                    0.206465
 Thermal correction to Enthalpy=                  0.207409
 Thermal correction to Gibbs Free Energy=         0.157559
 Sum of electronic and zero-point Energies=           -533.755782
 Sum of electronic and thermal Energies=              -533.744640
 Sum of electronic and thermal Enthalpies=            -533.743696
 Sum of electronic and thermal Free Energies=         -533.793546

                     E (Thermal)             CV                S
                      KCal/Mol        Cal/Mol-Kelvin    Cal/Mol-Kelvin
 Total                  129.559             40.671            104.918
 Electronic               0.000              0.000              0.000
 Translational            0.889              2.981             41.045
 Rotational               0.889              2.981             30.209
 Vibrational            127.781             34.710             33.663
 Vibration     1          0.594              1.983              5.728
 Vibration     2          0.599              1.965              3.980
 Vibration     3          0.603              1.953              3.547
 Vibration     4          0.605              1.946              3.370
 Vibration     5          0.620              1.896              2.601
 Vibration     6          0.642              1.827              2.053
 Vibration     7          0.653              1.792              1.861
 Vibration     8          0.665              1.757              1.706
 Vibration     9          0.696              1.664              1.388
 Vibration    10          0.728              1.573              1.161
 Vibration    11          0.772              1.455              0.937
 Vibration    12          0.798              1.389              0.835
 Vibration    13          0.850              1.261              0.671
 Vibration    14          0.907              1.136              0.540
 Vibration    15          0.964              1.021              0.441

                           ! Non-Optimized Parameters !
 Normal termination of Gaussian 16 at Tue Dec  8 19:16:19 2020.

 ----------------------------------------------------------------------
 # B3LYP/6-311++G(d,p) empiricaldispersion=gd3bj scf=xqc pop=npa geom=c
 heck
 ----------------------------------------------------------------------

 ---------------------------------------
 CID_103125188_JID_1017_Energie_neutraal
 ---------------------------------------
 Structure from the checkpoint file:  "JID_1017.chk"
 Charge =  0 Multiplicity = 1

 SCF Done:  E(RB3LYP) =  -534.111838044     A.U. after   14 cycles
 Normal termination of Gaussian 16 at Tue Dec  8 19:17:46 2020.

 ----------------------------------------------------------------------
 # B3LYP/6-311++G(d,p) empiricaldispersion=gd3bj scf=xqc pop=npa geom=c
 heck
 ----------------------------------------------------------------------

 -------------------------------------
 CID_103125188_JID_1017_Energie_kation
 -------------------------------------
 Structure from the checkpoint file:  "JID_1017.chk"
 Charge =  1 Multiplicity = 2

 SCF Done:  E(UB3LYP) =  -533.826825833     A.U. after   19 cycles
 Normal termination of Gaussian 16 at Tue Dec  8 19:20:20 2020.
 Gaussian 16:  ES64L-G16RevA.03 25-Dec-2016

 ----------------------------------------------------------------------
 # B3LYP/6-311++G(d,p) empiricaldispersion=gd3bj scf=xqc pop=npa geom=c
 heck
 ----------------------------------------------------------------------

 ------------------------------------
 CID_103125188_JID_1017_Energie_anion
 ------------------------------------
 Structure from the checkpoint file:  "JID_1017.chk"
 Charge = -1 Multiplicity = 2

                         Standard orientation:
 ---------------------------------------------------------------------
 Center     Atomic      Atomic             Coordinates (Angstroms)
 Number     Number       Type             X           Y           Z
 ---------------------------------------------------------------------
      1          6           0        2.976883    1.286692   -0.243854
      2          8           0        2.633228   -0.038529    0.115389
      3          6           0        1.780729   -0.664734   -0.822940
      4          6           0        1.022248   -1.768273   -0.096505
      5          6           0        0.081318   -1.202505    0.974297
      6          7           0       -1.042418   -0.473240    0.408236
      7          6           0       -2.189773   -1.030363   -0.158705
      8          6           0       -2.964914   -0.019610   -0.611403
      9          7           0       -2.287000    1.166380   -0.330894
     10          6           0       -1.075741    0.915009    0.301401
     11          8           0       -0.232210    1.725225    0.672618
     12          1           0        3.634612    1.667074    0.542257
     13          1           0        2.080705    1.917443   -0.302177
     14          1           0        3.517512    1.320582   -1.203971
     15          1           0        1.070680    0.061514   -1.245968
     16          1           0        2.365847   -1.079873   -1.660939
     17          1           0        0.453860   -2.365963   -0.820767
     18          1           0        1.745972   -2.436327    0.386062
     19          1           0       -0.313021   -2.003127    1.609396
     20          1           0        0.629817   -0.496764    1.601296
     21          1           0       -2.352762   -2.096625   -0.172631
     22          1           0       -3.928224   -0.034792   -1.095080
     23          1           0       -2.591720    2.104024   -0.536672
 ---------------------------------------------------------------------

 SCF Done:  E(UB3LYP) =  -534.098025066     A.U. after   30 cycles

 The electronic state is 2-A.
 Alpha  occ. eigenvalues --  -19.02733 -18.97422 -14.25168 -14.24652 -10.18342
 Alpha  occ. eigenvalues --  -10.11727 -10.11242 -10.10777 -10.09701 -10.09463
 Alpha  occ. eigenvalues --  -10.07424  -0.95032  -0.94015  -0.87688  -0.80831
 Alpha  occ. eigenvalues --   -0.69237  -0.64290  -0.61301  -0.56697  -0.52377
 Alpha  occ. eigenvalues --   -0.51544  -0.46620  -0.42739  -0.40230  -0.39642
 Alpha  occ. eigenvalues --   -0.37375  -0.36663  -0.35477  -0.34475  -0.33372
 Alpha  occ. eigenvalues --   -0.32321  -0.31633  -0.30341  -0.27658  -0.27016
 Alpha  occ. eigenvalues --   -0.25081  -0.23096  -0.22454  -0.18963  -0.16688
 Alpha  occ. eigenvalues --   -0.16359  -0.09710   0.04602
 Alpha virt. eigenvalues --    0.06699   0.07267   0.08499   0.08819   0.09801
 Alpha virt. eigenvalues --    0.10336   0.11245   0.11853   0.12518   0.12825
 Alpha virt. eigenvalues --    0.13535   0.14002   0.14905   0.15515   0.16028

  Beta  occ. eigenvalues --  -19.02729 -18.97418 -14.25165 -14.24618 -10.18342
  Beta  occ. eigenvalues --  -10.11716 -10.11238 -10.10765 -10.09669 -10.09439
  Beta  occ. eigenvalues --  -10.07405  -0.95017  -0.94009  -0.87671  -0.80790
  Beta  occ. eigenvalues --   -0.69202  -0.64240  -0.61269  -0.56667  -0.52315
  Beta  occ. eigenvalues --   -0.51500  -0.46567  -0.42659  -0.40208  -0.39610
  Beta  occ. eigenvalues --   -0.37336  -0.36636  -0.35448  -0.34407  -0.33326
  Beta  occ. eigenvalues --   -0.32300  -0.31600  -0.30322  -0.27631  -0.26998
  Beta  occ. eigenvalues --   -0.25052  -0.23077  -0.22434  -0.18940  -0.16672
  Beta  occ. eigenvalues --   -0.16347  -0.09690
  Beta virt. eigenvalues --    0.06959   0.07843   0.08354   0.08862   0.09910
  Beta virt. eigenvalues --    0.10396   0.10989   0.11290   0.12356   0.12593
  Beta virt. eigenvalues --    0.13271   0.13591   0.14145   0.14999   0.15607

 Mulliken charges and spin densities:
               1          2
     1  C   -0.151036  -0.149374
     2  O   -0.120771   0.008922
     3  C   -0.046426  -0.348309
     4  C    0.594358  -0.812305
     5  C   -0.556103   0.275389
     6  N    0.074128  -0.030383
     7  C    0.099557  -0.308284
     8  C    1.870046  -1.977001
     9  N   -0.340507   0.117435
    10  C    0.897924  -0.804489
    11  O   -0.457806   0.032935
    12  H    0.083379   0.033392
    13  H    0.147929   0.044144
    14  H    0.051015   0.052931
    15  H    0.069497   0.097099
    16  H   -0.167351   0.313132
    17  H   -0.171357   0.322754
    18  H   -0.064549   0.231033
    19  H   -0.298850   0.491533
    20  H    0.275802  -0.068829
    21  H   -0.923357   1.078469
    22  H   -1.488530   1.672195
    23  H   -0.376989   0.727611
 Sum of Mulliken charges =  -1.00000   1.00000

 Dipole moment (field-independent basis, Debye):
    X=              8.1992    Y=              1.3069    Z=              2.1447  Tot=              8.5753
 Quadrupole moment (field-independent basis, Debye-Ang):
   XX=           -136.0675   YY=           -112.8792   ZZ=            -95.2261
   XY=              2.1241   XZ=            -11.3433   YZ=             -1.8071

 Summary of Natural Population Analysis:

                                       Natural Population
                Natural  -----------------------------------------------
    Atom  No    Charge         Core      Valence    Rydberg      Total
 -----------------------------------------------------------------------
      C    1   -0.09937      0.99962     2.09179    0.00796     3.09937
      O    2   -0.30270      0.99988     3.29354    0.00927     4.30270
      C    3   -0.01005      0.99958     1.99774    0.01273     3.01005
      C    4   -0.20293      0.99962     2.19357    0.00974     3.20293
      C    5   -0.08637      0.99961     2.07453    0.01223     3.08637
      N    6   -0.24325      0.99964     2.73180    0.01182     3.74325
      C    7   -0.02780      0.99954     2.01535    0.01292     3.02780
      C    8   -0.02378      0.99955     2.01112    0.01311     3.02378
      N    9   -0.30278      0.99968     2.79203    0.01107     3.80278
      C   10    0.38729      0.99967     1.58883    0.02421     2.61271
      O   11   -0.35124      0.99987     3.34579    0.00557     4.35124
      H   12    0.08535      0.00000     0.41378    0.00087     0.41465
      H   13    0.09591      0.00000     0.40276    0.00133     0.40409
      H   14    0.07094      0.00000     0.42766    0.00140     0.42906
      H   15    0.08472      0.00000     0.41345    0.00182     0.41528
      H   16    0.07938      0.00000     0.41937    0.00125     0.42062
      H   17    0.10302      0.00000     0.39541    0.00158     0.39698
      H   18    0.10064      0.00000     0.39793    0.00142     0.39936
      H   19    0.09843      0.00000     0.40037    0.00120     0.40157
      H   20    0.11483      0.00000     0.38353    0.00164     0.38517
      H   21    0.10938      0.00000     0.38677    0.00385     0.39062
      H   22    0.11167      0.00000     0.37805    0.01028     0.38833
      H   23    0.20871      0.00000     0.28526    0.00603     0.29129
 =======================================================================
   * Total *    0.00000     10.99626    30.84043    0.16330    42.00000

 Normal termination of Gaussian 16 at Tue Dec  8 19:24:21 2020.
