 Gaussian 16, Revision A.03,

 -----------------------------------------------------------
 # opt freq B3LYP/6-31G(d) empiricaldispersion=gd3bj scf=xqc
 -----------------------------------------------------------

 -------------------------------
 CID_113433013_JID_7294_neutraal
 -------------------------------
 Symbolic Z-matrix:
 Charge =  0 Multiplicity = 1

 SCF Done:  E(RB3LYP) =  -782.278740905     A.U. after   15 cycles
 SCF Done:  E(RB3LYP) =  -782.286755533     A.U. after   14 cycles
 SCF Done:  E(RB3LYP) =  -782.289630780     A.U. after   14 cycles
 SCF Done:  E(RB3LYP) =  -782.290959912     A.U. after   14 cycles
 SCF Done:  E(RB3LYP) =  -782.292150705     A.U. after   13 cycles
 SCF Done:  E(RB3LYP) =  -782.292434541     A.U. after   12 cycles
 SCF Done:  E(RB3LYP) =  -782.292784550     A.U. after   13 cycles
 SCF Done:  E(RB3LYP) =  -782.293090847     A.U. after   12 cycles
 SCF Done:  E(RB3LYP) =  -782.293372763     A.U. after   12 cycles
 SCF Done:  E(RB3LYP) =  -782.293420334     A.U. after   13 cycles
 SCF Done:  E(RB3LYP) =  -782.293548541     A.U. after    9 cycles
 SCF Done:  E(RB3LYP) =  -782.293553783     A.U. after   10 cycles
 SCF Done:  E(RB3LYP) =  -782.293555273     A.U. after   10 cycles
 SCF Done:  E(RB3LYP) =  -782.293556327     A.U. after    8 cycles
 SCF Done:  E(RB3LYP) =  -782.293556920     A.U. after    8 cycles
 Optimization completed.
    -- Stationary point found.
 Normal termination of Gaussian 16 at Sun Dec 13 20:15:10 2020.

 --------------------------------------------------------------------
 #N Geom=AllCheck Guess=TCheck SCRF=Check GenChk RB3LYP/6-31G(d) Freq
 --------------------------------------------------------------------

 Structure from the checkpoint file:  "JID_7294.chk"
 -------------------------------
 CID_113433013_JID_7294_neutraal
 -------------------------------
 Charge =  0 Multiplicity = 1

 SCF Done:  E(RB3LYP) =  -782.293556920     A.U. after    1 cycles

  Exact polarizability: 198.445   2.761 170.118  -0.244   6.485  93.317
 Approx polarizability: 280.803  -4.818 287.339   3.449  22.384 150.225

                      1                      2                      3
                      A                      A                      A
 Frequencies --     30.4373                41.6132                54.6124
 Red. masses --      5.6681                 4.2769                 4.9218
 Frc consts  --      0.0031                 0.0044                 0.0086
 IR Inten    --      3.8164                 1.6067                 4.4257

                      4                      5                      6
                      A                      A                      A
 Frequencies --     79.9373                85.3326               117.1900
 Red. masses --      4.5909                 4.2987                 3.9283
 Frc consts  --      0.0173                 0.0184                 0.0318
 IR Inten    --      6.0517                 3.8613                 2.8038

                      7                      8                      9
                      A                      A                      A
 Frequencies --    166.7972               199.2448               245.7445
 Red. masses --      5.4127                 4.3426                 2.3376
 Frc consts  --      0.0887                 0.1016                 0.0832
 IR Inten    --      1.7997                 2.1763                 1.1168

                     10                     11                     12
                      A                      A                      A
 Frequencies --    263.9110               265.7760               279.0527
 Red. masses --      1.5097                 1.1184                 1.5550
 Frc consts  --      0.0620                 0.0465                 0.0713
 IR Inten    --     26.6455                 4.9919                 3.9133

                     13                     14                     15
                      A                      A                      A
 Frequencies --    298.6223               304.1375               311.6336
 Red. masses --      1.7291                 1.9997                 1.2723
 Frc consts  --      0.0908                 0.1090                 0.0728
 IR Inten    --     35.1876                 4.9987                 7.4332

                     16                     17                     18
                      A                      A                      A
 Frequencies --    332.3501               339.2701               356.8525
 Red. masses --      1.4143                 2.9255                 2.2618
 Frc consts  --      0.0920                 0.1984                 0.1697
 IR Inten    --     20.0364                 1.1607                29.7306

                     19                     20                     21
                      A                      A                      A
 Frequencies --    360.7597               386.8172               408.1146
 Red. masses --      2.9265                 3.6699                 4.1712
 Frc consts  --      0.2244                 0.3235                 0.4093
 IR Inten    --      9.7983                 5.4385                11.4070

                     22                     23                     24
                      A                      A                      A
 Frequencies --    420.5223               430.7538               466.1559
 Red. masses --      3.3711                 3.6504                 1.3902
 Frc consts  --      0.3512                 0.3991                 0.1780
 IR Inten    --      5.5977                 2.3416               145.3155

                     25                     26                     27
                      A                      A                      A
 Frequencies --    519.7239               540.6214               547.0512
 Red. masses --      2.2505                 2.8006                 3.7108
 Frc consts  --      0.3582                 0.4823                 0.6543
 IR Inten    --     47.1848                11.4847                17.3808

                     28                     29                     30
                      A                      A                      A
 Frequencies --    566.2970               579.3502               593.6225
 Red. masses --      2.0994                 3.8616                 2.2664
 Frc consts  --      0.3967                 0.7637                 0.4705
 IR Inten    --     75.7427                21.4925                82.8988

                     31                     32                     33
                      A                      A                      A
 Frequencies --    625.7542               640.4500               682.0487
 Red. masses --      2.6524                 3.2374                 1.5220
 Frc consts  --      0.6119                 0.7824                 0.4171
 IR Inten    --      7.3094                 5.2890               289.1592

                     34                     35                     36
                      A                      A                      A
 Frequencies --    707.1336               732.4022               737.9635
 Red. masses --      3.8711                 3.6554                 3.9382
 Frc consts  --      1.1405                 1.1553                 1.2636
 IR Inten    --      6.7434                42.0106                11.7897

                     37                     38                     39
                      A                      A                      A
 Frequencies --    783.4066               818.6203               830.8573
 Red. masses --      4.3358                 1.8600                 2.8095
 Frc consts  --      1.5678                 0.7344                 1.1427
 IR Inten    --     22.2615                26.8732                26.7879

                     40                     41                     42
                      A                      A                      A
 Frequencies --    910.8565               922.1454               926.1778
 Red. masses --      1.4450                 3.0724                 1.9052
 Frc consts  --      0.7064                 1.5393                 0.9629
 IR Inten    --      4.9093                 4.8932                10.5027

                     43                     44                     45
                      A                      A                      A
 Frequencies --    930.0030               954.0047              1000.2408
 Red. masses --      1.6797                 1.4761                 2.0257
 Frc consts  --      0.8560                 0.7915                 1.1941
 IR Inten    --      6.8160                 2.7847                 9.7707

                     46                     47                     48
                      A                      A                      A
 Frequencies --   1027.5022              1042.3702              1055.5326
 Red. masses --      1.8940                 1.3649                 1.8307
 Frc consts  --      1.1781                 0.8738                 1.2017
 IR Inten    --     11.4187                 7.0211                 2.8170

                     49                     50                     51
                      A                      A                      A
 Frequencies --   1081.4220              1116.0951              1116.6328
 Red. masses --      2.1654                 1.7639                 1.7329
 Frc consts  --      1.4920                 1.2946                 1.2730
 IR Inten    --      0.3945                 3.6675                 1.1112

                     52                     53                     54
                      A                      A                      A
 Frequencies --   1198.9815              1209.5877              1216.5157
 Red. masses --      1.2175                 2.2074                 2.8932
 Frc consts  --      1.0312                 1.9028                 2.5227
 IR Inten    --      7.5319                16.7617                38.2312

                     55                     56                     57
                      A                      A                      A
 Frequencies --   1245.6112              1268.7747              1296.5347
 Red. masses --      2.9178                 2.6366                 2.9098
 Frc consts  --      2.6673                 2.5007                 2.8819
 IR Inten    --     69.2777               170.7061                34.3787

                     58                     59                     60
                      A                      A                      A
 Frequencies --   1306.6219              1342.9638              1360.4731
 Red. masses --      2.7876                 1.5277                 3.4493
 Frc consts  --      2.8040                 1.6234                 3.7615
 IR Inten    --     50.2646                 8.0467               108.6048

                     61                     62                     63
                      A                      A                      A
 Frequencies --   1400.5505              1414.1371              1417.3612
 Red. masses --      5.0661                 1.3404                 1.2356
 Frc consts  --      5.8549                 1.5793                 1.4625
 IR Inten    --     76.8045                33.2175                14.6342

                     64                     65                     66
                      A                      A                      A
 Frequencies --   1442.0083              1453.7450              1503.2358
 Red. masses --      1.2768                 2.8737                 1.0626
 Frc consts  --      1.5642                 3.5783                 1.4148
 IR Inten    --     41.3316               101.1695                17.0446

                     67                     68                     69
                      A                      A                      A
 Frequencies --   1512.8747              1515.5288              1521.6713
 Red. masses --      1.0672                 1.0789                 1.0573
 Frc consts  --      1.4391                 1.4600                 1.4424
 IR Inten    --     14.2301                 3.1900                 0.7427

                     70                     71                     72
                      A                      A                      A
 Frequencies --   1528.0830              1539.5476              1546.5290
 Red. masses --      1.2409                 1.3491                 1.1494
 Frc consts  --      1.7072                 1.8841                 1.6197
 IR Inten    --     12.1997                43.0964                35.8435

                     73                     74                     75
                      A                      A                      A
 Frequencies --   1564.7450              1631.7034              1653.5012
 Red. masses --      2.2610                 4.8415                 1.2139
 Frc consts  --      3.2617                 7.5947                 1.9555
 IR Inten    --    261.6234                15.7044                74.4116

                     76                     77                     78
                      A                      A                      A
 Frequencies --   1684.8027              1702.2943              1747.0440
 Red. masses --      4.2532                 1.2278                 9.8133
 Frc consts  --      7.1131                 2.0962                17.6470
 IR Inten    --     93.9668                38.4266               154.0469

                     79                     80                     81
                      A                      A                      A
 Frequencies --   1812.8848              3032.6234              3051.5834
 Red. masses --      8.9829                 1.0499                 1.0399
 Frc consts  --     17.3943                 5.6890                 5.7053
 IR Inten    --    232.1557                 9.7966                17.2660

                     82                     83                     84
                      A                      A                      A
 Frequencies --   3058.7064              3118.9933              3122.6832
 Red. masses --      1.0361                 1.0833                 1.1001
 Frc consts  --      5.7113                 6.2089                 6.3203
 IR Inten    --     22.3553                 9.7084                 2.0663

                     85                     86                     87
                      A                      A                      A
 Frequencies --   3128.0732              3134.0721              3163.5676
 Red. masses --      1.0990                 1.1025                 1.1025
 Frc consts  --      6.3361                 6.3805                 6.5008
 IR Inten    --     34.1339                29.1388                 8.4784

                     88                     89                     90
                      A                      A                      A
 Frequencies --   3164.5339              3170.0116              3182.8814
 Red. masses --      1.0864                 1.1051                 1.0943
 Frc consts  --      6.4099                 6.5432                 6.5320
 IR Inten    --     19.2485                 6.3566                24.9407

                     91                     92                     93
                      A                      A                      A
 Frequencies --   3280.7862              3546.8332              3575.5118
 Red. masses --      1.0872                 1.0495                 1.0471
 Frc consts  --      6.8948                 7.7792                 7.8867
 IR Inten    --      4.5183                 5.6266                24.4273

                     94                     95                     96
                      A                      A                      A
 Frequencies --   3595.3313              3645.1529              3692.5039
 Red. masses --      1.0760                 1.0955                 1.1012
 Frc consts  --      8.1945                 8.5764                 8.8461
 IR Inten    --     12.9594                 7.2399                30.2246

 - Thermochemistry -
 -------------------
 Temperature   298.150 Kelvin.  Pressure   1.00000 Atm.
 Atom     1 has atomic number  6 and mass  12.00000

 Molecular mass:   235.13208 amu.
 Principal axes and moments of inertia in atomic units:
                           1         2         3
     Eigenvalues --  2312.269185785.520747230.99828
           X            0.99987   0.01132  -0.01161
           Y           -0.01131   0.99994   0.00121
           Z            0.01162  -0.00108   0.99993
 This molecule is an asymmetric top.
 Rotational symmetry number  1.
 Warning -- assumption of classical behavior for rotation
           may cause significant error
 Rotational temperatures (Kelvin)      0.03746     0.01497     0.01198
 Rotational constants (GHZ):           0.78051     0.31194     0.24958
 Zero-point vibrational energy     747283.7 (Joules/Mol)
                                  178.60510 (Kcal/Mol)
 Warning -- explicit consideration of  30 degrees of freedom as
           vibrations may cause significant error
 Vibrational temperatures:     43.79    59.87    78.58   115.01   122.77
          (Kelvin)            168.61   239.98   286.67   353.57   379.71
                              382.39   401.49   429.65   437.59   448.37
                              478.18   488.13   513.43   519.05   556.54
                              587.19   605.04   619.76   670.69   747.77
                              777.83   787.08   814.78   833.56   854.09
                              900.32   921.46   981.32  1017.41  1053.76
                             1061.76  1127.15  1177.81  1195.42  1310.52
                             1326.76  1332.56  1338.07  1372.60  1439.12
                             1478.35  1499.74  1518.68  1555.93  1605.81
                             1606.59  1725.07  1740.33  1750.29  1792.16
                             1825.48  1865.42  1879.94  1932.23  1957.42
                             2015.08  2034.63  2039.27  2074.73  2091.61
                             2162.82  2176.69  2180.51  2189.35  2198.57
                             2215.07  2225.11  2251.32  2347.66  2379.02
                             2424.06  2449.22  2513.61  2608.34  4363.27
                             4390.55  4400.80  4487.54  4492.84  4500.60
                             4509.23  4551.67  4553.06  4560.94  4579.46
                             4720.32  5103.10  5144.36  5172.88  5244.56
                             5312.69

 Zero-point correction=                           0.284625 (Hartree/Particle)
 Thermal correction to Energy=                    0.302141
 Thermal correction to Enthalpy=                  0.303085
 Thermal correction to Gibbs Free Energy=         0.239663
 Sum of electronic and zero-point Energies=           -782.008932
 Sum of electronic and thermal Energies=              -781.991416
 Sum of electronic and thermal Enthalpies=            -781.990472
 Sum of electronic and thermal Free Energies=         -782.053894

                     E (Thermal)             CV                S
                      KCal/Mol        Cal/Mol-Kelvin    Cal/Mol-Kelvin
 Total                  189.596             67.883            133.483
 Electronic               0.000              0.000              0.000
 Translational            0.889              2.981             42.267
 Rotational               0.889              2.981             32.936
 Vibrational            187.819             61.921             58.280
 Vibration     1          0.594              1.984              5.801
 Vibration     2          0.594              1.981              5.181
 Vibration     3          0.596              1.976              4.643
 Vibration     4          0.600              1.963              3.892
 Vibration     5          0.601              1.959              3.764
 Vibration     6          0.608              1.935              3.146
 Vibration     7          0.624              1.883              2.471
 Vibration     8          0.637              1.841              2.140
 Vibration     9          0.660              1.770              1.761
 Vibration    10          0.670              1.739              1.636
 Vibration    11          0.672              1.736              1.624
 Vibration    12          0.679              1.712              1.539
 Vibration    13          0.692              1.676              1.425
 Vibration    14          0.695              1.666              1.394
 Vibration    15          0.700              1.652              1.354
 Vibration    16          0.714              1.611              1.249
 Vibration    17          0.719              1.597              1.216
 Vibration    18          0.732              1.561              1.136
 Vibration    19          0.735              1.553              1.119
 Vibration    20          0.755              1.498              1.012
 Vibration    21          0.773              1.453              0.933
 Vibration    22          0.783              1.426              0.890
 Vibration    23          0.792              1.403              0.856
 Vibration    24          0.824              1.325              0.748
 Vibration    25          0.875              1.206              0.611
 Vibration    26          0.896              1.160              0.564
 Vibration    27          0.902              1.146              0.550
 Vibration    28          0.922              1.104              0.511
 Vibration    29          0.936              1.076              0.487
 Vibration    30          0.951              1.045              0.461

                           ! Non-Optimized Parameters !
 Normal termination of Gaussian 16 at Sun Dec 13 20:28:01 2020.

 ----------------------------------------------------------------------
 # B3LYP/6-311++G(d,p) empiricaldispersion=gd3bj scf=xqc pop=npa geom=c
 heck
 ----------------------------------------------------------------------

 ---------------------------------------
 CID_113433013_JID_7294_Energie_neutraal
 ---------------------------------------
 Structure from the checkpoint file:  "JID_7294.chk"
 Charge =  0 Multiplicity = 1

 SCF Done:  E(RB3LYP) =  -782.529753106     A.U. after   16 cycles
 Normal termination of Gaussian 16 at Sun Dec 13 20:34:38 2020.

 ----------------------------------------------------------------------
 # B3LYP/6-311++G(d,p) empiricaldispersion=gd3bj scf=xqc pop=npa geom=c
 heck
 ----------------------------------------------------------------------

 -------------------------------------
 CID_113433013_JID_7294_Energie_kation
 -------------------------------------
 Structure from the checkpoint file:  "JID_7294.chk"
 Charge =  1 Multiplicity = 2

 SCF Done:  E(UB3LYP) =  -782.273573531     A.U. after   23 cycles
 Normal termination of Gaussian 16 at Sun Dec 13 20:48:37 2020.
 Gaussian 16:  ES64L-G16RevA.03 25-Dec-2016

 ----------------------------------------------------------------------
 # B3LYP/6-311++G(d,p) empiricaldispersion=gd3bj scf=xqc pop=npa geom=c
 heck
 ----------------------------------------------------------------------

 ------------------------------------
 CID_113433013_JID_7294_Energie_anion
 ------------------------------------
 Structure from the checkpoint file:  "JID_7294.chk"
 Charge = -1 Multiplicity = 2

                         Standard orientation:
 ---------------------------------------------------------------------
 Center     Atomic      Atomic             Coordinates (Angstroms)
 Number     Number       Type             X           Y           Z
 ---------------------------------------------------------------------
      1          6           0        3.791704    1.840813   -0.115539
      2          6           0        2.326656    1.516138    0.121545
      3          8           0        1.552686    2.435229    0.371060
      4          6           0        1.820967    0.112180    0.020913
      5          6           0        2.605991   -1.061867   -0.055340
      6          6           0        1.927770   -2.287790   -0.190471
      7          6           0        0.546913   -2.367716   -0.228327
      8          6           0       -0.250260   -1.209327   -0.129361
      9          6           0        0.418587    0.005943   -0.010896
     10          7           0       -1.636604   -1.313020   -0.195618
     11          6           0       -2.562735   -0.309046    0.326673
     12          6           0       -3.979201   -0.884673    0.164222
     13          6           0       -2.300986    0.000475    1.813099
     14          6           0       -2.517752    0.937224   -0.612219
     15          8           0       -2.739551    0.827773   -1.805376
     16          7           0       -2.314575    2.157003   -0.015962
     17          7           0        4.011779   -1.075732   -0.053277
     18          1           0        3.869370    2.907437   -0.334709
     19          1           0        4.225886    1.245926   -0.923531
     20          1           0        4.376209    1.648444    0.795951
     21          1           0        2.511830   -3.203452   -0.254826
     22          1           0        0.071606   -3.340918   -0.331201
     23          1           0       -0.118766    0.940567    0.034105
     24          1           0       -1.986630   -2.259063   -0.130757
     25          1           0       -4.084490   -1.802839    0.755304
     26          1           0       -4.726072   -0.167409    0.516869
     27          1           0       -4.168379   -1.099623   -0.889605
     28          1           0       -1.277813    0.345387    1.990226
     29          1           0       -3.001434    0.751421    2.193011
     30          1           0       -2.440172   -0.914981    2.397385
     31          1           0       -1.832357    2.222761    0.868940
     32          1           0       -2.152075    2.922586   -0.658417
     33          1           0        4.450019   -0.425829    0.585599
     34          1           0        4.388074   -2.006317    0.088397
 ---------------------------------------------------------------------

 SCF Done:  E(UB3LYP) =  -782.532184056     A.U. after   33 cycles
 SCF Done:  E(UB3LYP) =  -782.532184458     a.u. after    3 cycles

 The electronic state is 2-A.
 Alpha  occ. eigenvalues --  -18.98396 -18.90915 -14.22795 -14.19110 -14.18227
 Alpha  occ. eigenvalues --  -10.16798 -10.12158 -10.07304 -10.06225 -10.05581
 Alpha  occ. eigenvalues --  -10.05516 -10.05434 -10.02034 -10.01566 -10.00852
 Alpha  occ. eigenvalues --  -10.00567  -9.99536  -0.93540  -0.85008  -0.81256
 Alpha  occ. eigenvalues --   -0.79933  -0.77911  -0.69675  -0.66083  -0.60301
 Alpha  occ. eigenvalues --   -0.59890  -0.57901  -0.56527  -0.53711  -0.47959
 Alpha  occ. eigenvalues --   -0.47204  -0.44947  -0.42952  -0.40868  -0.38625
 Alpha  occ. eigenvalues --   -0.37311  -0.36698  -0.36023  -0.34234  -0.32774
 Alpha  occ. eigenvalues --   -0.31031  -0.30629  -0.30209  -0.29184  -0.29039
 Alpha  occ. eigenvalues --   -0.28709  -0.27711  -0.27199  -0.26897  -0.25592
 Alpha  occ. eigenvalues --   -0.24908  -0.24171  -0.23605  -0.21684  -0.20042
 Alpha  occ. eigenvalues --   -0.19522  -0.18739  -0.17265  -0.15200  -0.12796
 Alpha  occ. eigenvalues --   -0.10140  -0.07651  -0.04701   0.05670
 Alpha virt. eigenvalues --    0.07182   0.08438   0.08798   0.09716   0.10005
 Alpha virt. eigenvalues --    0.10381   0.11037   0.11746   0.12109   0.12571
 Alpha virt. eigenvalues --    0.12776   0.13287   0.14185   0.14643   0.14839

  Beta  occ. eigenvalues --  -18.98392 -18.90429 -14.22794 -14.19127 -14.18201
  Beta  occ. eigenvalues --  -10.16798 -10.12159 -10.07303 -10.06217 -10.05622
  Beta  occ. eigenvalues --  -10.05333 -10.05182 -10.02064 -10.01541 -10.00513
  Beta  occ. eigenvalues --  -10.00492  -9.99280  -0.93535  -0.84085  -0.81272
  Beta  occ. eigenvalues --   -0.79934  -0.77793  -0.69527  -0.65913  -0.59976
  Beta  occ. eigenvalues --   -0.59622  -0.57610  -0.56326  -0.53684  -0.47661
  Beta  occ. eigenvalues --   -0.46851  -0.44876  -0.42859  -0.40479  -0.38557
  Beta  occ. eigenvalues --   -0.37252  -0.36493  -0.35920  -0.33939  -0.32765
  Beta  occ. eigenvalues --   -0.30951  -0.30558  -0.30113  -0.29072  -0.28900
  Beta  occ. eigenvalues --   -0.28122  -0.27461  -0.27173  -0.26776  -0.25460
  Beta  occ. eigenvalues --   -0.24842  -0.23647  -0.23177  -0.21425  -0.19813
  Beta  occ. eigenvalues --   -0.18511  -0.17345  -0.17220  -0.15148  -0.12303
  Beta  occ. eigenvalues --   -0.08454  -0.07170  -0.03814
  Beta virt. eigenvalues --    0.07126   0.08382   0.08748   0.09649   0.09909
  Beta virt. eigenvalues --    0.10344   0.11032   0.11551   0.11707   0.12519
  Beta virt. eigenvalues --    0.12544   0.12714   0.13253   0.14196   0.14735

 Mulliken charges and spin densities:
               1          2
     1  C   -0.572977  -0.012219
     2  C    0.021308   0.181891
     3  O   -0.406318   0.184283
     4  C    1.712098   0.146194
     5  C   -1.649460  -0.009507
     6  C   -0.547229   0.004223
     7  C   -0.032637   0.313134
     8  C   -0.269274  -0.093436
     9  C    0.060001   0.219183
    10  N    0.100749   0.021814
    11  C    0.032755  -0.011426
    12  C   -0.418744  -0.039741
    13  C   -0.629711  -0.010300
    14  C   -0.245511  -0.036140
    15  O   -0.296461   0.009493
    16  N   -0.266077   0.010705
    17  N   -0.279942   0.022183
    18  H    0.140224  -0.007404
    19  H    0.157613   0.010039
    20  H    0.058367   0.063549
    21  H    0.080605   0.000505
    22  H    0.030910  -0.008447
    23  H    0.111976  -0.014161
    24  H    0.244037   0.002376
    25  H    0.104727   0.019163
    26  H    0.141161   0.001220
    27  H    0.191640  -0.003073
    28  H    0.156877   0.016584
    29  H    0.131195  -0.001079
    30  H    0.143078   0.007184
    31  H    0.267761   0.001865
    32  H    0.277316   0.010233
    33  H    0.237712   0.000636
    34  H    0.212232   0.000477
 Sum of Mulliken charges =  -1.00000   1.00000

 Dipole moment (field-independent basis, Debye):
    X=             -4.0032    Y=             -2.5560    Z=              3.4778  Tot=              5.8867
 Quadrupole moment (field-independent basis, Debye-Ang):
   XX=           -130.1240   YY=           -123.0666   ZZ=           -119.9185
   XY=             -6.9036   XZ=             -5.8411   YZ=             -1.4381

 Summary of Natural Population Analysis:

                                       Natural Population
                Natural  -----------------------------------------------
    Atom  No    Charge         Core      Valence    Rydberg      Total
 -----------------------------------------------------------------------
      C    1   -0.32378      0.99964     2.32084    0.00330     3.32378
      C    2    0.31762      0.99967     1.66165    0.02105     2.68238
      O    3   -0.27873      0.99988     3.27090    0.00796     4.27873
      C    4   -0.06265      0.99940     2.05432    0.00893     3.06265
      C    5    0.09316      0.99947     1.89753    0.00984     2.90684
      C    6   -0.12677      0.99954     2.11848    0.00874     3.12677
      C    7   -0.04736      0.99954     2.03898    0.00884     3.04736
      C    8    0.04755      0.99948     1.94184    0.01114     2.95245
      C    9   -0.06294      0.99951     2.05563    0.00779     3.06294
      N   10   -0.32298      0.99965     2.81152    0.01181     3.82298
      C   11    0.02872      0.99955     1.95801    0.01372     2.97128
      C   12   -0.28313      0.99963     2.27785    0.00566     3.28313
      C   13   -0.30334      0.99963     2.29817    0.00553     3.30334
      C   14    0.34431      0.99965     1.62894    0.02710     2.65569
      O   15   -0.31563      0.99987     3.30882    0.00694     4.31563
      N   16   -0.40643      0.99970     2.89889    0.00784     3.90643
      N   17   -0.40329      0.99972     2.89399    0.00957     3.90329
      H   18    0.10072      0.00000     0.39802    0.00127     0.39928
      H   19    0.10375      0.00000     0.39510    0.00115     0.39625
      H   20    0.09124      0.00000     0.40560    0.00316     0.40876
      H   21    0.08286      0.00000     0.41519    0.00194     0.41714
      H   22    0.08171      0.00000     0.41669    0.00159     0.41829
      H   23    0.10279      0.00000     0.39532    0.00189     0.39721
      H   24    0.17835      0.00000     0.31971    0.00194     0.32165
      H   25    0.09398      0.00000     0.40500    0.00103     0.40602
      H   26    0.09927      0.00000     0.39999    0.00074     0.40073
      H   27    0.11283      0.00000     0.38602    0.00115     0.38717
      H   28    0.11597      0.00000     0.38299    0.00104     0.38403
      H   29    0.09478      0.00000     0.40423    0.00098     0.40522
      H   30    0.10104      0.00000     0.39806    0.00089     0.39896
      H   31    0.19930      0.00000     0.29939    0.00132     0.30070
      H   32    0.19299      0.00000     0.30386    0.00315     0.30701
      H   33    0.18111      0.00000     0.31727    0.00162     0.31889
      H   34    0.17307      0.00000     0.32542    0.00152     0.32693
 =======================================================================
   * Total *    0.00009     16.99354    45.80424    0.20212    62.99991

 Normal termination of Gaussian 16 at Sun Dec 13 21:39:45 2020.
