 Gaussian 16, Revision A.03,

 -----------------------------------------------------------
 # opt freq B3LYP/6-31G(d) empiricaldispersion=gd3bj scf=xqc
 -----------------------------------------------------------

 ------------------------------
 CID_61754191_JID_9496_neutraal
 ------------------------------
 Symbolic Z-matrix:
 Charge =  0 Multiplicity = 1

 SCF Done:  E(RB3LYP) =  -787.877209767     A.U. after   14 cycles
 SCF Done:  E(RB3LYP) =  -787.882208675     A.U. after   12 cycles
 SCF Done:  E(RB3LYP) =  -787.883522503     A.U. after   12 cycles
 SCF Done:  E(RB3LYP) =  -787.884056624     A.U. after   13 cycles
 SCF Done:  E(RB3LYP) =  -787.884258191     A.U. after   12 cycles
 SCF Done:  E(RB3LYP) =  -787.884315464     A.U. after   11 cycles
 SCF Done:  E(RB3LYP) =  -787.884342144     A.U. after   10 cycles
 SCF Done:  E(RB3LYP) =  -787.884354944     A.U. after    9 cycles
 SCF Done:  E(RB3LYP) =  -787.884382778     A.U. after   10 cycles
 SCF Done:  E(RB3LYP) =  -787.884410487     A.U. after   10 cycles
 SCF Done:  E(RB3LYP) =  -787.884989584     A.U. after    9 cycles
 SCF Done:  E(RB3LYP) =  -787.884994210     A.U. after    9 cycles
 SCF Done:  E(RB3LYP) =  -787.884994114     A.U. after    7 cycles
 SCF Done:  E(RB3LYP) =  -787.884994579     A.U. after    9 cycles
 SCF Done:  E(RB3LYP) =  -787.884994593     A.U. after    6 cycles
 Optimization completed.
    -- Stationary point found.
 Normal termination of Gaussian 16 at Sat Dec 12 09:57:41 2020.

 --------------------------------------------------------------------
 #N Geom=AllCheck Guess=TCheck SCRF=Check GenChk RB3LYP/6-31G(d) Freq
 --------------------------------------------------------------------

 Structure from the checkpoint file:  "JID_9496.chk"
 ------------------------------
 CID_61754191_JID_9496_neutraal
 ------------------------------
 Charge =  0 Multiplicity = 1

 SCF Done:  E(RB3LYP) =  -787.884994593     A.U. after    1 cycles

  Exact polarizability: 192.150  23.935 201.436 -19.802  15.075 144.799
 Approx polarizability: 260.655  37.960 291.585 -49.558  31.124 252.649

                      1                      2                      3
                      A                      A                      A
 Frequencies --     18.4335                24.6378                30.5509
 Red. masses --      4.1252                 1.0172                 3.7025
 Frc consts  --      0.0008                 0.0004                 0.0020
 IR Inten    --      0.1324                 0.2544                 0.2751

                      4                      5                      6
                      A                      A                      A
 Frequencies --     47.4072                55.8444                67.6328
 Red. masses --      3.5341                 3.0306                 3.1129
 Frc consts  --      0.0047                 0.0056                 0.0084
 IR Inten    --      0.1225                 0.0801                 1.0097

                      7                      8                      9
                      A                      A                      A
 Frequencies --     82.0462                88.9419               106.8183
 Red. masses --      2.0102                 1.1300                 1.5202
 Frc consts  --      0.0080                 0.0053                 0.0102
 IR Inten    --      0.4722                 0.0303                 0.7061

                     10                     11                     12
                      A                      A                      A
 Frequencies --    119.7558               146.8220               172.2956
 Red. masses --      1.6220                 3.8324                 4.0929
 Frc consts  --      0.0137                 0.0487                 0.0716
 IR Inten    --      0.0632                 1.1374                 0.7310

                     13                     14                     15
                      A                      A                      A
 Frequencies --    192.2190               206.5840               249.1425
 Red. masses --      2.5576                 2.9118                 2.9976
 Frc consts  --      0.0557                 0.0732                 0.1096
 IR Inten    --      2.0754                 3.5152                 1.9458

                     16                     17                     18
                      A                      A                      A
 Frequencies --    260.7051               287.1055               293.0879
 Red. masses --      1.2949                 2.8671                 2.5586
 Frc consts  --      0.0519                 0.1392                 0.1295
 IR Inten    --      0.3547                 4.3722                 1.6688

                     19                     20                     21
                      A                      A                      A
 Frequencies --    317.1660               334.1226               358.7345
 Red. masses --      3.0674                 3.9592                 3.2110
 Frc consts  --      0.1818                 0.2604                 0.2435
 IR Inten    --      3.1359                 1.2729                 0.2471

                     22                     23                     24
                      A                      A                      A
 Frequencies --    368.9753               419.0619               438.9963
 Red. masses --      3.3782                 3.0716                 3.6051
 Frc consts  --      0.2710                 0.3178                 0.4093
 IR Inten    --      0.3726                 0.3357                 2.4346

                     25                     26                     27
                      A                      A                      A
 Frequencies --    478.6304               496.4989               565.7938
 Red. masses --      2.4394                 3.3532                 2.8691
 Frc consts  --      0.3293                 0.4870                 0.5412
 IR Inten    --      3.5652                 0.8915                10.6336

                     28                     29                     30
                      A                      A                      A
 Frequencies --    593.8283               601.7724               647.8788
 Red. masses --      3.2729                 4.0390                 4.8277
 Frc consts  --      0.6800                 0.8618                 1.1939
 IR Inten    --     16.9206                 1.4455                 0.9928

                     31                     32                     33
                      A                      A                      A
 Frequencies --    659.5680               680.9467               705.5272
 Red. masses --      6.7972                 4.5525                 3.4086
 Frc consts  --      1.7422                 1.2437                 0.9997
 IR Inten    --      0.6217                 0.0787                21.8060

                     34                     35                     36
                      A                      A                      A
 Frequencies --    724.4052               737.6839               791.2566
 Red. masses --      3.4969                 3.1575                 1.2497
 Frc consts  --      1.0812                 1.0124                 0.4610
 IR Inten    --      3.5800                 8.4391                22.9205

                     37                     38                     39
                      A                      A                      A
 Frequencies --    795.8182               823.7632               830.0035
 Red. masses --      1.4603                 1.6355                 2.0588
 Frc consts  --      0.5449                 0.6539                 0.8356
 IR Inten    --     23.5151                 8.4276                10.6655

                     40                     41                     42
                      A                      A                      A
 Frequencies --    833.5930               855.7666               859.9282
 Red. masses --      2.4588                 1.7088                 1.3168
 Frc consts  --      1.0066                 0.7373                 0.5737
 IR Inten    --      2.7172                15.8645                 7.9444

                     43                     44                     45
                      A                      A                      A
 Frequencies --    928.5905               951.5011               977.3466
 Red. masses --      1.8657                 1.3150                 1.2993
 Frc consts  --      0.9479                 0.7015                 0.7312
 IR Inten    --      2.5706                 1.0636                 1.7264

                     46                     47                     48
                      A                      A                      A
 Frequencies --    988.2743               998.3855              1011.2831
 Red. masses --      1.9798                 1.7597                 1.5690
 Frc consts  --      1.1393                 1.0334                 0.9454
 IR Inten    --      2.1758                 7.8966                 3.5518

                     49                     50                     51
                      A                      A                      A
 Frequencies --   1020.2064              1041.2858              1046.6443
 Red. masses --      1.4338                 2.9172                 2.7877
 Frc consts  --      0.8792                 1.8636                 1.7993
 IR Inten    --      0.7926                 2.7946                 7.0321

                     52                     53                     54
                      A                      A                      A
 Frequencies --   1060.2802              1073.5809              1075.5280
 Red. masses --      3.0952                 2.5410                 1.7356
 Frc consts  --      2.0501                 1.7255                 1.1829
 IR Inten    --      4.3522                 5.6471                 7.1267

                     55                     56                     57
                      A                      A                      A
 Frequencies --   1077.4245              1077.8557              1134.0442
 Red. masses --      1.4565                 1.4800                 2.4730
 Frc consts  --      0.9962                 1.0131                 1.8738
 IR Inten    --      0.0534                 4.6444                 3.2585

                     58                     59                     60
                      A                      A                      A
 Frequencies --   1144.4581              1159.6345              1167.3298
 Red. masses --      1.6114                 1.8868                 1.9145
 Frc consts  --      1.2435                 1.4949                 1.5371
 IR Inten    --     16.7278                17.5315                21.5292

                     61                     62                     63
                      A                      A                      A
 Frequencies --   1180.5379              1199.8991              1216.8391
 Red. masses --      1.5119                 2.3795                 1.1742
 Frc consts  --      1.2415                 2.0185                 1.0244
 IR Inten    --      0.3196                38.1278                 2.9655

                     64                     65                     66
                      A                      A                      A
 Frequencies --   1244.3221              1245.8937              1247.7196
 Red. masses --      3.0915                 2.3401                 2.1901
 Frc consts  --      2.8202                 2.1402                 2.0089
 IR Inten    --      2.8496                 1.1365                 0.5546

                     67                     68                     69
                      A                      A                      A
 Frequencies --   1304.2996              1335.9040              1338.4332
 Red. masses --      1.2560                 1.5829                 1.6061
 Frc consts  --      1.2589                 1.6644                 1.6952
 IR Inten    --     19.9261                 3.8306                40.5302

                     70                     71                     72
                      A                      A                      A
 Frequencies --   1353.2094              1359.8690              1388.2782
 Red. masses --      1.8057                 2.2008                 1.4497
 Frc consts  --      1.9482                 2.3979                 1.6462
 IR Inten    --      2.2435                 2.9708                 5.8811

                     73                     74                     75
                      A                      A                      A
 Frequencies --   1407.1507              1415.9094              1423.3331
 Red. masses --      1.3888                 1.5830                 2.3123
 Frc consts  --      1.6202                 1.8698                 2.7600
 IR Inten    --     16.6089                11.0524                23.4853

                     76                     77                     78
                      A                      A                      A
 Frequencies --   1437.9548              1441.6674              1443.0903
 Red. masses --      1.7216                 1.2511                 1.3212
 Frc consts  --      2.0974                 1.5320                 1.6211
 IR Inten    --     13.2260                 0.1494                 7.7579

                     79                     80                     81
                      A                      A                      A
 Frequencies --   1445.0140              1466.8100              1480.5066
 Red. masses --      1.2573                 2.2834                 2.3485
 Frc consts  --      1.5468                 2.8945                 3.0329
 IR Inten    --      2.2180                 5.0558                37.5534

                     82                     83                     84
                      A                      A                      A
 Frequencies --   1502.0379              1509.2634              1512.4805
 Red. masses --      1.1119                 2.1908                 1.2065
 Frc consts  --      1.4780                 2.9403                 1.6262
 IR Inten    --      1.4410                13.6276                17.3502

                     85                     86                     87
                      A                      A                      A
 Frequencies --   1514.1830              1514.3166              1517.9342
 Red. masses --      1.0567                 1.0527                 1.0491
 Frc consts  --      1.4274                 1.4223                 1.4243
 IR Inten    --      8.7017                 7.0593                 5.8760

                     88                     89                     90
                      A                      A                      A
 Frequencies --   1524.7151              1528.9105              1531.4350
 Red. masses --      1.1091                 1.0475                 1.1398
 Frc consts  --      1.5191                 1.4427                 1.5750
 IR Inten    --      8.0764                 8.7145                18.0499

                     91                     92                     93
                      A                      A                      A
 Frequencies --   1532.8736              1540.0453              1554.2803
 Red. masses --      1.3544                 1.7252                 1.0922
 Frc consts  --      1.8751                 2.4108                 1.5545
 IR Inten    --      1.5196                 2.8949                 2.5202

                     94                     95                     96
                      A                      A                      A
 Frequencies --   1568.4614              1618.0174              1640.3868
 Red. masses --      2.5443                 5.3656                 5.7682
 Frc consts  --      3.6878                 8.2762                 9.1450
 IR Inten    --     14.6602                29.9782                 0.5416

                     97                     98                     99
                      A                      A                      A
 Frequencies --   1680.8270              2928.3814              2937.6262
 Red. masses --      5.8978                 1.0807                 1.0748
 Frc consts  --      9.8172                 5.4604                 5.4645
 IR Inten    --      2.3591                36.5487               101.5917

                    100                    101                    102
                      A                      A                      A
 Frequencies --   3040.2419              3041.3925              3045.0395
 Red. masses --      1.0399                 1.0405                 1.0397
 Frc consts  --      5.6631                 5.6705                 5.6799
 IR Inten    --     34.8187                24.5925                31.2978

                    103                    104                    105
                      A                      A                      A
 Frequencies --   3046.2194              3050.8010              3088.7846
 Red. masses --      1.0384                 1.0669                 1.1006
 Frc consts  --      5.6772                 5.8508                 6.1869
 IR Inten    --     38.2953                57.6683                19.1025

                    106                    107                    108
                      A                      A                      A
 Frequencies --   3088.8879              3095.5895              3096.2581
 Red. masses --      1.0866                 1.1011                 1.0966
 Frc consts  --      6.1085                 6.2165                 6.1938
 IR Inten    --      8.8280                33.3412                14.3838

                    109                    110                    111
                      A                      A                      A
 Frequencies --   3113.2609              3122.6177              3132.9098
 Red. masses --      1.0971                 1.1025                 1.1032
 Frc consts  --      6.2649                 6.3337                 6.3798
 IR Inten    --     46.2757                17.2032                28.4647

                    112                    113                    114
                      A                      A                      A
 Frequencies --   3139.6197              3143.4096              3153.3875
 Red. masses --      1.0981                 1.0996                 1.0958
 Frc consts  --      6.3773                 6.4015                 6.4198
 IR Inten    --     15.1474                10.6346                 4.7571

                    115                    116                    117
                      A                      A                      A
 Frequencies --   3172.4729              3174.4783              3190.6580
 Red. masses --      1.0866                 1.0887                 1.0940
 Frc consts  --      6.4433                 6.4639                 6.5620
 IR Inten    --     15.1128                21.9695                20.7170

                    118                    119                    120
                      A                      A                      A
 Frequencies --   3209.3436              3259.0448              3467.8241
 Red. masses --      1.0921                 1.0969                 1.0735
 Frc consts  --      6.6272                 6.8646                 7.6062
 IR Inten    --      6.4370                 5.3421                 4.1817

 - Thermochemistry -
 -------------------
 Temperature   298.150 Kelvin.  Pressure   1.00000 Atm.
 Atom     1 has atomic number  6 and mass  12.00000

 Molecular mass:   257.18920 amu.
 Principal axes and moments of inertia in atomic units:
                           1         2         3
     Eigenvalues --  4367.699875465.659338615.19208
           X            0.99687   0.07892  -0.00436
           Y           -0.07887   0.99683   0.01083
           Z            0.00520  -0.01045   0.99993
 This molecule is an asymmetric top.
 Rotational symmetry number  1.
 Warning -- assumption of classical behavior for rotation
           may cause significant error
 Rotational temperatures (Kelvin)      0.01983     0.01585     0.01005
 Rotational constants (GHZ):           0.41320     0.33020     0.20948
 Zero-point vibrational energy     964240.7 (Joules/Mol)
                                  230.45907 (Kcal/Mol)
 Warning -- explicit consideration of  29 degrees of freedom as
           vibrations may cause significant error
 Vibrational temperatures:     26.52    35.45    43.96    68.21    80.35
          (Kelvin)             97.31   118.05   127.97   153.69   172.30
                              211.24   247.89   276.56   297.23   358.46
                              375.10   413.08   421.69   456.33   480.73
                              516.14   530.87   602.94   631.62   688.64
                              714.35   814.05   854.39   865.82   932.15
                              948.97   979.73  1015.10  1042.26  1061.36
                             1138.44  1145.00  1185.21  1194.19  1199.35
                             1231.26  1237.24  1336.03  1369.00  1406.18
                             1421.91  1436.45  1455.01  1467.85  1498.18
                             1505.89  1525.51  1544.64  1547.44  1550.17
                             1550.79  1631.64  1646.62  1668.46  1679.53
                             1698.53  1726.39  1750.76  1790.30  1792.56
                             1795.19  1876.60  1922.07  1925.71  1946.97
                             1956.55  1997.42  2024.58  2037.18  2047.86
                             2068.90  2074.24  2076.29  2079.05  2110.41
                             2130.12  2161.10  2171.49  2176.12  2178.57
                             2178.76  2183.97  2193.73  2199.76  2203.39
                             2205.46  2215.78  2236.26  2256.67  2327.97
                             2360.15  2418.34  4213.29  4226.59  4374.23
                             4375.89  4381.13  4382.83  4389.42  4444.07
                             4444.22  4453.86  4454.82  4479.29  4492.75
                             4507.56  4517.21  4522.67  4537.02  4564.48
                             4567.37  4590.65  4617.53  4689.04  4989.43

 Zero-point correction=                           0.367260 (Hartree/Particle)
 Thermal correction to Energy=                    0.387401
 Thermal correction to Enthalpy=                  0.388345
 Thermal correction to Gibbs Free Energy=         0.315623
 Sum of electronic and zero-point Energies=           -787.517735
 Sum of electronic and thermal Energies=              -787.497593
 Sum of electronic and thermal Enthalpies=            -787.496649
 Sum of electronic and thermal Free Energies=         -787.569372

                     E (Thermal)             CV                S
                      KCal/Mol        Cal/Mol-Kelvin    Cal/Mol-Kelvin
 Total                  243.098             73.897            153.058
 Electronic               0.000              0.000              0.000
 Translational            0.889              2.981             42.534
 Rotational               0.889              2.981             33.686
 Vibrational            241.321             67.935             76.838
 Vibration     1          0.593              1.986              6.796
 Vibration     2          0.593              1.985              6.220
 Vibration     3          0.594              1.984              5.793
 Vibration     4          0.595              1.979              4.923
 Vibration     5          0.596              1.975              4.599
 Vibration     6          0.598              1.970              4.221
 Vibration     7          0.600              1.961              3.841
 Vibration     8          0.602              1.957              3.683
 Vibration     9          0.606              1.944              3.326
 Vibration    10          0.609              1.933              3.104
 Vibration    11          0.617              1.906              2.713
 Vibration    12          0.626              1.877              2.410
 Vibration    13          0.634              1.851              2.206
 Vibration    14          0.641              1.830              2.074
 Vibration    15          0.662              1.764              1.737
 Vibration    16          0.669              1.745              1.657
 Vibration    17          0.684              1.698              1.491
 Vibration    18          0.688              1.687              1.456
 Vibration    19          0.704              1.641              1.325
 Vibration    20          0.716              1.607              1.240
 Vibration    21          0.734              1.557              1.128
 Vibration    22          0.741              1.536              1.084
 Vibration    23          0.782              1.429              0.895
 Vibration    24          0.799              1.385              0.830
 Vibration    25          0.835              1.297              0.714
 Vibration    26          0.852              1.258              0.667
 Vibration    27          0.922              1.105              0.512
 Vibration    28          0.951              1.045              0.460
 Vibration    29          0.960              1.028              0.447

 Optimization completed on the basis of negligible forces.
    -- Stationary point found.
 Normal termination of Gaussian 16 at Sat Dec 12 10:23:11 2020.

 ----------------------------------------------------------------------
 # B3LYP/6-311++G(d,p) empiricaldispersion=gd3bj scf=xqc pop=npa geom=c
 heck
 ----------------------------------------------------------------------

 --------------------------------------
 CID_61754191_JID_9496_Energie_neutraal
 --------------------------------------
 Structure from the checkpoint file:  "JID_9496.chk"
 Charge =  0 Multiplicity = 1

 SCF Done:  E(RB3LYP) =  -788.094494689     A.U. after   15 cycles
 Normal termination of Gaussian 16 at Sat Dec 12 10:35:05 2020.

 ----------------------------------------------------------------------
 # B3LYP/6-311++G(d,p) empiricaldispersion=gd3bj scf=xqc pop=npa geom=c
 heck
 ----------------------------------------------------------------------

 ------------------------------------
 CID_61754191_JID_9496_Energie_kation
 ------------------------------------
 Structure from the checkpoint file:  "JID_9496.chk"
 Charge =  1 Multiplicity = 2

 SCF Done:  E(UB3LYP) =  -787.812252574     A.U. after   29 cycles
 Normal termination of Gaussian 16 at Sat Dec 12 11:08:07 2020.
 Gaussian 16:  ES64L-G16RevA.03 25-Dec-2016

 ----------------------------------------------------------------------
 # B3LYP/6-311++G(d,p) empiricaldispersion=gd3bj scf=xqc pop=npa geom=c
 heck
 ----------------------------------------------------------------------

 -----------------------------------
 CID_61754191_JID_9496_Energie_anion
 -----------------------------------
 Structure from the checkpoint file:  "JID_9496.chk"
 Charge = -1 Multiplicity = 2

                         Standard orientation:
 ---------------------------------------------------------------------
 Center     Atomic      Atomic             Coordinates (Angstroms)
 Number     Number       Type             X           Y           Z
 ---------------------------------------------------------------------
      1          6           0        5.035746    0.904175   -0.189433
      2          6           0        3.654778    0.700876    0.423735
      3          7           0        2.609016    1.123512   -0.508273
      4          6           0        1.255288    0.982523    0.021972
      5          6           0        0.296393    1.724425   -0.939839
      6          7           0       -1.094166    1.579444   -0.572540
      7          6           0       -1.759101    2.179127    0.461519
      8          6           0       -2.991425    1.555705    0.530381
      9          6           0       -2.982485    0.578054   -0.496395
     10          7           0       -1.826691    0.594374   -1.157651
     11          6           0       -4.055888   -0.394215   -0.875046
     12          6           0       -1.182429    3.298837    1.266669
     13          6           0        0.849540   -0.471283    0.156910
     14          6           0        0.016386   -0.874692    1.201076
     15          6           0       -0.437567   -2.189644    1.282306
     16          6           0       -0.062107   -3.140377    0.327808
     17          6           0        0.789509   -2.732955   -0.707356
     18          6           0        1.235263   -1.417549   -0.797304
     19          6           0       -0.577809   -4.557317    0.394076
     20          1           0        5.122145    0.349054   -1.128924
     21          1           0        5.819822    0.561221    0.493912
     22          1           0        5.222854    1.964210   -0.404627
     23          1           0        3.494581   -0.360479    0.640215
     24          1           0        3.588530    1.231554    1.393192
     25          1           0        2.767901    2.100272   -0.754845
     26          1           0        1.156903    1.450165    1.020384
     27          1           0        0.551075    2.791596   -0.967666
     28          1           0        0.405259    1.313542   -1.944674
     29          1           0       -3.792504    1.788619    1.218412
     30          1           0       -3.718556   -1.004833   -1.716593
     31          1           0       -4.298414   -1.063185   -0.040399
     32          1           0       -4.982133    0.116407   -1.165280
     33          1           0       -0.315012    2.983703    1.859746
     34          1           0       -0.858599    4.133110    0.631742
     35          1           0       -1.936714    3.681591    1.958916
     36          1           0       -0.297695   -0.149635    1.947777
     37          1           0       -1.091400   -2.482361    2.100560
     38          1           0        1.102215   -3.457474   -1.456116
     39          1           0        1.892888   -1.109404   -1.604242
     40          1           0       -0.877196   -4.827705    1.411993
     41          1           0       -1.456332   -4.689302   -0.251396
     42          1           0        0.178733   -5.276122    0.060679
 ---------------------------------------------------------------------

 SCF Done:  E(UB3LYP) =  -788.083609216     A.U. after   33 cycles
 SCF Done:  E(UB3LYP) =  -788.083609216     a.u. after    1 cycles

 The electronic state is 2-A.
 Alpha  occ. eigenvalues --  -14.28166 -14.22069 -14.20493 -10.11556 -10.11255
 Alpha  occ. eigenvalues --  -10.11173 -10.09551 -10.09514 -10.09026 -10.08544
 Alpha  occ. eigenvalues --  -10.07992 -10.07886 -10.07772 -10.07754 -10.07746
 Alpha  occ. eigenvalues --  -10.07565 -10.07507 -10.06795 -10.06013  -0.94522
 Alpha  occ. eigenvalues --   -0.82308  -0.76498  -0.75286  -0.70564  -0.69115
 Alpha  occ. eigenvalues --   -0.66340  -0.65143  -0.63869  -0.61024  -0.60815
 Alpha  occ. eigenvalues --   -0.58174  -0.53345  -0.51791  -0.51450  -0.49164
 Alpha  occ. eigenvalues --   -0.47425  -0.44292  -0.41245  -0.40919  -0.39526
 Alpha  occ. eigenvalues --   -0.38044  -0.36938  -0.36264  -0.35521  -0.34600
 Alpha  occ. eigenvalues --   -0.34027  -0.33696  -0.33140  -0.32788  -0.32570
 Alpha  occ. eigenvalues --   -0.32403  -0.31013  -0.30675  -0.30108  -0.29864
 Alpha  occ. eigenvalues --   -0.28396  -0.28006  -0.27647  -0.27000  -0.26498
 Alpha  occ. eigenvalues --   -0.25942  -0.24857  -0.24326  -0.24192  -0.19092
 Alpha  occ. eigenvalues --   -0.15992  -0.15047  -0.14454  -0.14074  -0.13627
 Alpha  occ. eigenvalues --    0.04076
 Alpha virt. eigenvalues --    0.05715   0.06371   0.07099   0.07540   0.07765
 Alpha virt. eigenvalues --    0.07785   0.08054   0.08676   0.08781   0.09615
 Alpha virt. eigenvalues --    0.09804   0.10285   0.10709   0.11073   0.11221

  Beta  occ. eigenvalues --  -14.28166 -14.22067 -14.20469 -10.11536 -10.11253
  Beta  occ. eigenvalues --  -10.11162 -10.09536 -10.09513 -10.09017 -10.08533
  Beta  occ. eigenvalues --  -10.07984 -10.07882 -10.07767 -10.07739 -10.07697
  Beta  occ. eigenvalues --  -10.07555 -10.07504 -10.06771 -10.06003  -0.94519
  Beta  occ. eigenvalues --   -0.82274  -0.76479  -0.75274  -0.70541  -0.69092
  Beta  occ. eigenvalues --   -0.66315  -0.65127  -0.63844  -0.60993  -0.60747
  Beta  occ. eigenvalues --   -0.58147  -0.53312  -0.51753  -0.51401  -0.49139
  Beta  occ. eigenvalues --   -0.47399  -0.44263  -0.41211  -0.40884  -0.39491
  Beta  occ. eigenvalues --   -0.38012  -0.36904  -0.36239  -0.35492  -0.34568
  Beta  occ. eigenvalues --   -0.33999  -0.33673  -0.33107  -0.32756  -0.32549
  Beta  occ. eigenvalues --   -0.32372  -0.30987  -0.30641  -0.30081  -0.29842
  Beta  occ. eigenvalues --   -0.28369  -0.27980  -0.27611  -0.26974  -0.26467
  Beta  occ. eigenvalues --   -0.25908  -0.24837  -0.24304  -0.24165  -0.19084
  Beta  occ. eigenvalues --   -0.15971  -0.15010  -0.14438  -0.14044  -0.13598
  Beta virt. eigenvalues --    0.05741   0.06674   0.06727   0.07296   0.07790
  Beta virt. eigenvalues --    0.07928   0.08083   0.08524   0.08846   0.09049
  Beta virt. eigenvalues --    0.09755   0.10058   0.10602   0.10809   0.11163

 Mulliken charges and spin densities:
               1          2
     1  C    0.492950  -1.053387
     2  C   -0.242539  -0.004735
     3  N   -0.041391   0.057428
     4  C   -0.006029  -0.010300
     5  C   -0.050178  -0.509439
     6  N    0.263704   0.024063
     7  C   -2.114580   1.923157
     8  C    0.505488  -0.782498
     9  C    0.091007  -0.099568
    10  N   -0.035657   0.077083
    11  C   -0.208328  -0.387380
    12  C    2.238672  -2.619576
    13  C    0.551273   0.046376
    14  C    0.041035  -0.244729
    15  C   -0.334662  -0.154329
    16  C    0.124165   0.247502
    17  C   -0.816941   0.325555
    18  C   -0.559105   0.178151
    19  C    0.151997  -0.856494
    20  H    0.012547   0.124124
    21  H   -0.004534   0.131970
    22  H   -0.347500   0.484890
    23  H    0.174449  -0.038312
    24  H   -0.372761   0.509065
    25  H    0.179021   0.048185
    26  H    0.650792  -0.417623
    27  H   -0.507045   0.685219
    28  H    0.198406   0.001086
    29  H   -0.189024   0.349644
    30  H    0.134524   0.016414
    31  H    0.066837   0.091619
    32  H    0.099949   0.029907
    33  H   -0.585358   0.759508
    34  H   -0.225143   0.411296
    35  H   -0.429782   0.601824
    36  H   -0.128753   0.307888
    37  H   -0.088675   0.263687
    38  H    0.035120   0.127916
    39  H    0.138963   0.055016
    40  H   -0.043709   0.182059
    41  H    0.143832   0.022397
    42  H    0.036963   0.095340
 Sum of Mulliken charges =  -1.00000   1.00000

 Dipole moment (field-independent basis, Debye):
    X=             -2.8111    Y=             -7.0205    Z=             -2.8070  Tot=              8.0665
 Quadrupole moment (field-independent basis, Debye-Ang):
   XX=           -178.5782   YY=           -187.5931   ZZ=           -153.6556
   XY=             -8.7401   XZ=             -0.1850   YZ=             -6.0712

 Summary of Natural Population Analysis:

                                       Natural Population
                Natural  -----------------------------------------------
    Atom  No    Charge         Core      Valence    Rydberg      Total
 -----------------------------------------------------------------------
      C    1   -0.28729      0.99967     2.28233    0.00529     3.28729
      C    2   -0.08732      0.99964     2.07750    0.01019     3.08732
      N    3   -0.34014      0.99972     2.82869    0.01173     3.84014
      C    4   -0.01953      0.99955     2.00622    0.01376     3.01953
      C    5   -0.07948      0.99958     2.06756    0.01233     3.07948
      N    6   -0.11724      0.99962     2.60411    0.01351     3.61724
      C    7    0.09442      0.99953     1.89402    0.01203     2.90558
      C    8   -0.16482      0.99945     2.15693    0.00844     3.16482
      C    9    0.07089      0.99960     1.91470    0.01481     2.92911
      N   10   -0.15839      0.99970     2.64815    0.01054     3.65839
      C   11   -0.29611      0.99963     2.29222    0.00425     3.29611
      C   12   -0.30421      0.99963     2.29880    0.00578     3.30421
      C   13   -0.01984      0.99948     2.00810    0.01226     3.01984
      C   14   -0.08945      0.99950     2.08019    0.00976     3.08945
      C   15   -0.09922      0.99951     2.09044    0.00927     3.09922
      C   16   -0.02147      0.99952     2.01222    0.00973     3.02147
      C   17   -0.10001      0.99952     2.09190    0.00859     3.10001
      C   18   -0.09193      0.99950     2.08404    0.00839     3.09193
      C   19   -0.29093      0.99964     2.28659    0.00470     3.29093
      H   20    0.09813      0.00000     0.40089    0.00098     0.40187
      H   21    0.09825      0.00000     0.40104    0.00071     0.40175
      H   22    0.09783      0.00000     0.40092    0.00125     0.40217
      H   23    0.09348      0.00000     0.40488    0.00164     0.40652
      H   24    0.08152      0.00000     0.41667    0.00181     0.41848
      H   25    0.17554      0.00000     0.32062    0.00383     0.32446
      H   26    0.08654      0.00000     0.40955    0.00392     0.41346
      H   27    0.10393      0.00000     0.39455    0.00152     0.39607
      H   28    0.11114      0.00000     0.38712    0.00174     0.38886
      H   29    0.10613      0.00000     0.39313    0.00075     0.39387
      H   30    0.10828      0.00000     0.39080    0.00092     0.39172
      H   31    0.10239      0.00000     0.39660    0.00101     0.39761
      H   32    0.09937      0.00000     0.39971    0.00092     0.40063
      H   33    0.10962      0.00000     0.38782    0.00256     0.39038
      H   34    0.11048      0.00000     0.38764    0.00189     0.38952
      H   35    0.10989      0.00000     0.38894    0.00117     0.39011
      H   36    0.10337      0.00000     0.39480    0.00183     0.39663
      H   37    0.09751      0.00000     0.40111    0.00137     0.40249
      H   38    0.09582      0.00000     0.40328    0.00089     0.40418
      H   39    0.10833      0.00000     0.39050    0.00117     0.39167
      H   40    0.10148      0.00000     0.39757    0.00095     0.39852
      H   41    0.10251      0.00000     0.39637    0.00113     0.39749
      H   42    0.10051      0.00000     0.39853    0.00096     0.39949
 =======================================================================
   * Total *    0.00000     18.99198    50.78774    0.22029    70.00000

 Normal termination of Gaussian 16 at Sat Dec 12 11:46:23 2020.
