 Gaussian 16, Revision A.03,

 -----------------------------------------------------------
 # opt freq B3LYP/6-31G(d) empiricaldispersion=gd3bj scf=xqc
 -----------------------------------------------------------

 -------------------------------
 CID_101916139_JID_1740_neutraal
 -------------------------------
 Symbolic Z-matrix:
 Charge =  0 Multiplicity = 1

 SCF Done:  E(RB3LYP) =  -483.185899229     A.U. after   13 cycles
 SCF Done:  E(RB3LYP) =  -483.191669195     A.U. after   11 cycles
 SCF Done:  E(RB3LYP) =  -483.192477610     A.U. after   11 cycles
 SCF Done:  E(RB3LYP) =  -483.192932019     A.U. after   11 cycles
 SCF Done:  E(RB3LYP) =  -483.193173592     A.U. after   12 cycles
 SCF Done:  E(RB3LYP) =  -483.193016656     A.U. after   11 cycles
 SCF Done:  E(RB3LYP) =  -483.193624055     A.U. after   11 cycles
 SCF Done:  E(RB3LYP) =  -483.156378451     A.U. after   13 cycles
 SCF Done:  E(RB3LYP) =  -483.192466320     A.U. after   12 cycles
 SCF Done:  E(RB3LYP) =  -483.193651824     A.U. after    8 cycles
 SCF Done:  E(RB3LYP) =  -483.195453590     A.U. after   10 cycles
 SCF Done:  E(RB3LYP) =  -483.195461083     A.U. after    9 cycles
 SCF Done:  E(RB3LYP) =  -483.195461364     A.U. after    9 cycles
 SCF Done:  E(RB3LYP) =  -483.195461637     A.U. after    7 cycles
 SCF Done:  E(RB3LYP) =  -483.195462167     A.U. after    8 cycles
 SCF Done:  E(RB3LYP) =  -483.195462208     A.U. after    7 cycles
 Optimization completed.
    -- Stationary point found.
 Normal termination of Gaussian 16 at Tue Dec  8 21:37:48 2020.

 --------------------------------------------------------------------
 #N Geom=AllCheck Guess=TCheck SCRF=Check GenChk RB3LYP/6-31G(d) Freq
 --------------------------------------------------------------------

 Structure from the checkpoint file:  "JID_1740.chk"
 -------------------------------
 CID_101916139_JID_1740_neutraal
 -------------------------------
 Charge =  0 Multiplicity = 1

 SCF Done:  E(RB3LYP) =  -483.195462208     A.U. after    1 cycles

  Exact polarizability: 116.364   6.026 105.832  -0.570   0.425  82.206
 Approx polarizability: 154.352  13.660 154.792   2.291   0.759 120.934

                      1                      2                      3
                      A                      A                      A
 Frequencies --     50.5339                92.3656               109.1141
 Red. masses --      2.5680                 2.0932                 2.9287
 Frc consts  --      0.0039                 0.0105                 0.0205
 IR Inten    --      0.4088                 0.6800                 0.3015

                      4                      5                      6
                      A                      A                      A
 Frequencies --    146.1158               188.4139               227.4390
 Red. masses --      3.1182                 2.7534                 2.3402
 Frc consts  --      0.0392                 0.0576                 0.0713
 IR Inten    --      1.1357                 0.9575                 0.3038

                      7                      8                      9
                      A                      A                      A
 Frequencies --    232.3366               236.4132               255.4270
 Red. masses --      1.0671                 1.2512                 1.2890
 Frc consts  --      0.0339                 0.0412                 0.0496
 IR Inten    --      0.3850                 1.0470                 0.0803

                     10                     11                     12
                      A                      A                      A
 Frequencies --    308.3000               331.2092               372.6203
 Red. masses --      2.3968                 2.9497                 2.8873
 Frc consts  --      0.1342                 0.1907                 0.2362
 IR Inten    --      1.6581                 0.2455                 2.8955

                     13                     14                     15
                      A                      A                      A
 Frequencies --    395.4283               424.8783               431.0380
 Red. masses --      2.6754                 2.4720                 1.9411
 Frc consts  --      0.2465                 0.2629                 0.2125
 IR Inten    --      0.7836                 4.0083                 3.5333

                     16                     17                     18
                      A                      A                      A
 Frequencies --    471.8492               549.5567               583.9893
 Red. masses --      1.1814                 3.2388                 3.1714
 Frc consts  --      0.1550                 0.5763                 0.6373
 IR Inten    --    107.1701                19.3887                22.3819

                     19                     20                     21
                      A                      A                      A
 Frequencies --    613.3266               688.9365               704.7081
 Red. masses --      2.8182                 1.7552                 2.1278
 Frc consts  --      0.6246                 0.4908                 0.6226
 IR Inten    --     14.8483                 9.7718                 7.1290

                     22                     23                     24
                      A                      A                      A
 Frequencies --    800.3570               824.1422               862.9259
 Red. masses --      1.2495                 4.7655                 2.9876
 Frc consts  --      0.4716                 1.9071                 1.3107
 IR Inten    --      0.4292                 6.5505                10.5505

                     25                     26                     27
                      A                      A                      A
 Frequencies --    891.6090               915.2872               935.6078
 Red. masses --      2.2017                 1.4028                 1.2763
 Frc consts  --      1.0312                 0.6924                 0.6583
 IR Inten    --     30.3687                20.7176                 1.1613

                     28                     29                     30
                      A                      A                      A
 Frequencies --    954.2103               971.3837               982.6509
 Red. masses --      1.3731                 2.2821                 2.1154
 Frc consts  --      0.7366                 1.2687                 1.2035
 IR Inten    --      0.0000                33.4971                13.3864

                     31                     32                     33
                      A                      A                      A
 Frequencies --    994.5339              1011.4896              1078.4807
 Red. masses --      1.8845                 1.8268                 2.1394
 Frc consts  --      1.0982                 1.1012                 1.4661
 IR Inten    --      6.0440                14.2270                12.0025

                     34                     35                     36
                      A                      A                      A
 Frequencies --   1094.1492              1114.6609              1134.7833
 Red. masses --      1.9155                 1.7341                 1.4927
 Frc consts  --      1.3511                 1.2695                 1.1325
 IR Inten    --     25.6682                23.4134                13.8579

                     37                     38                     39
                      A                      A                      A
 Frequencies --   1154.9439              1167.4035              1188.1960
 Red. masses --      2.0465                 1.3843                 2.1263
 Frc consts  --      1.6083                 1.1115                 1.7687
 IR Inten    --     11.9672                13.6570                21.3432

                     40                     41                     42
                      A                      A                      A
 Frequencies --   1218.4780              1230.2654              1276.5744
 Red. masses --      1.7184                 2.2268                 2.2176
 Frc consts  --      1.5031                 1.9858                 2.1292
 IR Inten    --     53.9077                36.2369                83.7767

                     43                     44                     45
                      A                      A                      A
 Frequencies --   1299.5203              1326.5948              1357.7558
 Red. masses --      1.5996                 1.2772                 1.3701
 Frc consts  --      1.5915                 1.3243                 1.4881
 IR Inten    --     38.1771                 2.9703                 7.9339

                     46                     47                     48
                      A                      A                      A
 Frequencies --   1365.0845              1406.6670              1421.2414
 Red. masses --      1.4810                 1.5668                 1.2674
 Frc consts  --      1.6260                 1.8266                 1.5084
 IR Inten    --     12.3489                38.1527                12.5650

                     49                     50                     51
                      A                      A                      A
 Frequencies --   1431.0519              1437.6748              1441.5338
 Red. masses --      1.9060                 1.3474                 1.3144
 Frc consts  --      2.2997                 1.6408                 1.6093
 IR Inten    --     31.9095                11.8367                10.2338

                     52                     53                     54
                      A                      A                      A
 Frequencies --   1448.4191              1507.7949              1515.3497
 Red. masses --      1.4774                 1.0907                 1.0829
 Frc consts  --      1.8261                 1.4610                 1.4651
 IR Inten    --     24.3498                 0.3982                 0.5155

                     55                     56                     57
                      A                      A                      A
 Frequencies --   1517.7110              1518.9415              1529.8230
 Red. masses --      1.0535                 1.0483                 1.0423
 Frc consts  --      1.4298                 1.4251                 1.4372
 IR Inten    --      0.4351                 2.6373                 4.4442

                     58                     59                     60
                      A                      A                      A
 Frequencies --   1531.7855              1541.7996              1543.0040
 Red. masses --      1.0556                 1.0655                 1.0495
 Frc consts  --      1.4593                 1.4923                 1.4722
 IR Inten    --      2.1143                 4.5595                 6.1693

                     61                     62                     63
                      A                      A                      A
 Frequencies --   1678.0712              3021.8153              3048.0138
 Red. masses --      5.4604                 1.0698                 1.0364
 Frc consts  --      9.0593                 5.7555                 5.6731
 IR Inten    --     64.5798                38.2607                16.8625

                     64                     65                     66
                      A                      A                      A
 Frequencies --   3053.8266              3057.0885              3058.0916
 Red. masses --      1.0383                 1.0378                 1.0620
 Frc consts  --      5.7050                 5.7146                 5.8514
 IR Inten    --     29.5888                22.3864                24.1494

                     67                     68                     69
                      A                      A                      A
 Frequencies --   3085.0564              3088.5015              3100.0031
 Red. masses --      1.0847                 1.0933                 1.1004
 Frc consts  --      6.0826                 6.1446                 6.2307
 IR Inten    --      6.0035                18.6613                12.4625

                     70                     71                     72
                      A                      A                      A
 Frequencies --   3108.6901              3117.6604              3120.7488
 Red. masses --      1.1019                 1.1022                 1.0993
 Frc consts  --      6.2742                 6.3119                 6.3079
 IR Inten    --      0.4414                 9.3998               116.6914

                     73                     74                     75
                      A                      A                      A
 Frequencies --   3134.2671              3144.8522              3153.5118
 Red. masses --      1.1026                 1.1015                 1.0997
 Frc consts  --      6.3817                 6.4187                 6.4433
 IR Inten    --     27.2157                25.1070                19.0997

                     76                     77                     78
                      A                      A                      A
 Frequencies --   3228.3133              3260.9732              3717.0841
 Red. masses --      1.0892                 1.1014                 1.0657
 Frc consts  --      6.6884                 6.9004                 8.6753
 IR Inten    --      6.6705                11.2844                10.1007

 - Thermochemistry -
 -------------------
 Temperature   298.150 Kelvin.  Pressure   1.00000 Atm.
 Atom     1 has atomic number  6 and mass  12.00000

 Molecular mass:   155.13101 amu.
 Principal axes and moments of inertia in atomic units:
                           1         2         3
     Eigenvalues --  1168.586232057.994382452.26775
           X            0.99996   0.00129  -0.00929
           Y           -0.00104   0.99964   0.02669
           Z            0.00932  -0.02668   0.99960
 This molecule is an asymmetric top.
 Rotational symmetry number  1.
 Warning -- assumption of classical behavior for rotation
           may cause significant error
 Rotational temperatures (Kelvin)      0.07412     0.04209     0.03532
 Rotational constants (GHZ):           1.54438     0.87694     0.73595
 Zero-point vibrational energy     661142.9 (Joules/Mol)
                                  158.01693 (Kcal/Mol)
 Warning -- explicit consideration of  19 degrees of freedom as
           vibrations may cause significant error
 Vibrational temperatures:     72.71   132.89   156.99   210.23   271.09
          (Kelvin)            327.23   334.28   340.15   367.50   443.57
                              476.54   536.12   568.93   611.31   620.17
                              678.89   790.69   840.23   882.44   991.23
                             1013.92  1151.54  1185.76  1241.56  1282.83
                             1316.89  1346.13  1372.90  1397.60  1413.82
                             1430.91  1455.31  1551.69  1574.24  1603.75
                             1632.70  1661.71  1679.63  1709.55  1753.12
                             1770.08  1836.71  1869.72  1908.67  1953.51
                             1964.05  2023.88  2044.85  2058.96  2068.49
                             2074.05  2083.95  2169.38  2180.25  2183.65
                             2185.42  2201.07  2203.90  2218.31  2220.04
                             2414.37  4347.72  4385.41  4393.78  4398.47
                             4399.91  4438.71  4443.66  4460.21  4472.71
                             4485.62  4490.06  4509.51  4524.74  4537.20
                             4644.82  4691.81  5348.06

 Zero-point correction=                           0.251816 (Hartree/Particle)
 Thermal correction to Energy=                    0.264065
 Thermal correction to Enthalpy=                  0.265009
 Thermal correction to Gibbs Free Energy=         0.214381
 Sum of electronic and zero-point Energies=           -482.943646
 Sum of electronic and thermal Energies=              -482.931397
 Sum of electronic and thermal Enthalpies=            -482.930453
 Sum of electronic and thermal Free Energies=         -482.981081

                     E (Thermal)             CV                S
                      KCal/Mol        Cal/Mol-Kelvin    Cal/Mol-Kelvin
 Total                  165.703             47.267            106.556
 Electronic               0.000              0.000              0.000
 Translational            0.889              2.981             41.027
 Rotational               0.889              2.981             30.157
 Vibrational            163.926             41.305             35.372
 Vibration     1          0.595              1.977              4.796
 Vibration     2          0.602              1.955              3.609
 Vibration     3          0.606              1.942              3.285
 Vibration     4          0.617              1.907              2.722
 Vibration     5          0.633              1.856              2.243
 Vibration     6          0.651              1.799              1.899
 Vibration     7          0.653              1.791              1.861
 Vibration     8          0.655              1.785              1.830
 Vibration     9          0.666              1.754              1.693
 Vibration    10          0.698              1.658              1.371
 Vibration    11          0.714              1.613              1.254
 Vibration    12          0.744              1.528              1.069
 Vibration    13          0.762              1.480              0.980
 Vibration    14          0.787              1.416              0.876
 Vibration    15          0.792              1.403              0.855
 Vibration    16          0.829              1.313              0.732
 Vibration    17          0.905              1.141              0.545
 Vibration    18          0.941              1.066              0.478
 Vibration    19          0.973              1.004              0.427

 Optimization completed.
    -- Stationary point found.
 Normal termination of Gaussian 16 at Tue Dec  8 21:45:37 2020.

 ----------------------------------------------------------------------
 # B3LYP/6-311++G(d,p) empiricaldispersion=gd3bj scf=xqc pop=npa geom=c
 heck
 ----------------------------------------------------------------------

 ---------------------------------------
 CID_101916139_JID_1740_Energie_neutraal
 ---------------------------------------
 Structure from the checkpoint file:  "JID_1740.chk"
 Charge =  0 Multiplicity = 1

 SCF Done:  E(RB3LYP) =  -483.339913311     A.U. after   14 cycles
 Normal termination of Gaussian 16 at Tue Dec  8 21:48:16 2020.

 ----------------------------------------------------------------------
 # B3LYP/6-311++G(d,p) empiricaldispersion=gd3bj scf=xqc pop=npa geom=c
 heck
 ----------------------------------------------------------------------

 -------------------------------------
 CID_101916139_JID_1740_Energie_kation
 -------------------------------------
 Structure from the checkpoint file:  "JID_1740.chk"
 Charge =  1 Multiplicity = 2

 SCF Done:  E(UB3LYP) =  -483.072918953     A.U. after   17 cycles
 Normal termination of Gaussian 16 at Tue Dec  8 21:52:29 2020.
 Gaussian 16:  ES64L-G16RevA.03 25-Dec-2016

 ----------------------------------------------------------------------
 # B3LYP/6-311++G(d,p) empiricaldispersion=gd3bj scf=xqc pop=npa geom=c
 heck
 ----------------------------------------------------------------------

 ------------------------------------
 CID_101916139_JID_1740_Energie_anion
 ------------------------------------
 Structure from the checkpoint file:  "JID_1740.chk"
 Charge = -1 Multiplicity = 2

                         Standard orientation:
 ---------------------------------------------------------------------
 Center     Atomic      Atomic             Coordinates (Angstroms)
 Number     Number       Type             X           Y           Z
 ---------------------------------------------------------------------
      1          6           0        2.987524   -1.306429   -0.232056
      2          6           0        1.513333   -1.148011   -0.611503
      3          6           0        0.828927    0.022084    0.091292
      4          6           0        1.467716    1.411579   -0.192220
      5          6           0        0.275860    2.339041   -0.183729
      6          6           0       -0.830322    1.588965   -0.309666
      7          7           0       -0.563458    0.217034   -0.360370
      8          6           0       -1.602944   -0.769830   -0.045597
      9          6           0       -2.292924   -0.536612    1.308165
     10          6           0       -2.619246   -0.835601   -1.191634
     11          8           0        0.879501   -0.272088    1.494306
     12          1           0        3.573036   -0.427258   -0.523908
     13          1           0        3.424065   -2.176792   -0.733622
     14          1           0        3.093613   -1.440328    0.847803
     15          1           0        1.403340   -0.996478   -1.690649
     16          1           0        0.975500   -2.069591   -0.359383
     17          1           0        2.236943    1.627345    0.557164
     18          1           0        1.962741    1.411458   -1.174565
     19          1           0        0.320301    3.419380   -0.201769
     20          1           0       -1.854730    1.930819   -0.402828
     21          1           0       -1.089224   -1.734444    0.004706
     22          1           0       -2.799739    0.435324    1.330884
     23          1           0       -3.047503   -1.309714    1.492879
     24          1           0       -1.560608   -0.569727    2.117798
     25          1           0       -2.113545   -1.031195   -2.141885
     26          1           0       -3.354118   -1.628223   -1.011974
     27          1           0       -3.168642    0.108559   -1.288686
     28          1           0        0.539232    0.517217    1.947864
 ---------------------------------------------------------------------

 SCF Done:  E(UB3LYP) =  -483.322990148     A.U. after   31 cycles

 The electronic state is 2-A.
 Alpha  occ. eigenvalues --  -19.01931 -14.21256 -10.15394 -10.10315 -10.09150
 Alpha  occ. eigenvalues --  -10.06814 -10.06564 -10.05766 -10.05469 -10.05176
 Alpha  occ. eigenvalues --  -10.04852  -0.93375  -0.83513  -0.70767  -0.67886
 Alpha  occ. eigenvalues --   -0.63753  -0.60108  -0.58347  -0.53368  -0.50310
 Alpha  occ. eigenvalues --   -0.47137  -0.45351  -0.40790  -0.37880  -0.35794
 Alpha  occ. eigenvalues --   -0.35553  -0.33215  -0.32616  -0.32351  -0.31755
 Alpha  occ. eigenvalues --   -0.29233  -0.28526  -0.27551  -0.27291  -0.26092
 Alpha  occ. eigenvalues --   -0.25368  -0.24967  -0.24191  -0.23945  -0.22089
 Alpha  occ. eigenvalues --   -0.20771  -0.17827  -0.09082   0.04647
 Alpha virt. eigenvalues --    0.06821   0.07264   0.08230   0.08936   0.09360
 Alpha virt. eigenvalues --    0.09582   0.09836   0.11131   0.11509   0.11936
 Alpha virt. eigenvalues --    0.12400   0.12514   0.13021   0.13436   0.14281

  Beta  occ. eigenvalues --  -19.01911 -14.21257 -10.15393 -10.10307 -10.09131
  Beta  occ. eigenvalues --  -10.06793 -10.06551 -10.05743 -10.05434 -10.05143
  Beta  occ. eigenvalues --  -10.04842  -0.93338  -0.83496  -0.70743  -0.67857
  Beta  occ. eigenvalues --   -0.63720  -0.60071  -0.58282  -0.53317  -0.50259
  Beta  occ. eigenvalues --   -0.47091  -0.45301  -0.40754  -0.37849  -0.35764
  Beta  occ. eigenvalues --   -0.35514  -0.33181  -0.32590  -0.32314  -0.31712
  Beta  occ. eigenvalues --   -0.29203  -0.28491  -0.27517  -0.27261  -0.26057
  Beta  occ. eigenvalues --   -0.25334  -0.24935  -0.24161  -0.23908  -0.22060
  Beta  occ. eigenvalues --   -0.20746  -0.17802  -0.09070
  Beta virt. eigenvalues --    0.06799   0.07728   0.08046   0.08830   0.09648
  Beta virt. eigenvalues --    0.09874   0.10133   0.10291   0.11555   0.11801
  Beta virt. eigenvalues --    0.12155   0.12888   0.12920   0.13341   0.13798

 Mulliken charges and spin densities:
               1          2
     1  C    0.842978  -1.546714
     2  C   -0.325974   0.665446
     3  C   -0.725537  -0.020382
     4  C    1.757661  -2.491046
     5  C    0.009494  -0.004576
     6  C    0.487331  -0.706634
     7  N    0.357807   0.056277
     8  C   -2.199464   2.355794
     9  C    1.030887  -1.654336
    10  C    0.960902  -1.392511
    11  O   -0.177453   0.034288
    12  H   -0.206879   0.337871
    13  H   -0.250880   0.398379
    14  H    0.092634   0.075832
    15  H   -0.054607   0.238652
    16  H   -0.044855   0.175274
    17  H    0.026516   0.151086
    18  H   -0.114994   0.274647
    19  H   -0.849743   1.022219
    20  H   -0.162555   0.309733
    21  H   -0.032631   0.184436
    22  H   -0.198683   0.344090
    23  H   -0.405148   0.543512
    24  H   -0.067477   0.213367
    25  H   -0.065267   0.212581
    26  H   -0.513475   0.662693
    27  H   -0.260273   0.401066
    28  H    0.089685   0.158958
 Sum of Mulliken charges =  -1.00000   1.00000

 Dipole moment (field-independent basis, Debye):
    X=              2.2615    Y=             -0.3690    Z=              0.4838  Tot=              2.3419
 Quadrupole moment (field-independent basis, Debye-Ang):
   XX=           -134.0168   YY=           -115.7973   ZZ=           -105.7685
   XY=             -3.3259   XZ=              2.0101   YZ=              0.4885

 Summary of Natural Population Analysis:

                                       Natural Population
                Natural  -----------------------------------------------
    Atom  No    Charge         Core      Valence    Rydberg      Total
 -----------------------------------------------------------------------
      C    1   -0.28467      0.99966     2.28062    0.00438     3.28467
      C    2   -0.19894      0.99956     2.18925    0.01013     3.19894
      C    3    0.24048      0.99955     1.74120    0.01877     2.75952
      C    4   -0.21660      0.99958     2.20688    0.01014     3.21660
      C    5   -0.15540      0.99955     2.14462    0.01123     3.15540
      C    6    0.01266      0.99949     1.97487    0.01297     2.98734
      N    7   -0.27711      0.99964     2.76251    0.01497     3.77711
      C    8   -0.00746      0.99960     1.99519    0.01267     3.00746
      C    9   -0.29205      0.99964     2.28710    0.00531     3.29205
      C   10   -0.28418      0.99964     2.27876    0.00578     3.28418
      O   11   -0.38261      0.99989     3.37647    0.00625     4.38261
      H   12    0.09616      0.00000     0.40264    0.00121     0.40384
      H   13    0.09735      0.00000     0.40163    0.00101     0.40265
      H   14    0.10368      0.00000     0.39490    0.00143     0.39632
      H   15    0.10261      0.00000     0.39576    0.00163     0.39739
      H   16    0.09973      0.00000     0.39864    0.00163     0.40027
      H   17    0.10591      0.00000     0.39269    0.00140     0.39409
      H   18    0.10436      0.00000     0.39417    0.00148     0.39564
      H   19    0.10363      0.00000     0.39520    0.00117     0.39637
      H   20    0.10160      0.00000     0.39698    0.00142     0.39840
      H   21    0.09681      0.00000     0.40053    0.00266     0.40319
      H   22    0.09702      0.00000     0.40163    0.00135     0.40298
      H   23    0.10071      0.00000     0.39806    0.00123     0.39929
      H   24    0.10492      0.00000     0.39386    0.00122     0.39508
      H   25    0.10221      0.00000     0.39648    0.00131     0.39779
      H   26    0.10035      0.00000     0.39832    0.00132     0.39965
      H   27    0.09677      0.00000     0.40189    0.00134     0.40323
      H   28    0.23208      0.00000     0.26495    0.00297     0.26792
 =======================================================================
   * Total *    0.00000     10.99579    31.86581    0.13840    43.00000

 Normal termination of Gaussian 16 at Tue Dec  8 21:59:01 2020.
