 Gaussian 16, Revision A.03,

 -----------------------------------------------------------
 # opt freq B3LYP/6-31G(d) empiricaldispersion=gd3bj scf=xqc
 -----------------------------------------------------------

 -----------------------------
 CID_21297110_JID_409_neutraal
 -----------------------------
 Symbolic Z-matrix:
 Charge =  0 Multiplicity = 1

 SCF Done:  E(RB3LYP) =  -441.466921849     A.U. after   15 cycles
 SCF Done:  E(RB3LYP) =  -441.470065969     A.U. after   12 cycles
 SCF Done:  E(RB3LYP) =  -441.469900055     A.U. after   12 cycles
 SCF Done:  E(RB3LYP) =  -441.469921265     A.U. after   12 cycles
 SCF Done:  E(RB3LYP) =  -441.470619945     A.U. after   12 cycles
 SCF Done:  E(RB3LYP) =  -441.470843929     A.U. after   11 cycles
 SCF Done:  E(RB3LYP) =  -441.471210443     A.U. after   14 cycles
 SCF Done:  E(RB3LYP) =  -441.471272111     A.U. after   12 cycles
 SCF Done:  E(RB3LYP) =  -441.471504528     A.U. after   11 cycles
 SCF Done:  E(RB3LYP) =  -441.471539999     A.U. after   12 cycles
 SCF Done:  E(RB3LYP) =  -441.471587847     A.U. after   11 cycles
 SCF Done:  E(RB3LYP) =  -441.471587450     A.U. after   10 cycles
 SCF Done:  E(RB3LYP) =  -441.471600446     A.U. after    9 cycles
 SCF Done:  E(RB3LYP) =  -441.471600811     A.U. after    8 cycles
 SCF Done:  E(RB3LYP) =  -441.471600929     A.U. after    8 cycles
 SCF Done:  E(RB3LYP) =  -441.471600996     A.U. after    8 cycles
 Optimization completed.
    -- Stationary point found.
 Normal termination of Gaussian 16 at Tue Dec  8 10:35:17 2020.

 --------------------------------------------------------------------
 #N Geom=AllCheck Guess=TCheck SCRF=Check GenChk RB3LYP/6-31G(d) Freq
 --------------------------------------------------------------------

 Structure from the checkpoint file:  "JID_409.chk"
 -----------------------------
 CID_21297110_JID_409_neutraal
 -----------------------------
 Charge =  0 Multiplicity = 1

 SCF Done:  E(RB3LYP) =  -441.471600996     A.U. after    1 cycles

  Exact polarizability: 115.945  -0.430 113.292  -5.086   0.853  52.209
 Approx polarizability: 166.057   6.875 208.706 -10.771  -0.444  78.585

                      1                      2                      3
                      A                      A                      A
 Frequencies --     43.9428               100.8543               135.8055
 Red. masses --      3.4721                 1.4465                 1.9322
 Frc consts  --      0.0040                 0.0087                 0.0210
 IR Inten    --      2.7065                 3.0780                 0.4501

                      4                      5                      6
                      A                      A                      A
 Frequencies --    219.1477               245.4440               275.4503
 Red. masses --      2.1069                 1.3411                 2.7757
 Frc consts  --      0.0596                 0.0476                 0.1241
 IR Inten    --      0.0563                 0.4033                 1.5778

                      7                      8                      9
                      A                      A                      A
 Frequencies --    291.4621               307.7911               365.1526
 Red. masses --      2.7664                 2.9029                 4.7052
 Frc consts  --      0.1385                 0.1620                 0.3696
 IR Inten    --      5.6558                 7.9755                 6.5715

                     10                     11                     12
                      A                      A                      A
 Frequencies --    390.3935               447.0540               495.0629
 Red. masses --      1.1074                 4.3073                 6.7631
 Frc consts  --      0.0994                 0.5072                 0.9766
 IR Inten    --     70.9016                 5.6469                 1.4300

                     13                     14                     15
                      A                      A                      A
 Frequencies --    520.3011               571.8804               582.7284
 Red. masses --      3.3101                 3.6508                 3.4782
 Frc consts  --      0.5280                 0.7035                 0.6959
 IR Inten    --      9.3961                 5.0067                 5.1848

                     16                     17                     18
                      A                      A                      A
 Frequencies --    652.7557               669.2592               740.6909
 Red. masses --      5.3531                 1.3349                 4.7447
 Frc consts  --      1.3439                 0.3523                 1.5337
 IR Inten    --      0.1878               336.1958                 5.2710

                     19                     20                     21
                      A                      A                      A
 Frequencies --    746.6237               810.2626               917.9722
 Red. masses --      1.4167                 2.9330                 2.2191
 Frc consts  --      0.4653                 1.1345                 1.1017
 IR Inten    --     20.1638                 1.5908                 1.3579

                     22                     23                     24
                      A                      A                      A
 Frequencies --    927.9719               970.5069              1009.7143
 Red. masses --      2.4096                 1.2494                 1.6259
 Frc consts  --      1.2226                 0.6934                 0.9767
 IR Inten    --     15.0504                 0.4682                 0.8907

                     25                     26                     27
                      A                      A                      A
 Frequencies --   1034.6101              1060.8919              1072.6622
 Red. masses --      1.4958                 1.4932                 2.2720
 Frc consts  --      0.9434                 0.9902                 1.5402
 IR Inten    --      5.5252                 2.7850                 2.4943

                     28                     29                     30
                      A                      A                      A
 Frequencies --   1128.1020              1181.9611              1204.6906
 Red. masses --      1.7128                 1.4288                 1.9714
 Frc consts  --      1.2843                 1.1761                 1.6857
 IR Inten    --     21.1610                27.1887                 5.4990

                     31                     32                     33
                      A                      A                      A
 Frequencies --   1220.0603              1282.8103              1293.0725
 Red. masses --      1.9061                 1.3858                 2.2765
 Frc consts  --      1.6717                 1.3436                 2.2427
 IR Inten    --     12.3674                 2.2960                12.4581

                     34                     35                     36
                      A                      A                      A
 Frequencies --   1337.7932              1395.4830              1420.3602
 Red. masses --      1.9842                 2.5885                 1.2444
 Frc consts  --      2.0923                 2.9699                 1.4791
 IR Inten    --      9.7405                68.8513                10.7405

                     37                     38                     39
                      A                      A                      A
 Frequencies --   1447.1085              1460.2576              1512.2600
 Red. masses --      1.4268                 1.8280                 1.0454
 Frc consts  --      1.7604                 2.2966                 1.4085
 IR Inten    --     12.3516                 3.9242                 7.4618

                     40                     41                     42
                      A                      A                      A
 Frequencies --   1523.9570              1526.7695              1533.5672
 Red. masses --      1.0491                 1.1096                 1.0547
 Frc consts  --      1.4356                 1.5239                 1.4615
 IR Inten    --      9.8371                11.6428                 4.0622

                     43                     44                     45
                      A                      A                      A
 Frequencies --   1622.4419              1661.4265              1712.4967
 Red. masses --      2.5295                 1.9104                 6.7107
 Frc consts  --      3.9230                 3.1069                11.5952
 IR Inten    --     33.8576               190.4580                46.4005

                     46                     47                     48
                      A                      A                      A
 Frequencies --   1733.9543              2989.3361              3016.5277
 Red. masses --      6.4541                 1.0801                 1.0469
 Frc consts  --     11.4330                 5.6869                 5.6127
 IR Inten    --    177.4934                 6.2848                29.2239

                     49                     50                     51
                      A                      A                      A
 Frequencies --   3061.8231              3070.2168              3129.0337
 Red. masses --      1.0347                 1.0916                 1.1036
 Frc consts  --      5.7149                 6.0623                 6.3662
 IR Inten    --     30.9199                19.3088                23.6658

                     52                     53                     54
                      A                      A                      A
 Frequencies --   3129.6005              3156.4067              3170.5299
 Red. masses --      1.0986                 1.1026                 1.0850
 Frc consts  --      6.3397                 6.4721                 6.4260
 IR Inten    --     14.3625                 8.4897                10.5548

                     55                     56                     57
                      A                      A                      A
 Frequencies --   3192.4059              3533.6437              3649.7087
 Red. masses --      1.0963                 1.0478                 1.0976
 Frc consts  --      6.5831                 7.7088                 8.6142
 IR Inten    --     28.1356                33.7477                22.4976

 - Thermochemistry -
 -------------------
 Temperature   298.150 Kelvin.  Pressure   1.00000 Atm.
 Atom     1 has atomic number  6 and mass  12.00000

 Molecular mass:   137.08406 amu.
 Principal axes and moments of inertia in atomic units:
                           1         2         3
     Eigenvalues --   910.281911442.267252241.68460
           X            0.99966  -0.02615   0.00029
           Y            0.02614   0.99964   0.00628
           Z           -0.00045  -0.00627   0.99998
 This molecule is an asymmetric top.
 Rotational symmetry number  1.
 Warning -- assumption of classical behavior for rotation
           may cause significant error
 Rotational temperatures (Kelvin)      0.09515     0.06005     0.03864
 Rotational constants (GHZ):           1.98262     1.25132     0.80508
 Zero-point vibrational energy     465970.6 (Joules/Mol)
                                  111.36964 (Kcal/Mol)
 Warning -- explicit consideration of  15 degrees of freedom as
           vibrations may cause significant error
 Vibrational temperatures:     63.22   145.11   195.39   315.30   353.14
          (Kelvin)            396.31   419.35   442.84   525.37   561.69
                              643.21   712.29   748.60   822.81   838.42
                              939.17   962.91  1065.69  1074.22  1165.79
                             1320.76  1335.14  1396.34  1452.75  1488.57
                             1526.39  1543.32  1623.09  1700.58  1733.28
                             1755.39  1845.68  1860.44  1924.79  2007.79
                             2043.58  2082.07  2100.98  2175.80  2192.63
                             2196.68  2206.46  2334.33  2390.42  2463.90
                             2494.77  4300.99  4340.11  4405.28  4417.36
                             4501.98  4502.80  4541.37  4561.69  4593.16
                             5084.13  5251.12

 Zero-point correction=                           0.177479 (Hartree/Particle)
 Thermal correction to Energy=                    0.187541
 Thermal correction to Enthalpy=                  0.188486
 Thermal correction to Gibbs Free Energy=         0.142264
 Sum of electronic and zero-point Energies=           -441.294122
 Sum of electronic and thermal Energies=              -441.284060
 Sum of electronic and thermal Enthalpies=            -441.283115
 Sum of electronic and thermal Free Energies=         -441.329337

                     E (Thermal)             CV                S
                      KCal/Mol        Cal/Mol-Kelvin    Cal/Mol-Kelvin
 Total                  117.684             38.227             97.282
 Electronic               0.000              0.000              0.000
 Translational            0.889              2.981             40.658
 Rotational               0.889              2.981             29.466
 Vibrational            115.907             32.265             27.157
 Vibration     1          0.595              1.980              5.073
 Vibration     2          0.604              1.948              3.438
 Vibration     3          0.614              1.918              2.862
 Vibration     4          0.647              1.812              1.966
 Vibration     5          0.660              1.770              1.763
 Vibration     6          0.677              1.719              1.562
 Vibration     7          0.687              1.690              1.465
 Vibration     8          0.698              1.659              1.374
 Vibration     9          0.738              1.544              1.100
 Vibration    10          0.758              1.491              0.999
 Vibration    11          0.806              1.367              0.805
 Vibration    12          0.851              1.261              0.671
 Vibration    13          0.875              1.205              0.609
 Vibration    14          0.928              1.092              0.501
 Vibration    15          0.940              1.069              0.480

                           ! Non-Optimized Parameters !
 Normal termination of Gaussian 16 at Tue Dec  8 10:40:21 2020.

 ----------------------------------------------------------------------
 # B3LYP/6-311++G(d,p) empiricaldispersion=gd3bj scf=xqc pop=npa geom=c
 heck
 ----------------------------------------------------------------------

 -------------------------------------
 CID_21297110_JID_409_Energie_neutraal
 -------------------------------------
 Structure from the checkpoint file:  "JID_409.chk"
 Charge =  0 Multiplicity = 1

 SCF Done:  E(RB3LYP) =  -441.602646426     A.U. after   15 cycles
 Normal termination of Gaussian 16 at Tue Dec  8 10:44:27 2020.

 ----------------------------------------------------------------------
 # B3LYP/6-311++G(d,p) empiricaldispersion=gd3bj scf=xqc pop=npa geom=c
 heck
 ----------------------------------------------------------------------

 -----------------------------------
 CID_21297110_JID_409_Energie_kation
 -----------------------------------
 Structure from the checkpoint file:  "JID_409.chk"
 Charge =  1 Multiplicity = 2

 SCF Done:  E(UB3LYP) =  -441.326684945     A.U. after   20 cycles
 Normal termination of Gaussian 16 at Tue Dec  8 10:50:25 2020.
 Gaussian 16:  ES64L-G16RevA.03 25-Dec-2016

 ----------------------------------------------------------------------
 # B3LYP/6-311++G(d,p) empiricaldispersion=gd3bj scf=xqc pop=npa geom=c
 heck
 ----------------------------------------------------------------------

 ----------------------------------
 CID_21297110_JID_409_Energie_anion
 ----------------------------------
 Structure from the checkpoint file:  "JID_409.chk"
 Charge = -1 Multiplicity = 2

                         Standard orientation:
 ---------------------------------------------------------------------
 Center     Atomic      Atomic             Coordinates (Angstroms)
 Number     Number       Type             X           Y           Z
 ---------------------------------------------------------------------
      1          6           0        2.758316   -0.331501    0.604116
      2          6           0        1.557996   -0.405435   -0.362977
      3          6           0        0.831965   -1.712022   -0.261683
      4          6           0       -0.499131   -1.768927   -0.083299
      5          6           0       -1.336257   -0.585090    0.015680
      6          6           0       -0.776099    0.662309   -0.044000
      7          6           0        0.681755    0.832753   -0.195227
      8          8           0        1.175599    1.960308   -0.182346
      9          7           0       -1.492425    1.846975    0.010461
     10          6           0       -2.824590   -0.729092    0.186374
     11          1           0        2.421142   -0.446794    1.639453
     12          1           0        3.253121    0.637211    0.503683
     13          1           0        3.476506   -1.128756    0.387316
     14          1           0        1.961750   -0.320315   -1.386378
     15          1           0        1.425217   -2.619567   -0.339941
     16          1           0       -0.999537   -2.732289   -0.015353
     17          1           0       -2.314562    1.856278    0.599173
     18          1           0       -0.881208    2.646808    0.142119
     19          1           0       -3.148533   -1.763684    0.042241
     20          1           0       -3.152407   -0.421240    1.191014
     21          1           0       -3.363035   -0.096908   -0.531704
 ---------------------------------------------------------------------

 SCF Done:  E(UB3LYP) =  -441.610053859     A.U. after   27 cycles

 The electronic state is 2-A.
 Alpha  occ. eigenvalues --  -18.90796 -14.16056 -10.04903 -10.03247 -10.02421
 Alpha  occ. eigenvalues --  -10.01853 -10.01161 -10.00743 -10.00108  -9.99565
 Alpha  occ. eigenvalues --   -0.84896  -0.75473  -0.67012  -0.62319  -0.57167
 Alpha  occ. eigenvalues --   -0.54003  -0.49297  -0.42870  -0.41702  -0.36086
 Alpha  occ. eigenvalues --   -0.35027  -0.30271  -0.29519  -0.29139  -0.28430
 Alpha  occ. eigenvalues --   -0.26335  -0.25972  -0.24192  -0.22956  -0.21828
 Alpha  occ. eigenvalues --   -0.20337  -0.19469  -0.17838  -0.16439  -0.12953
 Alpha  occ. eigenvalues --   -0.07336  -0.04078   0.05385
 Alpha virt. eigenvalues --    0.08859   0.09854   0.10642   0.11914   0.12225
 Alpha virt. eigenvalues --    0.12806   0.13100   0.14289   0.15163   0.15499
 Alpha virt. eigenvalues --    0.16405   0.16869   0.18243   0.18974   0.19877

  Beta  occ. eigenvalues --  -18.90359 -14.16014 -10.04590 -10.03273 -10.02324
  Beta  occ. eigenvalues --  -10.01919 -10.01055 -10.00772  -9.99829  -9.99266
  Beta  occ. eigenvalues --   -0.84101  -0.75287  -0.66592  -0.61999  -0.56996
  Beta  occ. eigenvalues --   -0.53501  -0.48993  -0.42435  -0.41267  -0.35773
  Beta  occ. eigenvalues --   -0.34878  -0.29952  -0.29152  -0.28944  -0.28070
  Beta  occ. eigenvalues --   -0.26216  -0.25587  -0.23538  -0.22719  -0.21476
  Beta  occ. eigenvalues --   -0.19933  -0.18752  -0.17565  -0.14881  -0.12018
  Beta  occ. eigenvalues --   -0.06939  -0.02424
  Beta virt. eigenvalues --    0.08800   0.09606   0.10513   0.11584   0.12204
  Beta virt. eigenvalues --    0.12264   0.12799   0.13232   0.14305   0.15113
  Beta virt. eigenvalues --    0.15428   0.16409   0.17649   0.18636   0.19012

 Mulliken charges and spin densities:
               1          2
     1  C   -0.048595  -0.615391
     2  C    0.298814   0.300209
     3  C   -0.496538   0.371298
     4  C   -0.074637  -0.210838
     5  C    1.439423   0.142607
     6  C   -1.131274   0.229843
     7  C   -0.451665   0.057074
     8  O   -0.447566   0.161902
     9  N   -0.368263   0.018524
    10  C   -0.662023  -0.066018
    11  H    0.031887   0.086862
    12  H    0.107685   0.041072
    13  H   -0.088534   0.195492
    14  H   -0.036534   0.204662
    15  H    0.071035   0.035252
    16  H    0.056845   0.003912
    17  H    0.214320  -0.004101
    18  H    0.252494   0.001137
    19  H    0.117176   0.001081
    20  H    0.088161   0.037019
    21  H    0.127792   0.008403
 Sum of Mulliken charges =  -1.00000   1.00000

 Dipole moment (field-independent basis, Debye):
    X=             -3.3853    Y=             -1.5089    Z=              1.1697  Tot=              3.8866
 Quadrupole moment (field-independent basis, Debye-Ang):
   XX=            -84.9168   YY=            -80.9700   ZZ=            -71.5819
   XY=             -3.8413   XZ=             -2.2260   YZ=              3.5272

 Summary of Natural Population Analysis:

                                       Natural Population
                Natural  -----------------------------------------------
    Atom  No    Charge         Core      Valence    Rydberg      Total
 -----------------------------------------------------------------------
      C    1   -0.26516      0.99965     2.26017    0.00534     3.26516
      C    2   -0.17101      0.99957     2.15765    0.01380     3.17101
      C    3   -0.03314      0.99955     2.02162    0.01197     3.03314
      C    4   -0.12149      0.99952     2.11250    0.00946     3.12149
      C    5   -0.00077      0.99948     1.99226    0.00903     3.00077
      C    6    0.06121      0.99941     1.92779    0.01159     2.93879
      C    7    0.30582      0.99959     1.67311    0.02147     2.69418
      O    8   -0.29180      0.99988     3.28508    0.00684     4.29180
      N    9   -0.40588      0.99971     2.89472    0.01145     3.90588
      C   10   -0.29655      0.99966     2.29187    0.00502     3.29655
      H   11    0.09252      0.00000     0.40595    0.00153     0.40748
      H   12    0.10392      0.00000     0.39449    0.00159     0.39608
      H   13    0.08631      0.00000     0.41209    0.00161     0.41369
      H   14    0.11620      0.00000     0.38176    0.00204     0.38380
      H   15    0.08135      0.00000     0.41734    0.00131     0.41865
      H   16    0.08441      0.00000     0.41398    0.00161     0.41559
      H   17    0.17456      0.00000     0.32386    0.00158     0.32544
      H   18    0.19364      0.00000     0.30434    0.00202     0.30636
      H   19    0.09426      0.00000     0.40480    0.00094     0.40574
      H   20    0.09330      0.00000     0.40500    0.00170     0.40670
      H   21    0.09831      0.00000     0.39997    0.00172     0.40169
 =======================================================================
   * Total *    0.00000      9.99602    26.88034    0.12364    37.00000

 Normal termination of Gaussian 16 at Tue Dec  8 10:56:15 2020.
