 Gaussian 16, Revision A.03,

 -----------------------------------------------------------
 # opt freq B3LYP/6-31G(d) empiricaldispersion=gd3bj scf=xqc
 -----------------------------------------------------------

 ------------------------------
 CID_81186698_JID_3167_neutraal
 ------------------------------
 Symbolic Z-matrix:
 Charge =  0 Multiplicity = 1

 SCF Done:  E(RB3LYP) =  -958.991636072     A.U. after   13 cycles
 SCF Done:  E(RB3LYP) =  -958.997045663     A.U. after   12 cycles
 SCF Done:  E(RB3LYP) =  -958.997198508     A.U. after   12 cycles
 SCF Done:  E(RB3LYP) =  -958.997584622     A.U. after   12 cycles
 SCF Done:  E(RB3LYP) =  -958.998018993     A.U. after   12 cycles
 SCF Done:  E(RB3LYP) =  -958.998208685     A.U. after   11 cycles
 SCF Done:  E(RB3LYP) =  -958.998361437     A.U. after   11 cycles
 SCF Done:  E(RB3LYP) =  -958.998474643     A.U. after   11 cycles
 SCF Done:  E(RB3LYP) =  -958.998554033     A.U. after   11 cycles
 SCF Done:  E(RB3LYP) =  -958.998656796     A.U. after   11 cycles
 SCF Done:  E(RB3LYP) =  -959.001358596     A.U. after   10 cycles
 SCF Done:  E(RB3LYP) =  -959.001369855     A.U. after   10 cycles
 SCF Done:  E(RB3LYP) =  -959.001371200     A.U. after    8 cycles
 SCF Done:  E(RB3LYP) =  -959.001371710     A.U. after    9 cycles
 SCF Done:  E(RB3LYP) =  -959.001371826     A.U. after    7 cycles
 SCF Done:  E(RB3LYP) =  -959.001371849     A.U. after    7 cycles
 Optimization completed.
    -- Stationary point found.
 Normal termination of Gaussian 16 at Wed Dec  9 22:42:07 2020.

 --------------------------------------------------------------------
 #N Geom=AllCheck Guess=TCheck SCRF=Check GenChk RB3LYP/6-31G(d) Freq
 --------------------------------------------------------------------

 Structure from the checkpoint file:  "JID_3167.chk"
 ------------------------------
 CID_81186698_JID_3167_neutraal
 ------------------------------
 Charge =  0 Multiplicity = 1

 SCF Done:  E(RB3LYP) =  -959.001371849     A.U. after    1 cycles

  Exact polarizability: 137.553  -0.618 122.605  -4.256   0.331 110.884
 Approx polarizability: 178.202   3.724 176.549  -5.193  -0.542 177.936

                      1                      2                      3
                      A                      A                      A
 Frequencies --     29.0268                44.1748                62.3728
 Red. masses --      3.4638                 3.1925                 3.3480
 Frc consts  --      0.0017                 0.0037                 0.0077
 IR Inten    --      0.4421                 0.8503                 0.7001

                      4                      5                      6
                      A                      A                      A
 Frequencies --     74.0798               119.8914               151.4388
 Red. masses --      2.8952                 2.5353                 2.8437
 Frc consts  --      0.0094                 0.0215                 0.0384
 IR Inten    --      0.4975                 0.3335                 4.0316

                      7                      8                      9
                      A                      A                      A
 Frequencies --    177.8571               206.9031               211.1689
 Red. masses --      2.2072                 1.2053                 3.3138
 Frc consts  --      0.0411                 0.0304                 0.0871
 IR Inten    --      1.0814                 0.1193                 4.6617

                     10                     11                     12
                      A                      A                      A
 Frequencies --    227.2165               234.4319               250.2479
 Red. masses --      2.5320                 2.6924                 1.2390
 Frc consts  --      0.0770                 0.0872                 0.0457
 IR Inten    --      0.4878                 0.2296                 0.3383

                     13                     14                     15
                      A                      A                      A
 Frequencies --    253.9620               278.5789               303.3044
 Red. masses --      2.5734                 2.5083                 1.6422
 Frc consts  --      0.0978                 0.1147                 0.0890
 IR Inten    --      1.8157                 4.2426                 0.7892

                     16                     17                     18
                      A                      A                      A
 Frequencies --    308.0045               312.5254               354.8745
 Red. masses --      2.6297                 1.1678                 3.9100
 Frc consts  --      0.1470                 0.0672                 0.2901
 IR Inten    --      2.6611                57.6528                 7.0577

                     19                     20                     21
                      A                      A                      A
 Frequencies --    385.4340               399.1149               427.3710
 Red. masses --      2.9151                 2.3336                 2.2518
 Frc consts  --      0.2552                 0.2190                 0.2423
 IR Inten    --     11.8547                 3.7202                 3.2571

                     22                     23                     24
                      A                      A                      A
 Frequencies --    437.1095               499.8975               519.1179
 Red. masses --      3.0881                 3.1419                 3.9941
 Frc consts  --      0.3476                 0.4626                 0.6342
 IR Inten    --     23.2822                 7.1022                14.4885

                     25                     26                     27
                      A                      A                      A
 Frequencies --    534.8057               623.4581               755.8934
 Red. masses --      4.2617                 3.4013                 4.1492
 Frc consts  --      0.7182                 0.7789                 1.3968
 IR Inten    --     13.7738                13.8911                43.8994

                     28                     29                     30
                      A                      A                      A
 Frequencies --    758.5912               853.0897               860.8771
 Red. masses --      1.3280                 1.9150                 1.3076
 Frc consts  --      0.4503                 0.8211                 0.5710
 IR Inten    --      4.5956                 7.5730               188.2424

                     31                     32                     33
                      A                      A                      A
 Frequencies --    871.8701               873.3173               895.6457
 Red. masses --      1.4842                 2.1958                 1.8697
 Frc consts  --      0.6647                 0.9867                 0.8837
 IR Inten    --     20.2825                 2.8284                15.9210

                     34                     35                     36
                      A                      A                      A
 Frequencies --    918.6361               949.4559               963.0349
 Red. masses --      1.5330                 1.3114                 1.8703
 Frc consts  --      0.7622                 0.6965                 1.0220
 IR Inten    --      1.5674                19.7190                 2.6833

                     37                     38                     39
                      A                      A                      A
 Frequencies --   1026.4669              1050.1885              1057.0984
 Red. masses --      1.2640                 1.8255                 2.1390
 Frc consts  --      0.7847                 1.1862                 1.4083
 IR Inten    --      1.9690                 4.3693                 0.5907

                     40                     41                     42
                      A                      A                      A
 Frequencies --   1082.9583              1085.5343              1102.3424
 Red. masses --      2.7423                 3.7258                 1.8152
 Frc consts  --      1.8949                 2.5868                 1.2996
 IR Inten    --     20.4304                67.0128                 3.9417

                     43                     44                     45
                      A                      A                      A
 Frequencies --   1104.0972              1130.4327              1154.7942
 Red. masses --      1.6434                 1.8627                 2.1458
 Frc consts  --      1.1803                 1.4024                 1.6859
 IR Inten    --     11.5272                50.2537                 6.6875

                     46                     47                     48
                      A                      A                      A
 Frequencies --   1159.0670              1194.8122              1220.3305
 Red. masses --      2.1553                 1.9040                 1.1952
 Frc consts  --      1.7060                 1.6015                 1.0487
 IR Inten    --      8.1096                12.1395                 4.2934

                     49                     50                     51
                      A                      A                      A
 Frequencies --   1230.3527              1262.3093              1283.4504
 Red. masses --      1.4315                 1.5859                 1.8581
 Frc consts  --      1.2768                 1.4889                 1.8033
 IR Inten    --      8.2578                27.7201                61.0223

                     52                     53                     54
                      A                      A                      A
 Frequencies --   1291.4840              1298.6150              1319.9184
 Red. masses --      1.7809                 1.4546                 1.3568
 Frc consts  --      1.7502                 1.4453                 1.3927
 IR Inten    --     41.5752                33.6617                17.0274

                     55                     56                     57
                      A                      A                      A
 Frequencies --   1330.9975              1355.9134              1375.2290
 Red. masses --      1.3857                 1.2379                 1.2721
 Frc consts  --      1.4463                 1.3409                 1.4175
 IR Inten    --      3.4129                10.0499                 7.6746

                     58                     59                     60
                      A                      A                      A
 Frequencies --   1389.6091              1403.3121              1420.2035
 Red. masses --      1.3728                 1.3546                 1.3502
 Frc consts  --      1.5618                 1.5717                 1.6045
 IR Inten    --      0.6529                 3.4101                 0.3103

                     61                     62                     63
                      A                      A                      A
 Frequencies --   1437.0311              1441.4813              1444.7882
 Red. masses --      1.2650                 1.2575                 1.2627
 Frc consts  --      1.5391                 1.5395                 1.5530
 IR Inten    --      1.8846                 5.9082                 8.7261

                     64                     65                     66
                      A                      A                      A
 Frequencies --   1457.1741              1484.8902              1512.1927
 Red. masses --      1.3717                 1.0844                 1.0803
 Frc consts  --      1.7161                 1.4088                 1.4555
 IR Inten    --     13.3657                11.7885                 0.6936

                     67                     68                     69
                      A                      A                      A
 Frequencies --   1522.0430              1524.3220              1525.0041
 Red. masses --      1.0608                 1.0490                 1.0577
 Frc consts  --      1.4479                 1.4360                 1.4493
 IR Inten    --      2.1856                 3.6158                 6.9843

                     70                     71                     72
                      A                      A                      A
 Frequencies --   1531.0519              1533.7127              1538.0808
 Red. masses --      1.0474                 1.0579                 1.0520
 Frc consts  --      1.4466                 1.4662                 1.4663
 IR Inten    --      9.7295                 5.1799                 4.3804

                     73                     74                     75
                      A                      A                      A
 Frequencies --   1550.0132              1553.5898              1699.7715
 Red. masses --      1.0542                 1.0751                 1.0853
 Frc consts  --      1.4923                 1.5289                 1.8476
 IR Inten    --      8.3714                 4.5717                28.7898

                     76                     77                     78
                      A                      A                      A
 Frequencies --   2954.5071              3013.2373              3041.9858
 Red. masses --      1.0738                 1.0619                 1.0491
 Frc consts  --      5.5226                 5.6807                 5.7198
 IR Inten    --     69.1824                28.1581                20.0219

                     79                     80                     81
                      A                      A                      A
 Frequencies --   3043.9278              3047.9796              3049.1985
 Red. masses --      1.0610                 1.0476                 1.0830
 Frc consts  --      5.7923                 5.7344                 5.9328
 IR Inten    --      7.1681                19.2719                28.8124

                     82                     83                     84
                      A                      A                      A
 Frequencies --   3055.8289              3059.1392              3076.6842
 Red. masses --      1.0838                 1.0419                 1.0912
 Frc consts  --      5.9630                 5.7450                 6.0858
 IR Inten    --     56.7936                22.2916                 3.1362

                     85                     86                     87
                      A                      A                      A
 Frequencies --   3079.6870              3084.3963              3090.6721
 Red. masses --      1.0675                 1.0842                 1.0834
 Frc consts  --      5.9655                 6.0771                 6.0975
 IR Inten    --     14.6060                 1.8936                19.3655

                     88                     89                     90
                      A                      A                      A
 Frequencies --   3108.1027              3118.2429              3120.3463
 Red. masses --      1.1006                 1.0996                 1.0998
 Frc consts  --      6.2643                 6.2997                 6.3090
 IR Inten    --     43.0943                65.6056                13.4162

                     91                     92                     93
                      A                      A                      A
 Frequencies --   3121.0565              3132.5921              3152.8362
 Red. masses --      1.0995                 1.1045                 1.1007
 Frc consts  --      6.3104                 6.3857                 6.4464
 IR Inten    --     37.0084                 3.3589                 7.9938

                     94                     95                     96
                      A                      A                      A
 Frequencies --   3165.3739              3483.6274              3577.4526
 Red. masses --      1.1003                 1.0497                 1.0942
 Frc consts  --      6.4956                 7.5056                 8.2508
 IR Inten    --      3.8497                14.7278                10.0545

 - Thermochemistry -
 -------------------
 Temperature   298.150 Kelvin.  Pressure   1.00000 Atm.
 Atom     1 has atomic number  6 and mass  12.00000

 Molecular mass:   207.12930 amu.
 Principal axes and moments of inertia in atomic units:
                           1         2         3
     Eigenvalues --  1903.859743916.390054517.66613
           X            0.99967  -0.02132  -0.01461
           Y            0.02149   0.99970   0.01189
           Z            0.01435  -0.01220   0.99982
 This molecule is an asymmetric top.
 Rotational symmetry number  1.
 Warning -- assumption of classical behavior for rotation
           may cause significant error
 Rotational temperatures (Kelvin)      0.04549     0.02212     0.01917
 Rotational constants (GHZ):           0.94794     0.46082     0.39949
 Zero-point vibrational energy     800231.8 (Joules/Mol)
                                  191.26000 (Kcal/Mol)
 Warning -- explicit consideration of  25 degrees of freedom as
           vibrations may cause significant error
 Vibrational temperatures:     41.76    63.56    89.74   106.58   172.50
          (Kelvin)            217.89   255.90   297.69   303.82   326.91
                              337.30   360.05   365.39   400.81   436.39
                              443.15   449.65   510.59   554.55   574.24
                              614.89   628.90   719.24   746.89   769.47
                              897.02  1087.56  1091.44  1227.41  1238.61
                             1254.43  1256.51  1288.63  1321.71  1366.06
                             1385.59  1476.86  1510.99  1520.93  1558.14
                             1561.84  1586.02  1588.55  1626.44  1661.49
                             1667.64  1719.07  1755.78  1770.20  1816.18
                             1846.60  1858.16  1868.42  1899.07  1915.01
                             1950.86  1978.65  1999.34  2019.05  2043.36
                             2067.57  2073.97  2078.73  2096.55  2136.43
                             2175.71  2189.88  2193.16  2194.14  2202.84
                             2206.67  2212.96  2230.12  2235.27  2445.59
                             4250.88  4335.38  4376.74  4379.53  4385.36
                             4387.12  4396.66  4401.42  4426.66  4430.98
                             4437.76  4446.79  4471.87  4486.46  4489.48
                             4490.50  4507.10  4536.23  4554.27  5012.16
                             5147.16

 Zero-point correction=                           0.304792 (Hartree/Particle)
 Thermal correction to Energy=                    0.321083
 Thermal correction to Enthalpy=                  0.322027
 Thermal correction to Gibbs Free Energy=         0.261155
 Sum of electronic and zero-point Energies=           -958.696580
 Sum of electronic and thermal Energies=              -958.680289
 Sum of electronic and thermal Enthalpies=            -958.679345
 Sum of electronic and thermal Free Energies=         -958.740217

                     E (Thermal)             CV                S
                      KCal/Mol        Cal/Mol-Kelvin    Cal/Mol-Kelvin
 Total                  201.483             60.429            128.116
 Electronic               0.000              0.000              0.000
 Translational            0.889              2.981             41.889
 Rotational               0.889              2.981             31.888
 Vibrational            199.705             54.468             54.340
 Vibration     1          0.593              1.984              5.895
 Vibration     2          0.595              1.980              5.062
 Vibration     3          0.597              1.972              4.381
 Vibration     4          0.599              1.966              4.042
 Vibration     5          0.609              1.933              3.102
 Vibration     6          0.619              1.901              2.654
 Vibration     7          0.628              1.870              2.351
 Vibration     8          0.641              1.830              2.071
 Vibration     9          0.643              1.824              2.034
 Vibration    10          0.651              1.800              1.901
 Vibration    11          0.654              1.788              1.845
 Vibration    12          0.663              1.762              1.729
 Vibration    13          0.665              1.756              1.703
 Vibration    14          0.679              1.713              1.542
 Vibration    15          0.695              1.667              1.399
 Vibration    16          0.698              1.658              1.373
 Vibration    17          0.701              1.650              1.349
 Vibration    18          0.731              1.565              1.144
 Vibration    19          0.754              1.501              1.018
 Vibration    20          0.765              1.472              0.966
 Vibration    21          0.789              1.411              0.867
 Vibration    22          0.797              1.389              0.836
 Vibration    23          0.855              1.250              0.658
 Vibration    24          0.874              1.208              0.612
 Vibration    25          0.890              1.173              0.577

 Optimization completed.
    -- Stationary point found.
 Normal termination of Gaussian 16 at Wed Dec  9 22:52:56 2020.

 ----------------------------------------------------------------------
 # B3LYP/6-311++G(d,p) empiricaldispersion=gd3bj scf=xqc pop=npa geom=c
 heck
 ----------------------------------------------------------------------

 --------------------------------------
 CID_81186698_JID_3167_Energie_neutraal
 --------------------------------------
 Structure from the checkpoint file:  "JID_3167.chk"
 Charge =  0 Multiplicity = 1

 SCF Done:  E(RB3LYP) =  -959.199758955     A.U. after   14 cycles
 Normal termination of Gaussian 16 at Wed Dec  9 22:58:15 2020.

 ----------------------------------------------------------------------
 # B3LYP/6-311++G(d,p) empiricaldispersion=gd3bj scf=xqc pop=npa geom=c
 heck
 ----------------------------------------------------------------------

 ------------------------------------
 CID_81186698_JID_3167_Energie_kation
 ------------------------------------
 Structure from the checkpoint file:  "JID_3167.chk"
 Charge =  1 Multiplicity = 2

 SCF Done:  E(UB3LYP) =  -958.864681308     A.U. after   26 cycles
 Normal termination of Gaussian 16 at Wed Dec  9 23:12:01 2020.
 Gaussian 16:  ES64L-G16RevA.03 25-Dec-2016

 ----------------------------------------------------------------------
 # B3LYP/6-311++G(d,p) empiricaldispersion=gd3bj scf=xqc pop=npa geom=c
 heck
 ----------------------------------------------------------------------

 -----------------------------------
 CID_81186698_JID_3167_Energie_anion
 -----------------------------------
 Structure from the checkpoint file:  "JID_3167.chk"
 Charge = -1 Multiplicity = 2

                         Standard orientation:
 ---------------------------------------------------------------------
 Center     Atomic      Atomic             Coordinates (Angstroms)
 Number     Number       Type             X           Y           Z
 ---------------------------------------------------------------------
      1          6           0        3.555736    1.350390   -0.222808
      2          6           0        3.661352    0.072867    0.616439
      3          6           0        2.312883   -0.419857    1.160724
      4          6           0        1.261111   -0.746314    0.084369
      5          6           0        1.704082   -1.872630   -0.856620
      6          6           0       -0.071577   -1.101448    0.765812
      7         16           0       -1.559505   -0.736043   -0.229185
      8          8           0       -1.190897   -0.767939   -1.662482
      9          8           0       -2.641187   -1.605322    0.266287
     10          6           0       -2.008969    1.005467    0.179696
     11          6           0       -2.586553    1.090239    1.590583
     12          6           0       -0.848483    1.981880   -0.045524
     13          7           0       -0.522480    2.135027   -1.458170
     14          1           0        2.988800    1.186284   -1.146127
     15          1           0        4.547107    1.717660   -0.508693
     16          1           0        3.053401    2.148633    0.338715
     17          1           0        4.138360   -0.718068    0.024905
     18          1           0        4.328010    0.255616    1.468751
     19          1           0        2.475195   -1.310597    1.783956
     20          1           0        1.904630    0.353899    1.827996
     21          1           0        1.106823    0.151486   -0.522055
     22          1           0        1.929823   -2.784208   -0.288313
     23          1           0        0.916097   -2.097351   -1.579321
     24          1           0        2.603566   -1.593142   -1.413942
     25          1           0       -0.156313   -2.173621    0.970009
     26          1           0       -0.212595   -0.575392    1.715472
     27          1           0       -2.784973    1.203311   -0.569159
     28          1           0       -1.809361    0.961346    2.352762
     29          1           0       -3.033731    2.078879    1.737511
     30          1           0       -3.354626    0.330324    1.745546
     31          1           0       -1.182243    2.954578    0.338957
     32          1           0       -0.004721    1.679110    0.601464
     33          1           0        0.341193    2.659785   -1.569614
     34          1           0       -0.405822    1.225498   -1.901137
 ---------------------------------------------------------------------

 SCF Done:  E(UB3LYP) =  -959.190560965     A.U. after   27 cycles

 The electronic state is 2-A.
 Alpha  occ. eigenvalues --  -88.94852 -19.02278 -19.02188 -14.20132 -10.12756
 Alpha  occ. eigenvalues --  -10.11758 -10.11580 -10.09623 -10.08472 -10.07360
 Alpha  occ. eigenvalues --  -10.07097 -10.06909 -10.06161  -8.01417  -5.97688
 Alpha  occ. eigenvalues --   -5.97554  -5.97495  -1.01228  -0.91037  -0.80116
 Alpha  occ. eigenvalues --   -0.74301  -0.71703  -0.68055  -0.63534  -0.59225
 Alpha  occ. eigenvalues --   -0.58992  -0.56248  -0.52462  -0.48303  -0.46886
 Alpha  occ. eigenvalues --   -0.42664  -0.41081  -0.39536  -0.38058  -0.37983
 Alpha  occ. eigenvalues --   -0.37039  -0.36234  -0.34752  -0.33488  -0.32369
 Alpha  occ. eigenvalues --   -0.32021  -0.31861  -0.30940  -0.30109  -0.28905
 Alpha  occ. eigenvalues --   -0.27767  -0.27290  -0.26684  -0.25895  -0.24958
 Alpha  occ. eigenvalues --   -0.23569  -0.23329  -0.22948  -0.22663  -0.21380
 Alpha  occ. eigenvalues --   -0.18743  -0.15422   0.04090
 Alpha virt. eigenvalues --    0.06287   0.06864   0.07729   0.08326   0.08724
 Alpha virt. eigenvalues --    0.09325   0.10048   0.10443   0.11159   0.11470
 Alpha virt. eigenvalues --    0.11713   0.12420   0.12851   0.13023   0.13576

  Beta  occ. eigenvalues --  -88.94851 -19.02273 -19.02186 -14.20120 -10.12753
  Beta  occ. eigenvalues --  -10.11737 -10.11551 -10.09621 -10.08433 -10.07328
  Beta  occ. eigenvalues --  -10.07075 -10.06893 -10.06120  -8.01416  -5.97688
  Beta  occ. eigenvalues --   -5.97554  -5.97492  -1.01221  -0.91031  -0.80091
  Beta  occ. eigenvalues --   -0.74275  -0.71677  -0.68010  -0.63496  -0.59164
  Beta  occ. eigenvalues --   -0.58923  -0.56198  -0.52401  -0.48262  -0.46809
  Beta  occ. eigenvalues --   -0.42645  -0.41052  -0.39494  -0.38026  -0.37943
  Beta  occ. eigenvalues --   -0.37015  -0.36221  -0.34712  -0.33449  -0.32329
  Beta  occ. eigenvalues --   -0.31980  -0.31825  -0.30895  -0.30064  -0.28865
  Beta  occ. eigenvalues --   -0.27732  -0.27259  -0.26648  -0.25856  -0.24925
  Beta  occ. eigenvalues --   -0.23527  -0.23301  -0.22906  -0.22643  -0.21373
  Beta  occ. eigenvalues --   -0.18721  -0.15401
  Beta virt. eigenvalues --    0.06469   0.07175   0.07484   0.08323   0.08819
  Beta virt. eigenvalues --    0.09264   0.09682   0.10402   0.10772   0.11437
  Beta virt. eigenvalues --    0.11761   0.12045   0.12701   0.13193   0.13300

 Mulliken charges and spin densities:
               1          2
     1  C    0.771350  -1.374729
     2  C   -0.632494   0.269332
     3  C   -0.417533   0.145694
     4  C   -0.049844   0.494659
     5  C    0.312726  -0.947252
     6  C   -0.173170  -0.674402
     7  S    0.980970  -0.548905
     8  O   -0.184274   0.007533
     9  O   -0.154202   0.002192
    10  C   -1.204987   0.986462
    11  C    0.803665  -1.395118
    12  C   -0.071140  -0.524009
    13  N   -0.299314  -0.001127
    14  H   -0.185770   0.334494
    15  H   -0.518434   0.674331
    16  H   -0.184021   0.335810
    17  H    0.103599   0.026712
    18  H   -0.517051   0.696040
    19  H   -0.139382   0.292404
    20  H   -0.512351   0.678654
    21  H    0.731870  -0.558118
    22  H   -0.038333   0.187570
    23  H    0.162576  -0.004226
    24  H    0.033672   0.101272
    25  H    0.182558   0.052649
    26  H    0.281367   0.006121
    27  H    0.238736   0.038242
    28  H   -0.502164   0.663897
    29  H   -0.242276   0.394322
    30  H    0.102710   0.078550
    31  H   -0.609121   0.839093
    32  H    0.638910  -0.468050
    33  H    0.143286   0.100685
    34  H    0.147869   0.089220
 Sum of Mulliken charges =  -1.00000   1.00000

 Dipole moment (field-independent basis, Debye):
    X=             -2.6857    Y=             -3.9731    Z=             -2.8566  Tot=              5.5820
 Quadrupole moment (field-independent basis, Debye-Ang):
   XX=           -162.3341   YY=           -141.1388   ZZ=           -137.1188
   XY=             -9.2359   XZ=             -5.7816   YZ=             -6.5164

 Summary of Natural Population Analysis:

                                       Natural Population
                Natural  -----------------------------------------------
    Atom  No    Charge         Core      Valence    Rydberg      Total
 -----------------------------------------------------------------------
      C    1   -0.28773      0.99967     2.28229    0.00577     3.28773
      C    2   -0.18982      0.99964     2.18190    0.00828     3.18982
      C    3   -0.18558      0.99961     2.17545    0.01053     3.18558
      C    4   -0.13404      0.99958     2.12281    0.01164     3.13404
      C    5   -0.28705      0.99964     2.28225    0.00515     3.28705
      C    6   -0.28671      0.99955     2.27507    0.01209     3.28671
      S    7    1.01862      4.99921     1.89022    0.09195     6.98138
      O    8   -0.47874      0.99991     3.47332    0.00551     4.47874
      O    9   -0.47184      0.99991     3.46639    0.00554     4.47184
      C   10   -0.19937      0.99955     2.18518    0.01463     3.19937
      C   11   -0.29593      0.99963     2.28932    0.00699     3.29593
      C   12   -0.10189      0.99959     2.08919    0.01310     3.10189
      N   13   -0.42753      0.99977     2.91821    0.00955     3.92753
      H   14    0.09292      0.00000     0.40576    0.00131     0.40708
      H   15    0.10130      0.00000     0.39746    0.00124     0.39870
      H   16    0.09951      0.00000     0.39869    0.00179     0.40049
      H   17    0.09246      0.00000     0.40639    0.00115     0.40754
      H   18    0.09977      0.00000     0.39881    0.00141     0.40023
      H   19    0.09744      0.00000     0.40116    0.00140     0.40256
      H   20    0.10016      0.00000     0.39745    0.00239     0.39984
      H   21    0.10415      0.00000     0.39222    0.00363     0.39585
      H   22    0.09498      0.00000     0.40417    0.00084     0.40502
      H   23    0.11058      0.00000     0.38840    0.00102     0.38942
      H   24    0.10129      0.00000     0.39796    0.00075     0.39871
      H   25    0.11849      0.00000     0.38034    0.00116     0.38151
      H   26    0.11932      0.00000     0.37898    0.00170     0.38068
      H   27    0.11755      0.00000     0.38102    0.00143     0.38245
      H   28    0.10455      0.00000     0.39368    0.00178     0.39545
      H   29    0.10838      0.00000     0.39029    0.00132     0.39162
      H   30    0.11304      0.00000     0.38591    0.00106     0.38696
      H   31    0.10046      0.00000     0.39773    0.00180     0.39954
      H   32    0.08646      0.00000     0.41039    0.00315     0.41354
      H   33    0.17762      0.00000     0.32066    0.00171     0.32238
      H   34    0.18715      0.00000     0.31049    0.00236     0.31285
 =======================================================================
   * Total *   -0.00000     16.99527    39.76958    0.23516    57.00000

 Normal termination of Gaussian 16 at Wed Dec  9 23:26:10 2020.
