 Gaussian 16, Revision A.03,

 -----------------------------------------------------------
 # opt freq B3LYP/6-31G(d) empiricaldispersion=gd3bj scf=xqc
 -----------------------------------------------------------

 -------------------------------
 CID_147277316_JID_2619_neutraal
 -------------------------------
 Symbolic Z-matrix:
 Charge =  0 Multiplicity = 1

 SCF Done:  E(RB3LYP) =  -829.454620652     A.U. after   13 cycles
 SCF Done:  E(RB3LYP) =  -829.457968927     A.U. after   11 cycles
 SCF Done:  E(RB3LYP) =  -829.458221054     A.U. after   10 cycles
 SCF Done:  E(RB3LYP) =  -829.458239790     A.U. after    9 cycles
 SCF Done:  E(RB3LYP) =  -829.458276553     A.U. after    9 cycles
 SCF Done:  E(RB3LYP) =  -829.458281251     A.U. after    9 cycles
 SCF Done:  E(RB3LYP) =  -829.458281764     A.U. after    7 cycles
 SCF Done:  E(RB3LYP) =  -829.458281816     A.U. after    7 cycles
 SCF Done:  E(RB3LYP) =  -829.458281828     A.U. after    6 cycles
 Optimization completed.
    -- Stationary point found.
 Normal termination of Gaussian 16 at Wed Dec  9 17:42:25 2020.

 --------------------------------------------------------------------
 #N Geom=AllCheck Guess=TCheck SCRF=Check GenChk RB3LYP/6-31G(d) Freq
 --------------------------------------------------------------------

 Structure from the checkpoint file:  "JID_2619.chk"
 -------------------------------
 CID_147277316_JID_2619_neutraal
 -------------------------------
 Charge =  0 Multiplicity = 1

 SCF Done:  E(RB3LYP) =  -829.458281828     A.U. after    1 cycles

  Exact polarizability: 173.783  -7.760 121.607   4.981  -0.145 106.243
 Approx polarizability: 212.069 -12.669 167.384  13.052  -0.592 173.244

                      1                      2                      3
                      A                      A                      A
 Frequencies --     32.6808                44.8987                82.0429
 Red. masses --      4.4507                 3.5892                 3.1395
 Frc consts  --      0.0028                 0.0043                 0.0125
 IR Inten    --      0.7571                 0.1686                 0.0773

                      4                      5                      6
                      A                      A                      A
 Frequencies --     88.5666               118.4436               134.7126
 Red. masses --      2.0921                 3.6140                 2.0748
 Frc consts  --      0.0097                 0.0299                 0.0222
 IR Inten    --      0.1479                 0.0898                 0.3652

                      7                      8                      9
                      A                      A                      A
 Frequencies --    160.9561               224.8495               236.9491
 Red. masses --      2.7771                 1.3319                 1.1922
 Frc consts  --      0.0424                 0.0397                 0.0394
 IR Inten    --      0.1628                 3.1705                13.8614

                     10                     11                     12
                      A                      A                      A
 Frequencies --    250.9704               290.9986               313.9008
 Red. masses --      1.9653                 2.1461                 3.0056
 Frc consts  --      0.0729                 0.1071                 0.1745
 IR Inten    --      0.3369                 1.6286                 1.0763

                     13                     14                     15
                      A                      A                      A
 Frequencies --    358.4142               409.1253               414.9054
 Red. masses --      2.0771                 2.3907                 2.7411
 Frc consts  --      0.1572                 0.2358                 0.2780
 IR Inten    --      1.0309                 1.0401                 0.8791

                     16                     17                     18
                      A                      A                      A
 Frequencies --    440.6326               479.3731               486.9866
 Red. masses --      2.0578                 3.0053                 2.2446
 Frc consts  --      0.2354                 0.4069                 0.3136
 IR Inten    --      0.1765                 0.5853                 1.5202

                     19                     20                     21
                      A                      A                      A
 Frequencies --    506.2468               630.6476               677.6811
 Red. masses --      2.4910                 2.5420                 3.4230
 Frc consts  --      0.3761                 0.5957                 0.9262
 IR Inten    --      3.3147                 3.7471                16.7712

                     22                     23                     24
                      A                      A                      A
 Frequencies --    761.2404               766.9187               804.3822
 Red. masses --      1.5126                 1.8404                 1.5544
 Frc consts  --      0.5164                 0.6378                 0.5926
 IR Inten    --      3.2442                 2.2387                 2.9407

                     25                     26                     27
                      A                      A                      A
 Frequencies --    829.4181               871.5870               875.5134
 Red. masses --      1.5320                 1.7292                 1.4210
 Frc consts  --      0.6209                 0.7740                 0.6418
 IR Inten    --      2.2542                 3.6303                10.2337

                     28                     29                     30
                      A                      A                      A
 Frequencies --    885.9440               910.9798               914.6999
 Red. masses --      1.7721                 1.8178                 2.2319
 Frc consts  --      0.8195                 0.8888                 1.1002
 IR Inten    --      3.5370                 2.0649                 0.5633

                     31                     32                     33
                      A                      A                      A
 Frequencies --    961.2608               969.7356              1017.2741
 Red. masses --      1.5921                 2.0147                 1.5716
 Frc consts  --      0.8668                 1.1162                 0.9582
 IR Inten    --      3.3624                 1.9991                 7.3041

                     34                     35                     36
                      A                      A                      A
 Frequencies --   1026.1112              1043.2873              1075.2696
 Red. masses --      1.9601                 1.9604                 2.1925
 Frc consts  --      1.2159                 1.2572                 1.4936
 IR Inten    --      3.7881                 6.1215                 1.0057

                     37                     38                     39
                      A                      A                      A
 Frequencies --   1084.2903              1096.8607              1111.8102
 Red. masses --      1.7361                 2.0873                 2.5980
 Frc consts  --      1.2026                 1.4796                 1.8921
 IR Inten    --      0.8766                 0.3964                 0.0811

                     40                     41                     42
                      A                      A                      A
 Frequencies --   1124.5646              1155.9367              1163.5292
 Red. masses --      1.2069                 1.8702                 2.0491
 Frc consts  --      0.8993                 1.4723                 1.6345
 IR Inten    --      0.5422                 0.4468                 0.3722

                     43                     44                     45
                      A                      A                      A
 Frequencies --   1191.5423              1225.3549              1251.6035
 Red. masses --      1.3528                 1.3549                 1.2909
 Frc consts  --      1.1316                 1.1986                 1.1914
 IR Inten    --      2.9586                 2.7082                 5.9587

                     46                     47                     48
                      A                      A                      A
 Frequencies --   1266.4394              1284.1403              1288.3014
 Red. masses --      1.5290                 1.3761                 1.2376
 Frc consts  --      1.4449                 1.3370                 1.2102
 IR Inten    --      1.2957                 6.0000                29.9075

                     49                     50                     51
                      A                      A                      A
 Frequencies --   1307.9459              1319.7024              1326.1808
 Red. masses --      1.1790                 1.2612                 1.1596
 Frc consts  --      1.1884                 1.2941                 1.2016
 IR Inten    --      0.8057                 2.6482                 0.2705

                     52                     53                     54
                      A                      A                      A
 Frequencies --   1358.0198              1372.0043              1378.3099
 Red. masses --      1.2543                 1.4394                 1.2913
 Frc consts  --      1.3629                 1.5964                 1.4454
 IR Inten    --      1.2707                 7.4441                 1.0375

                     55                     56                     57
                      A                      A                      A
 Frequencies --   1391.4684              1398.2895              1404.8922
 Red. masses --      1.3847                 1.4567                 1.5072
 Frc consts  --      1.5796                 1.6781                 1.7527
 IR Inten    --      9.7635                 1.8925                 2.3970

                     58                     59                     60
                      A                      A                      A
 Frequencies --   1412.9209              1425.8513              1444.0381
 Red. masses --      1.4625                 1.5398                 1.2446
 Frc consts  --      1.7202                 1.8444                 1.5291
 IR Inten    --      0.2545                 0.4997                 4.9886

                     61                     62                     63
                      A                      A                      A
 Frequencies --   1499.6725              1509.6377              1514.1959
 Red. masses --      1.1132                 1.1025                 1.0878
 Frc consts  --      1.4751                 1.4804                 1.4694
 IR Inten    --      0.6800                 6.0698                 5.4526

                     64                     65                     66
                      A                      A                      A
 Frequencies --   1517.4853              1522.0500              1525.6163
 Red. masses --      1.0773                 1.0936                 1.0728
 Frc consts  --      1.4617                 1.4927                 1.4712
 IR Inten    --      0.1241                 5.6060                 2.6333

                     67                     68                     69
                      A                      A                      A
 Frequencies --   1527.8965              1534.4811              1540.2269
 Red. masses --      1.0771                 1.0633                 1.0681
 Frc consts  --      1.4814                 1.4752                 1.4929
 IR Inten    --      0.3263                 5.7089                 2.0557

                     70                     71                     72
                      A                      A                      A
 Frequencies --   1745.4605              2681.9400              2995.4178
 Red. masses --      7.1440                 1.0385                 1.0754
 Frc consts  --     12.8236                 4.4011                 5.6853
 IR Inten    --      7.6423                18.8343                 3.6090

                     73                     74                     75
                      A                      A                      A
 Frequencies --   3004.6274              3007.6571              3016.0697
 Red. masses --      1.0747                 1.0698                 1.0652
 Frc consts  --      5.7164                 5.7020                 5.7089
 IR Inten    --      2.6361                28.6948                19.4310

                     76                     77                     78
                      A                      A                      A
 Frequencies --   3023.4910              3031.2596              3037.3758
 Red. masses --      1.0687                 1.0645                 1.0609
 Frc consts  --      5.7559                 5.7629                 5.7668
 IR Inten    --     51.3904                18.7172                38.7784

                     79                     80                     81
                      A                      A                      A
 Frequencies --   3048.5040              3057.6694              3067.7987
 Red. masses --      1.0413                 1.0983                 1.0967
 Frc consts  --      5.7017                 6.0502                 6.0815
 IR Inten    --     19.4573                56.6330                39.1231

                     82                     83                     84
                      A                      A                      A
 Frequencies --   3080.3954              3082.6291              3087.1754
 Red. masses --      1.0997                 1.0646                 1.0937
 Frc consts  --      6.1483                 5.9606                 6.1417
 IR Inten    --     58.9839                11.7739                54.1807

                     85                     86                     87
                      A                      A                      A
 Frequencies --   3090.2184              3098.5647              3109.2584
 Red. masses --      1.0964                 1.0906                 1.1020
 Frc consts  --      6.1687                 6.1692                 6.2769
 IR Inten    --     33.9017                41.3863                46.4778

                     88                     89                     90
                      A                      A                      A
 Frequencies --   3129.7360              3142.5859              3160.5195
 Red. masses --      1.0999                 1.0966                 1.0917
 Frc consts  --      6.3477                 6.3809                 6.4247
 IR Inten    --     44.0945                 3.0330                27.0251

 - Thermochemistry -
 -------------------
 Temperature   298.150 Kelvin.  Pressure   1.00000 Atm.
 Atom     1 has atomic number  6 and mass  12.00000

 Molecular mass:   184.12857 amu.
 Principal axes and moments of inertia in atomic units:
                           1         2         3
     Eigenvalues --  1231.449035527.809296422.81758
           X            0.99991   0.01287   0.00300
           Y           -0.01286   0.99991  -0.00255
           Z           -0.00303   0.00251   0.99999
 This molecule is an asymmetric top.
 Rotational symmetry number  1.
 Warning -- assumption of classical behavior for rotation
           may cause significant error
 Rotational temperatures (Kelvin)      0.07033     0.01567     0.01349
 Rotational constants (GHZ):           1.46554     0.32648     0.28099
 Zero-point vibrational energy     761250.9 (Joules/Mol)
                                  181.94334 (Kcal/Mol)
 Warning -- explicit consideration of  19 degrees of freedom as
           vibrations may cause significant error
 Vibrational temperatures:     47.02    64.60   118.04   127.43   170.41
          (Kelvin)            193.82   231.58   323.51   340.92   361.09
                              418.68   451.63   515.68   588.64   596.96
                              633.97   689.71   700.67   728.38   907.36
                              975.03  1095.26  1103.42  1157.33  1193.35
                             1254.02  1259.67  1274.68  1310.70  1316.05
                             1383.04  1395.23  1463.63  1476.35  1501.06
                             1547.07  1560.05  1578.14  1599.65  1618.00
                             1663.14  1674.06  1714.36  1763.01  1800.78
                             1822.12  1847.59  1853.58  1881.84  1898.76
                             1908.08  1953.89  1974.01  1983.08  2002.01
                             2011.83  2021.33  2032.88  2051.48  2077.65
                             2157.69  2172.03  2178.59  2183.32  2189.89
                             2195.02  2198.30  2207.78  2216.04  2511.33
                             3858.71  4309.74  4322.99  4327.35  4339.45
                             4350.13  4361.31  4370.11  4386.12  4399.30
                             4413.88  4432.00  4435.22  4441.76  4446.13
                             4458.14  4473.53  4502.99  4521.48  4547.28

 Zero-point correction=                           0.289945 (Hartree/Particle)
 Thermal correction to Energy=                    0.303720
 Thermal correction to Enthalpy=                  0.304664
 Thermal correction to Gibbs Free Energy=         0.248451
 Sum of electronic and zero-point Energies=           -829.168337
 Sum of electronic and thermal Energies=              -829.154562
 Sum of electronic and thermal Enthalpies=            -829.153618
 Sum of electronic and thermal Free Energies=         -829.209831

                     E (Thermal)             CV                S
                      KCal/Mol        Cal/Mol-Kelvin    Cal/Mol-Kelvin
 Total                  190.587             51.816            118.310
 Electronic               0.000              0.000              0.000
 Translational            0.889              2.981             41.538
 Rotational               0.889              2.981             32.147
 Vibrational            188.810             45.854             44.625
 Vibration     1          0.594              1.983              5.660
 Vibration     2          0.595              1.979              5.030
 Vibration     3          0.600              1.961              3.841
 Vibration     4          0.601              1.957              3.691
 Vibration     5          0.609              1.934              3.126
 Vibration     6          0.613              1.919              2.878
 Vibration     7          0.622              1.890              2.539
 Vibration     8          0.650              1.803              1.920
 Vibration     9          0.656              1.784              1.826
 Vibration    10          0.663              1.761              1.724
 Vibration    11          0.687              1.690              1.468
 Vibration    12          0.702              1.647              1.342
 Vibration    13          0.733              1.558              1.129
 Vibration    14          0.773              1.450              0.930
 Vibration    15          0.778              1.438              0.909
 Vibration    16          0.801              1.382              0.825
 Vibration    17          0.836              1.296              0.712
 Vibration    18          0.843              1.279              0.691
 Vibration    19          0.861              1.236              0.643

                           ! Non-Optimized Parameters !
 Normal termination of Gaussian 16 at Wed Dec  9 17:51:02 2020.

 ----------------------------------------------------------------------
 # B3LYP/6-311++G(d,p) empiricaldispersion=gd3bj scf=xqc pop=npa geom=c
 heck
 ----------------------------------------------------------------------

 ---------------------------------------
 CID_147277316_JID_2619_Energie_neutraal
 ---------------------------------------
 Structure from the checkpoint file:  "JID_2619.chk"
 Charge =  0 Multiplicity = 1

 SCF Done:  E(RB3LYP) =  -829.605316006     A.U. after   14 cycles
 Normal termination of Gaussian 16 at Wed Dec  9 17:55:33 2020.

 ----------------------------------------------------------------------
 # B3LYP/6-311++G(d,p) empiricaldispersion=gd3bj scf=xqc pop=npa geom=c
 heck
 ----------------------------------------------------------------------

 -------------------------------------
 CID_147277316_JID_2619_Energie_kation
 -------------------------------------
 Structure from the checkpoint file:  "JID_2619.chk"
 Charge =  1 Multiplicity = 2

 SCF Done:  E(UB3LYP) =  -829.304519122     A.U. after   22 cycles
 Normal termination of Gaussian 16 at Wed Dec  9 18:05:19 2020.
 Gaussian 16:  ES64L-G16RevA.03 25-Dec-2016

 ----------------------------------------------------------------------
 # B3LYP/6-311++G(d,p) empiricaldispersion=gd3bj scf=xqc pop=npa geom=c
 heck
 ----------------------------------------------------------------------

 ------------------------------------
 CID_147277316_JID_2619_Energie_anion
 ------------------------------------
 Structure from the checkpoint file:  "JID_2619.chk"
 Charge = -1 Multiplicity = 2

                         Standard orientation:
 ---------------------------------------------------------------------
 Center     Atomic      Atomic             Coordinates (Angstroms)
 Number     Number       Type             X           Y           Z
 ---------------------------------------------------------------------
      1          6           0       -4.726741   -0.752777   -0.304894
      2          6           0       -3.600613   -1.401325    0.508461
      3          6           0       -2.218175   -1.369885   -0.177084
      4          6           0       -1.304327   -0.199599    0.221186
      5          6           0       -1.902286    1.186017   -0.068626
      6          6           0       -0.938336    2.320087    0.302991
      7          6           0        0.423385    2.154283   -0.395522
      8          6           0        1.002496    0.789913   -0.108045
      9          6           0        2.208016    0.651901    0.463900
     10          6           0        2.893811   -0.627923    0.814823
     11         16           0        4.345423   -0.985067   -0.291586
     12          6           0        0.070310   -0.338342   -0.473633
     13          1           0       -4.524423    0.300727   -0.521420
     14          1           0       -5.682091   -0.806289    0.229698
     15          1           0       -4.853632   -1.266386   -1.265590
     16          1           0       -3.529402   -0.921588    1.494632
     17          1           0       -3.878246   -2.444425    0.704944
     18          1           0       -1.680039   -2.298861    0.053906
     19          1           0       -2.351909   -1.365417   -1.269210
     20          1           0       -1.129476   -0.264759    1.306660
     21          1           0       -2.842920    1.312361    0.478568
     22          1           0       -2.148744    1.250975   -1.139444
     23          1           0       -0.780376    2.320264    1.390050
     24          1           0       -1.378039    3.291016    0.044136
     25          1           0        1.116701    2.943801   -0.085388
     26          1           0        0.273468    2.263617   -1.481328
     27          1           0        2.787287    1.551582    0.668772
     28          1           0        3.342478   -0.571790    1.812024
     29          1           0        2.223323   -1.488274    0.803549
     30          1           0        3.662614   -0.883386   -1.451741
     31          1           0       -0.098118   -0.317353   -1.562548
     32          1           0        0.499525   -1.318843   -0.246231
 ---------------------------------------------------------------------

 SCF Done:  E(UB3LYP) =  -829.591422047     A.U. after   33 cycles
 SCF Done:  E(UB3LYP) =  -829.591422047     a.u. after    1 cycles

 The electronic state is 2-A.
 Alpha  occ. eigenvalues --  -88.74392 -10.10785 -10.07798 -10.07439 -10.06893
 Alpha  occ. eigenvalues --  -10.06868 -10.06853 -10.06758 -10.06718 -10.06433
 Alpha  occ. eigenvalues --  -10.06324 -10.05995  -7.83072  -5.79446  -5.79098
 Alpha  occ. eigenvalues --   -5.78453  -0.74974  -0.71051  -0.68894  -0.65221
 Alpha  occ. eigenvalues --   -0.64881  -0.58838  -0.58007  -0.53300  -0.50971
 Alpha  occ. eigenvalues --   -0.48753  -0.46259  -0.42436  -0.39275  -0.36721
 Alpha  occ. eigenvalues --   -0.35751  -0.35211  -0.34239  -0.33027  -0.31799
 Alpha  occ. eigenvalues --   -0.30698  -0.30028  -0.29533  -0.28473  -0.27684
 Alpha  occ. eigenvalues --   -0.26629  -0.25067  -0.24725  -0.24279  -0.23897
 Alpha  occ. eigenvalues --   -0.22886  -0.22355  -0.21148  -0.20094  -0.15252
 Alpha  occ. eigenvalues --   -0.13466   0.04371
 Alpha virt. eigenvalues --    0.06346   0.06779   0.07121   0.08271   0.08529
 Alpha virt. eigenvalues --    0.08741   0.09364   0.09873   0.09945   0.10505
 Alpha virt. eigenvalues --    0.11259   0.11420   0.12127   0.12540   0.12832

  Beta  occ. eigenvalues --  -88.74378 -10.10769 -10.07772 -10.07434 -10.06880
  Beta  occ. eigenvalues --  -10.06853 -10.06834 -10.06732 -10.06699 -10.06415
  Beta  occ. eigenvalues --  -10.06303 -10.05967  -7.83054  -5.79428  -5.79082
  Beta  occ. eigenvalues --   -5.78440  -0.74929  -0.71003  -0.68851  -0.65169
  Beta  occ. eigenvalues --   -0.64846  -0.58769  -0.57956  -0.53237  -0.50915
  Beta  occ. eigenvalues --   -0.48688  -0.46197  -0.42371  -0.39229  -0.36678
  Beta  occ. eigenvalues --   -0.35708  -0.35181  -0.34208  -0.32986  -0.31744
  Beta  occ. eigenvalues --   -0.30653  -0.29959  -0.29490  -0.28432  -0.27644
  Beta  occ. eigenvalues --   -0.26593  -0.25021  -0.24689  -0.24238  -0.23854
  Beta  occ. eigenvalues --   -0.22846  -0.22311  -0.21111  -0.20056  -0.15177
  Beta  occ. eigenvalues --   -0.13366
  Beta virt. eigenvalues --    0.06427   0.07069   0.07313   0.07659   0.08585
  Beta virt. eigenvalues --    0.08918   0.09112   0.09754   0.10108   0.10379
  Beta virt. eigenvalues --    0.10950   0.11562   0.11627   0.12351   0.12768

 Mulliken charges and spin densities:
               1          2
     1  C    0.785348  -1.354849
     2  C   -0.804130   0.583874
     3  C    0.695370  -1.131178
     4  C   -0.150823   0.639293
     5  C   -0.552689   0.322242
     6  C    0.832766  -1.323373
     7  C   -0.085342  -0.453732
     8  C    0.565455   0.717115
     9  C   -1.167377   0.981427
    10  C    0.549474  -0.685628
    11  S    0.214202  -0.369808
    12  C    0.250631  -1.940898
    13  H   -0.452442   0.598954
    14  H   -0.318626   0.448739
    15  H   -0.051446   0.179504
    16  H    0.065498   0.064113
    17  H   -0.250276   0.400830
    18  H   -0.273527   0.420062
    19  H    0.069797   0.044182
    20  H   -0.040849   0.208814
    21  H    0.114345   0.033352
    22  H   -0.011959   0.183210
    23  H    0.005462   0.126126
    24  H   -0.353910   0.528286
    25  H    0.028698   0.127149
    26  H   -0.142306   0.281495
    27  H   -0.148035   0.276350
    28  H   -0.129286   0.330901
    29  H   -0.146152   0.337434
    30  H   -0.256668   0.288507
    31  H   -0.341005   0.539619
    32  H    0.499806  -0.402112
 Sum of Mulliken charges =  -1.00000   1.00000

 Dipole moment (field-independent basis, Debye):
    X=              2.1957    Y=              0.1180    Z=              1.5649  Tot=              2.6989
 Quadrupole moment (field-independent basis, Debye-Ang):
   XX=           -180.9151   YY=           -131.2658   ZZ=           -114.2933
   XY=              2.7864   XZ=             -0.7765   YZ=              2.8569

 Summary of Natural Population Analysis:

                                       Natural Population
                Natural  -----------------------------------------------
    Atom  No    Charge         Core      Valence    Rydberg      Total
 -----------------------------------------------------------------------
      C    1   -0.28242      0.99966     2.27843    0.00432     3.28242
      C    2   -0.19197      0.99964     2.18400    0.00833     3.19197
      C    3   -0.18659      0.99961     2.17769    0.00929     3.18659
      C    4   -0.10143      0.99958     2.09290    0.00894     3.10143
      C    5   -0.19188      0.99960     2.18341    0.00886     3.19188
      C    6   -0.18367      0.99963     2.17547    0.00857     3.18367
      C    7   -0.19937      0.99959     2.19058    0.00920     3.19937
      C    8    0.01234      0.99948     1.97563    0.01254     2.98766
      C    9   -0.11024      0.99943     2.10089    0.00992     3.11024
      C   10   -0.24581      0.99956     2.23749    0.00876     3.24581
      S   11   -0.03482      4.99968     3.02033    0.01481     8.03482
      C   12   -0.20560      0.99957     2.19552    0.01051     3.20560
      H   13    0.09789      0.00000     0.40072    0.00139     0.40211
      H   14    0.09680      0.00000     0.40193    0.00127     0.40320
      H   15    0.09459      0.00000     0.40409    0.00132     0.40541
      H   16    0.09284      0.00000     0.40592    0.00124     0.40716
      H   17    0.09552      0.00000     0.40338    0.00110     0.40448
      H   18    0.09813      0.00000     0.40060    0.00128     0.40187
      H   19    0.09427      0.00000     0.40428    0.00144     0.40573
      H   20    0.09049      0.00000     0.40756    0.00195     0.40951
      H   21    0.10096      0.00000     0.39772    0.00132     0.39904
      H   22    0.09519      0.00000     0.40314    0.00167     0.40481
      H   23    0.09233      0.00000     0.40633    0.00134     0.40767
      H   24    0.09979      0.00000     0.39895    0.00126     0.40021
      H   25    0.10018      0.00000     0.39865    0.00117     0.39982
      H   26    0.10041      0.00000     0.39781    0.00179     0.39959
      H   27    0.09505      0.00000     0.40353    0.00142     0.40495
      H   28    0.10556      0.00000     0.39289    0.00155     0.39444
      H   29    0.10386      0.00000     0.39424    0.00190     0.39614
      H   30    0.06249      0.00000     0.43413    0.00338     0.43751
      H   31    0.10328      0.00000     0.39493    0.00179     0.39672
      H   32    0.10182      0.00000     0.39665    0.00153     0.39818
 =======================================================================
   * Total *    0.00000     15.99504    34.85980    0.14516    51.00000

 Normal termination of Gaussian 16 at Wed Dec  9 18:19:42 2020.
