 Gaussian 16, Revision A.03,

 -----------------------------------------------------------
 # opt freq B3LYP/6-31G(d) empiricaldispersion=gd3bj scf=xqc
 -----------------------------------------------------------

 ------------------------------
 CID_64004848_JID_5271_neutraal
 ------------------------------
 Symbolic Z-matrix:
 Charge =  0 Multiplicity = 1

 SCF Done:  E(RB3LYP) =  -1046.32749938     A.U. after   15 cycles
 SCF Done:  E(RB3LYP) =  -1046.33213123     A.U. after   13 cycles
 SCF Done:  E(RB3LYP) =  -1046.33315859     A.U. after   12 cycles
 SCF Done:  E(RB3LYP) =  -1046.33203647     A.U. after   13 cycles
 SCF Done:  E(RB3LYP) =  -1046.33482038     A.U. after   13 cycles
 SCF Done:  E(RB3LYP) =  -1046.33440436     A.U. after   12 cycles
 SCF Done:  E(RB3LYP) =  -1046.33571643     A.U. after   12 cycles
 SCF Done:  E(RB3LYP) =  -1046.33595021     A.U. after   12 cycles
 SCF Done:  E(RB3LYP) =  -1046.33608539     A.U. after   12 cycles
 SCF Done:  E(RB3LYP) =  -1046.33616997     A.U. after   11 cycles
 SCF Done:  E(RB3LYP) =  -1046.33631224     A.U. after   11 cycles
 SCF Done:  E(RB3LYP) =  -1046.33631304     A.U. after    8 cycles
 SCF Done:  E(RB3LYP) =  -1046.33631343     A.U. after    9 cycles
 SCF Done:  E(RB3LYP) =  -1046.33631350     A.U. after    8 cycles
 Optimization completed.
    -- Stationary point found.
 Normal termination of Gaussian 16 at Thu Dec 10 15:29:54 2020.

 --------------------------------------------------------------------
 #N Geom=AllCheck Guess=TCheck SCRF=Check GenChk RB3LYP/6-31G(d) Freq
 --------------------------------------------------------------------

 Structure from the checkpoint file:  "JID_5271.chk"
 ------------------------------
 CID_64004848_JID_5271_neutraal
 ------------------------------
 Charge =  0 Multiplicity = 1

 SCF Done:  E(RB3LYP) =  -1046.33631350     A.U. after    1 cycles

  Exact polarizability: 157.810   3.058 124.416 -19.506  14.285 108.796
 Approx polarizability: 209.806   3.973 208.981 -36.698  38.049 191.925

                      1                      2                      3
                      A                      A                      A
 Frequencies --     28.7701                46.9599                48.9774
 Red. masses --      4.5611                 5.4504                 3.8272
 Frc consts  --      0.0022                 0.0071                 0.0054
 IR Inten    --      1.8044                 0.1576                 0.4736

                      4                      5                      6
                      A                      A                      A
 Frequencies --    119.3103               141.4093               174.5945
 Red. masses --      5.1168                 5.1149                 5.2105
 Frc consts  --      0.0429                 0.0603                 0.0936
 IR Inten    --      0.7725                 1.6638                 1.3399

                      7                      8                      9
                      A                      A                      A
 Frequencies --    192.8734               198.3934               255.8520
 Red. masses --      2.6539                 5.2913                 4.9901
 Frc consts  --      0.0582                 0.1227                 0.1925
 IR Inten    --      0.9813                 1.8438                 1.3799

                     10                     11                     12
                      A                      A                      A
 Frequencies --    264.9260               288.3412               301.1628
 Red. masses --      1.1543                 4.2085                 1.0706
 Frc consts  --      0.0477                 0.2062                 0.0572
 IR Inten    --      1.3633                 6.5903                 0.4439

                     13                     14                     15
                      A                      A                      A
 Frequencies --    308.1451               354.2817               364.1088
 Red. masses --      5.1889                 4.3695                 2.8104
 Frc consts  --      0.2903                 0.3231                 0.2195
 IR Inten    --      2.1017                 2.4721                 1.0282

                     16                     17                     18
                      A                      A                      A
 Frequencies --    396.5903               410.2234               427.3826
 Red. masses --      4.1613                 3.9609                 3.4424
 Frc consts  --      0.3856                 0.3927                 0.3705
 IR Inten    --      2.0975                 2.6693                 3.2320

                     19                     20                     21
                      A                      A                      A
 Frequencies --    468.8861               512.9218               552.1287
 Red. masses --      4.4308                 2.1887                 8.3928
 Frc consts  --      0.5739                 0.3393                 1.5074
 IR Inten    --      6.7340                57.2497                33.9600

                     22                     23                     24
                      A                      A                      A
 Frequencies --    556.8218               587.7353               608.5813
 Red. masses --      4.3170                 8.4697                 3.5136
 Frc consts  --      0.7886                 1.7238                 0.7667
 IR Inten    --      3.9557               111.6203                31.8028

                     25                     26                     27
                      A                      A                      A
 Frequencies --    620.0095               632.6364               652.4355
 Red. masses --      1.2429                 7.5809                 1.2293
 Frc consts  --      0.2815                 1.7876                 0.3083
 IR Inten    --     55.8976                25.0692                40.2941

                     28                     29                     30
                      A                      A                      A
 Frequencies --    716.5965               745.5478               756.2672
 Red. masses --      2.3244                 5.9044                 3.5020
 Frc consts  --      0.7032                 1.9336                 1.1801
 IR Inten    --     30.3056                 6.4776                 5.2543

                     31                     32                     33
                      A                      A                      A
 Frequencies --    822.8598               863.5979               936.5036
 Red. masses --      1.4907                 3.2375                 2.6604
 Frc consts  --      0.5947                 1.4226                 1.3747
 IR Inten    --     10.9717               109.7716                99.4130

                     34                     35                     36
                      A                      A                      A
 Frequencies --    948.1829               952.8479               985.6989
 Red. masses --      1.3723                 1.5979                 1.3857
 Frc consts  --      0.7269                 0.8548                 0.7933
 IR Inten    --      3.4890                 1.3849                 1.3918

                     37                     38                     39
                      A                      A                      A
 Frequencies --   1007.0468              1008.1602              1037.1900
 Red. masses --      1.4110                 2.1142                 4.8382
 Frc consts  --      0.8431                 1.2660                 3.0666
 IR Inten    --      5.7168                34.4104                28.0000

                     40                     41                     42
                      A                      A                      A
 Frequencies --   1053.0623              1067.9462              1100.0616
 Red. masses --      1.3030                 3.5801                 4.6801
 Frc consts  --      0.8513                 2.4057                 3.3369
 IR Inten    --      0.9082                 3.6088                94.0555

                     43                     44                     45
                      A                      A                      A
 Frequencies --   1144.7321              1154.9331              1182.3515
 Red. masses --      2.0718                 2.0498                 2.7555
 Frc consts  --      1.5996                 1.6110                 2.2695
 IR Inten    --     50.2861                25.0931                55.5371

                     46                     47                     48
                      A                      A                      A
 Frequencies --   1219.5982              1236.1578              1260.9423
 Red. masses --      2.4079                 1.4369                 2.6820
 Frc consts  --      2.1102                 1.2937                 2.5124
 IR Inten    --     67.2716                 7.4766                24.9930

                     49                     50                     51
                      A                      A                      A
 Frequencies --   1307.6929              1318.5713              1367.5666
 Red. masses --      8.0537                 8.9399                 1.3012
 Frc consts  --      8.1144                 9.1578                 1.4338
 IR Inten    --     37.5416               126.1067                 3.0991

                     52                     53                     54
                      A                      A                      A
 Frequencies --   1421.6947              1430.0408              1450.6649
 Red. masses --      1.2153                 1.3112                 1.2501
 Frc consts  --      1.4473                 1.5799                 1.5500
 IR Inten    --     34.6333                48.0600                 2.3534

                     55                     56                     57
                      A                      A                      A
 Frequencies --   1463.9923              1511.5062              1514.2066
 Red. masses --      2.1871                 1.0482                 2.0034
 Frc consts  --      2.7618                 1.4110                 2.7064
 IR Inten    --     30.2935                 1.0945                 6.2089

                     58                     59                     60
                      A                      A                      A
 Frequencies --   1524.6216              1534.4165              1540.7504
 Red. masses --      1.0556                 1.0593                 1.0489
 Frc consts  --      1.4456                 1.4694                 1.4671
 IR Inten    --      2.5669                 2.3803                 9.8339

                     61                     62                     63
                      A                      A                      A
 Frequencies --   1629.9774              1632.2886              2243.4628
 Red. masses --      5.3403                 5.7440                 5.9369
 Frc consts  --      8.3595                 9.0170                17.6054
 IR Inten    --     27.7119                10.1056                 0.6701

                     64                     65                     66
                      A                      A                      A
 Frequencies --   3067.0365              3080.6151              3135.6676
 Red. masses --      1.0356                 1.0340                 1.1031
 Frc consts  --      5.7394                 5.7818                 6.3903
 IR Inten    --     18.7079                 7.2909                18.3235

                     67                     68                     69
                      A                      A                      A
 Frequencies --   3156.9967              3165.4274              3170.7516
 Red. masses --      1.1033                 1.1046                 1.1026
 Frc consts  --      6.4789                 6.5208                 6.5313
 IR Inten    --     19.3452                 7.1525                 7.1050

                     70                     71                     72
                      A                      A                      A
 Frequencies --   3184.9325              3208.4087              3216.9671
 Red. masses --      1.0894                 1.0913                 1.0919
 Frc consts  --      6.5110                 6.6185                 6.6577
 IR Inten    --     18.4958                 4.2419                10.2567

                     73                     74                     75
                      A                      A                      A
 Frequencies --   3234.5960              3495.2616              3537.6734
 Red. masses --      1.0948                 1.1614                 1.0755
 Frc consts  --      6.7487                 8.3600                 7.9304
 IR Inten    --      3.9413                62.9723                38.8809

 - Thermochemistry -
 -------------------
 Temperature   298.150 Kelvin.  Pressure   1.00000 Atm.
 Atom     1 has atomic number  6 and mass  12.00000

 Molecular mass:   224.06195 amu.
 Principal axes and moments of inertia in atomic units:
                           1         2         3
     Eigenvalues --  2065.702134524.591405240.56250
           X            1.00000   0.00181  -0.00113
           Y           -0.00179   0.99985   0.01704
           Z            0.00116  -0.01703   0.99985
 This molecule is an asymmetric top.
 Rotational symmetry number  1.
 Warning -- assumption of classical behavior for rotation
           may cause significant error
 Rotational temperatures (Kelvin)      0.04193     0.01914     0.01653
 Rotational constants (GHZ):           0.87367     0.39887     0.34438
 Zero-point vibrational energy     551840.5 (Joules/Mol)
                                  131.89305 (Kcal/Mol)
 Warning -- explicit consideration of  25 degrees of freedom as
           vibrations may cause significant error
 Vibrational temperatures:     41.39    67.56    70.47   171.66   203.46
          (Kelvin)            251.20   277.50   285.44   368.11   381.17
                              414.86   433.31   443.35   509.73   523.87
                              570.60   590.22   614.91   674.62   737.98
                              794.39   801.14   845.62   875.61   892.06
                              910.22   938.71  1031.02  1072.68  1088.10
                             1183.91  1242.52  1347.42  1364.22  1370.94
                             1418.20  1448.92  1450.52  1492.29  1515.12
                             1536.54  1582.74  1647.01  1661.69  1701.14
                             1754.73  1778.56  1814.21  1881.48  1897.13
                             1967.62  2045.50  2057.51  2087.18  2106.36
                             2174.72  2178.61  2193.59  2207.68  2216.80
                             2345.17  2348.50  3227.84  4412.78  4432.32
                             4511.53  4542.21  4554.34  4562.00  4582.41
                             4616.18  4628.50  4653.86  5028.90  5089.92

 Zero-point correction=                           0.210185 (Hartree/Particle)
 Thermal correction to Energy=                    0.225034
 Thermal correction to Enthalpy=                  0.225978
 Thermal correction to Gibbs Free Energy=         0.167839
 Sum of electronic and zero-point Energies=          -1046.126129
 Sum of electronic and thermal Energies=             -1046.111279
 Sum of electronic and thermal Enthalpies=           -1046.110335
 Sum of electronic and thermal Free Energies=        -1046.168475

                     E (Thermal)             CV                S
                      KCal/Mol        Cal/Mol-Kelvin    Cal/Mol-Kelvin
 Total                  141.211             56.612            122.366
 Electronic               0.000              0.000              0.000
 Translational            0.889              2.981             42.123
 Rotational               0.889              2.981             32.260
 Vibrational            139.434             50.650             47.983
 Vibration     1          0.593              1.984              5.912
 Vibration     2          0.595              1.979              4.941
 Vibration     3          0.595              1.978              4.858
 Vibration     4          0.609              1.933              3.112
 Vibration     5          0.615              1.912              2.785
 Vibration     6          0.627              1.874              2.385
 Vibration     7          0.635              1.850              2.200
 Vibration     8          0.637              1.842              2.148
 Vibration     9          0.666              1.753              1.690
 Vibration    10          0.671              1.737              1.629
 Vibration    11          0.685              1.695              1.484
 Vibration    12          0.693              1.671              1.410
 Vibration    13          0.698              1.658              1.372
 Vibration    14          0.730              1.566              1.147
 Vibration    15          0.738              1.546              1.105
 Vibration    16          0.763              1.477              0.975
 Vibration    17          0.774              1.448              0.926
 Vibration    18          0.789              1.411              0.867
 Vibration    19          0.826              1.319              0.741
 Vibration    20          0.868              1.221              0.627
 Vibration    21          0.907              1.135              0.540
 Vibration    22          0.912              1.125              0.530
 Vibration    23          0.945              1.058              0.471
 Vibration    24          0.967              1.014              0.435
 Vibration    25          0.980              0.990              0.416

 Optimization completed.
    -- Stationary point found.
 Normal termination of Gaussian 16 at Thu Dec 10 15:39:16 2020.

 ----------------------------------------------------------------------
 # B3LYP/6-311++G(d,p) empiricaldispersion=gd3bj scf=xqc pop=npa geom=c
 heck
 ----------------------------------------------------------------------

 --------------------------------------
 CID_64004848_JID_5271_Energie_neutraal
 --------------------------------------
 Structure from the checkpoint file:  "JID_5271.chk"
 Charge =  0 Multiplicity = 1

 SCF Done:  E(RB3LYP) =  -1046.54702180     A.U. after   16 cycles
 Normal termination of Gaussian 16 at Thu Dec 10 15:43:53 2020.

 ----------------------------------------------------------------------
 # B3LYP/6-311++G(d,p) empiricaldispersion=gd3bj scf=xqc pop=npa geom=c
 heck
 ----------------------------------------------------------------------

 ------------------------------------
 CID_64004848_JID_5271_Energie_kation
 ------------------------------------
 Structure from the checkpoint file:  "JID_5271.chk"
 Charge =  1 Multiplicity = 2

 SCF Done:  E(UB3LYP) =  -1046.20664459     A.U. after   33 cycles
 SCF Done:  E(UB3LYP) =  -1046.20664459     a.u. after    1 cycles
 Normal termination of Gaussian 16 at Thu Dec 10 15:57:07 2020.
 Gaussian 16:  ES64L-G16RevA.03 25-Dec-2016

 ----------------------------------------------------------------------
 # B3LYP/6-311++G(d,p) empiricaldispersion=gd3bj scf=xqc pop=npa geom=c
 heck
 ----------------------------------------------------------------------

 -----------------------------------
 CID_64004848_JID_5271_Energie_anion
 -----------------------------------
 Structure from the checkpoint file:  "JID_5271.chk"
 Charge = -1 Multiplicity = 2

                         Standard orientation:
 ---------------------------------------------------------------------
 Center     Atomic      Atomic             Coordinates (Angstroms)
 Number     Number       Type             X           Y           Z
 ---------------------------------------------------------------------
      1          6           0        1.243636   -0.929963    1.535907
      2          6           0        2.107252   -0.346041    0.402733
      3          6           0        3.050438    0.751960    0.936190
      4          6           0        2.901959   -1.421127   -0.210386
      5          6           0        3.578639   -2.286868   -0.708216
      6          7           0        1.230742    0.159838   -0.697513
      7         16           0       -0.007442    1.268582   -0.446601
      8          8           0        0.178358    2.060121    0.777232
      9          8           0       -0.167927    1.929067   -1.745032
     10          6           0       -1.411416    0.201214   -0.148786
     11          6           0       -1.648163   -0.911563   -0.960370
     12          7           0       -2.711118   -1.703649   -0.801360
     13          6           0       -3.572960   -1.392083    0.177397
     14          6           0       -3.418226   -0.300728    1.033070
     15          6           0       -2.306820    0.522297    0.867641
     16          1           0        1.898043   -1.389319    2.280874
     17          1           0        0.564461   -1.692912    1.148354
     18          1           0        0.666355   -0.139493    2.020959
     19          1           0        3.719999    0.334519    1.694397
     20          1           0        3.663660    1.153766    0.123424
     21          1           0        2.463615    1.561646    1.374033
     22          1           0        4.168489   -3.059500   -1.146776
     23          1           0        1.752415    0.459437   -1.518630
     24          1           0       -0.945403   -1.176912   -1.745074
     25          1           0       -4.429848   -2.054279    0.282138
     26          1           0       -4.149015   -0.103660    1.810678
     27          1           0       -2.120546    1.379987    1.504664
 ---------------------------------------------------------------------

 SCF Done:  E(UB3LYP) =  -1046.55218306     A.U. after   33 cycles
 SCF Done:  E(UB3LYP) =  -1046.55218306     a.u. after    1 cycles

 The electronic state is 2-A.
 Alpha  occ. eigenvalues --  -88.93946 -18.99680 -18.99321 -14.23201 -14.16490
 Alpha  occ. eigenvalues --  -10.15614 -10.08686 -10.07789 -10.07691 -10.07346
 Alpha  occ. eigenvalues --  -10.06863 -10.05334 -10.05048 -10.04797 -10.04313
 Alpha  occ. eigenvalues --   -8.00054  -5.96400  -5.96311  -5.96088  -0.99820
 Alpha  occ. eigenvalues --   -0.88870  -0.82800  -0.80410  -0.70972  -0.67645
 Alpha  occ. eigenvalues --   -0.64922  -0.63630  -0.60362  -0.56347  -0.52451
 Alpha  occ. eigenvalues --   -0.49829  -0.47183  -0.45007  -0.42051  -0.41112
 Alpha  occ. eigenvalues --   -0.38912  -0.36842  -0.36003  -0.35039  -0.34030
 Alpha  occ. eigenvalues --   -0.32974  -0.31491  -0.30428  -0.29675  -0.28681
 Alpha  occ. eigenvalues --   -0.27047  -0.26972  -0.26618  -0.24813  -0.23224
 Alpha  occ. eigenvalues --   -0.21039  -0.20156  -0.19726  -0.18951  -0.18558
 Alpha  occ. eigenvalues --   -0.17143  -0.15911  -0.13499  -0.12283   0.04547
 Alpha virt. eigenvalues --    0.05953   0.07887   0.08878   0.09426   0.10054
 Alpha virt. eigenvalues --    0.10360   0.10612   0.10752   0.10875   0.12134
 Alpha virt. eigenvalues --    0.12335   0.13347   0.14081   0.14452   0.15085

  Beta  occ. eigenvalues --  -88.93938 -18.99652 -18.99250 -14.23177 -14.16331
  Beta  occ. eigenvalues --  -10.15610 -10.08689 -10.07761 -10.07707 -10.07339
  Beta  occ. eigenvalues --  -10.06863 -10.05052 -10.04924 -10.04610 -10.03982
  Beta  occ. eigenvalues --   -8.00045  -5.96385  -5.96281  -5.96090  -0.99689
  Beta  occ. eigenvalues --   -0.88752  -0.82742  -0.79965  -0.70902  -0.67051
  Beta  occ. eigenvalues --   -0.64895  -0.63208  -0.60339  -0.56107  -0.52159
  Beta  occ. eigenvalues --   -0.49599  -0.46753  -0.44940  -0.41958  -0.40995
  Beta  occ. eigenvalues --   -0.38760  -0.36740  -0.35812  -0.34778  -0.33939
  Beta  occ. eigenvalues --   -0.32873  -0.31415  -0.30395  -0.29597  -0.28661
  Beta  occ. eigenvalues --   -0.26837  -0.26748  -0.25650  -0.24594  -0.23103
  Beta  occ. eigenvalues --   -0.20884  -0.20068  -0.19491  -0.18886  -0.18418
  Beta  occ. eigenvalues --   -0.16790  -0.14533  -0.12124  -0.12035
  Beta virt. eigenvalues --    0.06658   0.08092   0.08810   0.09400   0.09984
  Beta virt. eigenvalues --    0.10324   0.10527   0.10631   0.10779   0.10978
  Beta virt. eigenvalues --    0.12090   0.12223   0.13214   0.14018   0.14439

 Mulliken charges and spin densities:
               1          2
     1  C   -0.606692   0.014132
     2  C   -0.692135   0.579711
     3  C   -0.346211  -0.281769
     4  C    1.819001  -1.474564
     5  C   -0.688217   0.294370
     6  N   -0.159516  -0.068197
     7  S    0.452315   0.134236
     8  O   -0.249517  -0.005104
     9  O   -0.114272  -0.004159
    10  C   -0.361751   0.120408
    11  C   -0.450347  -0.029239
    12  N   -0.064917   0.054815
    13  C   -0.493107   0.325726
    14  C   -0.203870  -0.075334
    15  C    0.136372   0.337621
    16  H    0.083874   0.068417
    17  H    0.239221  -0.022815
    18  H    0.187656  -0.006169
    19  H    0.087513   0.049552
    20  H    0.084379   0.072936
    21  H    0.190705  -0.009186
    22  H   -0.771248   0.940316
    23  H    0.265868   0.021444
    24  H    0.196974   0.002031
    25  H    0.122087  -0.027347
    26  H    0.129682   0.006922
    27  H    0.206153  -0.018755
 Sum of Mulliken charges =  -1.00000   1.00000

 Dipole moment (field-independent basis, Debye):
    X=              2.1174    Y=              1.7274    Z=              3.0915  Tot=              4.1261
 Quadrupole moment (field-independent basis, Debye-Ang):
   XX=           -143.8452   YY=           -134.5827   ZZ=           -113.3113
   XY=              6.1532   XZ=             -2.3496   YZ=             -2.4700

 Summary of Natural Population Analysis:

                                       Natural Population
                Natural  -----------------------------------------------
    Atom  No    Charge         Core      Valence    Rydberg      Total
 -----------------------------------------------------------------------
      C    1   -0.28621      0.99963     2.27868    0.00790     3.28621
      C    2    0.02190      0.99952     1.96662    0.01196     2.97810
      C    3   -0.28693      0.99963     2.27998    0.00732     3.28693
      C    4   -0.00087      0.99936     1.99031    0.01121     3.00087
      C    5   -0.11201      0.99927     2.10829    0.00444     3.11201
      N    6   -0.43968      0.99973     2.92613    0.01383     3.93968
      S    7    1.11452      4.99918     1.78587    0.10043     6.88548
      O    8   -0.47549      0.99991     3.46956    0.00603     4.47549
      O    9   -0.46389      0.99991     3.45888    0.00510     4.46389
      C   10   -0.12101      0.99935     2.10825    0.01341     3.12101
      C   11    0.03174      0.99953     1.95457    0.01417     2.96826
      N   12   -0.22457      0.99972     2.71267    0.01218     3.72457
      C   13    0.10079      0.99961     1.88425    0.01535     2.89921
      C   14   -0.15228      0.99957     2.14394    0.00877     3.15228
      C   15   -0.02372      0.99951     2.01471    0.00949     3.02372
      H   16    0.10014      0.00000     0.39920    0.00066     0.39986
      H   17    0.11285      0.00000     0.38614    0.00101     0.38715
      H   18    0.11414      0.00000     0.38497    0.00089     0.38586
      H   19    0.09909      0.00000     0.40021    0.00069     0.40091
      H   20    0.09964      0.00000     0.39939    0.00097     0.40036
      H   21    0.11640      0.00000     0.38260    0.00100     0.38360
      H   22    0.11210      0.00000     0.38562    0.00227     0.38790
      H   23    0.19866      0.00000     0.29907    0.00227     0.30134
      H   24    0.09097      0.00000     0.40664    0.00239     0.40903
      H   25    0.07511      0.00000     0.42366    0.00123     0.42489
      H   26    0.09457      0.00000     0.40424    0.00119     0.40543
      H   27    0.10401      0.00000     0.39493    0.00106     0.39599
 =======================================================================
   * Total *    0.00000     18.99340    39.74938    0.25722    59.00000

 Normal termination of Gaussian 16 at Thu Dec 10 16:10:38 2020.
