 Gaussian 16, Revision A.03,

 -----------------------------------------------------------
 # opt freq B3LYP/6-31G(d) empiricaldispersion=gd3bj scf=xqc
 -----------------------------------------------------------

 -----------------------------
 CID_91110849_JID_440_neutraal
 -----------------------------
 Symbolic Z-matrix:
 Charge =  0 Multiplicity = 1

 SCF Done:  E(RB3LYP) =  -822.590313474     A.U. after   14 cycles
 SCF Done:  E(RB3LYP) =  -822.593773721     A.U. after   13 cycles
 SCF Done:  E(RB3LYP) =  -822.594201871     A.U. after   12 cycles
 SCF Done:  E(RB3LYP) =  -822.594265953     A.U. after   11 cycles
 SCF Done:  E(RB3LYP) =  -822.594456563     A.U. after   10 cycles
 SCF Done:  E(RB3LYP) =  -822.594484568     A.U. after   10 cycles
 SCF Done:  E(RB3LYP) =  -822.594506036     A.U. after    9 cycles
 SCF Done:  E(RB3LYP) =  -822.594527585     A.U. after   10 cycles
 SCF Done:  E(RB3LYP) =  -822.594548346     A.U. after   10 cycles
 SCF Done:  E(RB3LYP) =  -822.594575659     A.U. after   10 cycles
 SCF Done:  E(RB3LYP) =  -822.594593513     A.U. after    9 cycles
 SCF Done:  E(RB3LYP) =  -822.594595844     A.U. after    9 cycles
 SCF Done:  E(RB3LYP) =  -822.594595995     A.U. after    7 cycles
 Optimization completed.
    -- Stationary point found.
 Normal termination of Gaussian 16 at Tue Dec  8 10:35:14 2020.

 --------------------------------------------------------------------
 #N Geom=AllCheck Guess=TCheck SCRF=Check GenChk RB3LYP/6-31G(d) Freq
 --------------------------------------------------------------------

 Structure from the checkpoint file:  "JID_440.chk"
 -----------------------------
 CID_91110849_JID_440_neutraal
 -----------------------------
 Charge =  0 Multiplicity = 1

 SCF Done:  E(RB3LYP) =  -822.594595995     A.U. after    1 cycles

  Exact polarizability: 114.739  -4.852  96.603  -2.423   6.382  74.117
 Approx polarizability: 150.038 -23.143 153.083  -8.232  16.437 111.486

                      1                      2                      3
                      A                      A                      A
 Frequencies --     40.1513                55.2455                82.1078
 Red. masses --      5.4093                 3.1717                 1.0901
 Frc consts  --      0.0051                 0.0057                 0.0043
 IR Inten    --      4.2433                 0.1440                 0.3366

                      4                      5                      6
                      A                      A                      A
 Frequencies --    111.5911               120.1526               186.6046
 Red. masses --      4.2336                 3.2866                 3.6511
 Frc consts  --      0.0311                 0.0280                 0.0749
 IR Inten    --      2.4085                 0.8258                 0.9396

                      7                      8                      9
                      A                      A                      A
 Frequencies --    200.4937               261.9420               292.6563
 Red. masses --      6.4240                 2.9104                 2.5053
 Frc consts  --      0.1521                 0.1177                 0.1264
 IR Inten    --      3.8343                 1.7917                 1.2133

                     10                     11                     12
                      A                      A                      A
 Frequencies --    360.7001               379.9942               417.0153
 Red. masses --      2.2364                 2.1259                 1.3530
 Frc consts  --      0.1714                 0.1809                 0.1386
 IR Inten    --     11.1678                 1.2309                64.2941

                     13                     14                     15
                      A                      A                      A
 Frequencies --    449.4549               510.7186               529.1053
 Red. masses --      2.2620                 4.8923                 3.4674
 Frc consts  --      0.2692                 0.7518                 0.5719
 IR Inten    --     34.1526                 4.0730                 0.6988

                     16                     17                     18
                      A                      A                      A
 Frequencies --    565.9094               732.6436               790.3805
 Red. masses --      4.1107                 5.2193                 1.8959
 Frc consts  --      0.7756                 1.6506                 0.6978
 IR Inten    --     10.5652                 2.7044                 3.3848

                     19                     20                     21
                      A                      A                      A
 Frequencies --    795.9560               916.5193               937.0536
 Red. masses --      1.4053                 1.7232                 2.1106
 Frc consts  --      0.5246                 0.8528                 1.0919
 IR Inten    --      0.5846                 4.1642                15.5110

                     22                     23                     24
                      A                      A                      A
 Frequencies --    951.3401               969.1553               979.0733
 Red. masses --      1.8822                 1.6240                 3.0650
 Frc consts  --      1.0036                 0.8987                 1.7310
 IR Inten    --     10.2609                20.2704                 5.5480

                     25                     26                     27
                      A                      A                      A
 Frequencies --   1014.2415              1045.7891              1056.2187
 Red. masses --      1.6815                 1.5382                 1.6528
 Frc consts  --      1.0191                 0.9912                 1.0863
 IR Inten    --      9.5200                 4.2778                58.5542

                     28                     29                     30
                      A                      A                      A
 Frequencies --   1070.0223              1074.0166              1086.2618
 Red. masses --      1.9095                 2.1607                 2.5912
 Frc consts  --      1.2881                 1.4685                 1.8015
 IR Inten    --     47.9996                38.0492                87.2135

                     31                     32                     33
                      A                      A                      A
 Frequencies --   1094.2455              1199.0685              1222.4643
 Red. masses --      1.8440                 1.3196                 1.2009
 Frc consts  --      1.3009                 1.1179                 1.0574
 IR Inten    --      6.5573                 0.7597                45.7413

                     34                     35                     36
                      A                      A                      A
 Frequencies --   1248.3489              1253.6149              1307.1951
 Red. masses --      4.2261                 1.3344                 3.2321
 Frc consts  --      3.8803                 1.2355                 3.2540
 IR Inten    --    164.0627                 9.8727               480.4507

                     37                     38                     39
                      A                      A                      A
 Frequencies --   1355.1288              1369.6664              1392.7201
 Red. masses --      1.8190                 1.8780                 1.3805
 Frc consts  --      1.9680                 2.0757                 1.5776
 IR Inten    --     60.2604                 0.8193                 2.8328

                     40                     41                     42
                      A                      A                      A
 Frequencies --   1422.2337              1437.9046              1466.9710
 Red. masses --      1.2862                 1.7856                 1.2705
 Frc consts  --      1.5329                 2.1752                 1.6109
 IR Inten    --     12.1225                 5.6472                70.0363

                     43                     44                     45
                      A                      A                      A
 Frequencies --   1499.2477              1504.6144              1506.6693
 Red. masses --      1.0899                 1.0455                 1.0811
 Frc consts  --      1.4433                 1.3945                 1.4459
 IR Inten    --      6.8332                10.3810                 1.6942

                     46                     47                     48
                      A                      A                      A
 Frequencies --   1518.4835              1530.9536              1546.1727
 Red. masses --      1.0951                 1.2176                 1.1989
 Frc consts  --      1.4878                 1.6814                 1.6887
 IR Inten    --      5.9516                 0.6158                 0.8136

                     49                     50                     51
                      A                      A                      A
 Frequencies --   2978.3297              3053.4687              3072.2950
 Red. masses --      1.0725                 1.0405                 1.0583
 Frc consts  --      5.6053                 5.7160                 5.8853
 IR Inten    --     74.6337                 5.2933                 8.8792

                     52                     53                     54
                      A                      A                      A
 Frequencies --   3095.4283              3110.4947              3125.6503
 Red. masses --      1.0916                 1.0995                 1.1080
 Frc consts  --      6.1622                 6.2676                 6.3776
 IR Inten    --     38.2362                 6.2783                13.2075

                     55                     56                     57
                      A                      A                      A
 Frequencies --   3148.5177              3154.6087              3193.9291
 Red. masses --      1.0529                 1.0575                 1.0996
 Frc consts  --      6.1495                 6.2005                 6.6087
 IR Inten    --     15.8702                10.1618                 3.3077

                     58                     59                     60
                      A                      A                      A
 Frequencies --   3224.0047              3238.6094              3739.1276
 Red. masses --      1.1191                 1.1165                 1.0653
 Frc consts  --      6.8537                 6.8995                 8.7750
 IR Inten    --      2.0116                14.1065                92.5107

 - Thermochemistry -
 -------------------
 Temperature   298.150 Kelvin.  Pressure   1.00000 Atm.
 Atom     1 has atomic number  6 and mass  12.00000

 Molecular mass:   160.05580 amu.
 Principal axes and moments of inertia in atomic units:
                           1         2         3
     Eigenvalues --   966.819012771.332863348.61477
           X            0.99914   0.04082   0.00749
           Y           -0.04085   0.99916   0.00392
           Z           -0.00732  -0.00422   0.99996
 This molecule is an asymmetric top.
 Rotational symmetry number  1.
 Warning -- assumption of classical behavior for rotation
           may cause significant error
 Rotational temperatures (Kelvin)      0.08959     0.03125     0.02587
 Rotational constants (GHZ):           1.86668     0.65122     0.53895
 Zero-point vibrational energy     484443.8 (Joules/Mol)
                                  115.78485 (Kcal/Mol)
 Warning -- explicit consideration of  16 degrees of freedom as
           vibrations may cause significant error
 Vibrational temperatures:     57.77    79.49   118.13   160.55   172.87
          (Kelvin)            268.48   288.47   376.88   421.07   518.97
                              546.73   599.99   646.67   734.81   761.26
                              814.22  1054.11  1137.18  1145.20  1318.67
                             1348.21  1368.77  1394.40  1408.67  1459.27
                             1504.66  1519.66  1539.52  1545.27  1562.89
                             1574.38  1725.19  1758.85  1796.10  1803.67
                             1880.76  1949.73  1970.64  2003.81  2046.28
                             2068.82  2110.64  2157.08  2164.80  2167.76
                             2184.76  2202.70  2224.60  4285.15  4393.26
                             4420.35  4453.63  4475.31  4497.11  4530.01
                             4538.78  4595.35  4638.62  4659.64  5379.77

 Zero-point correction=                           0.184515 (Hartree/Particle)
 Thermal correction to Energy=                    0.195912
 Thermal correction to Enthalpy=                  0.196856
 Thermal correction to Gibbs Free Energy=         0.146038
 Sum of electronic and zero-point Energies=           -822.410081
 Sum of electronic and thermal Energies=              -822.398684
 Sum of electronic and thermal Enthalpies=            -822.397740
 Sum of electronic and thermal Free Energies=         -822.448558

                     E (Thermal)             CV                S
                      KCal/Mol        Cal/Mol-Kelvin    Cal/Mol-Kelvin
 Total                  122.937             40.660            106.955
 Electronic               0.000              0.000              0.000
 Translational            0.889              2.981             41.120
 Rotational               0.889              2.981             30.574
 Vibrational            121.159             34.698             35.261
 Vibration     1          0.594              1.981              5.252
 Vibration     2          0.596              1.975              4.620
 Vibration     3          0.600              1.961              3.840
 Vibration     4          0.607              1.940              3.241
 Vibration     5          0.609              1.932              3.098
 Vibration     6          0.632              1.858              2.261
 Vibration     7          0.638              1.839              2.129
 Vibration     8          0.669              1.742              1.649
 Vibration     9          0.688              1.687              1.459
 Vibration    10          0.735              1.553              1.119
 Vibration    11          0.750              1.513              1.039
 Vibration    12          0.780              1.433              0.902
 Vibration    13          0.808              1.362              0.797
 Vibration    14          0.866              1.226              0.632
 Vibration    15          0.884              1.186              0.589
 Vibration    16          0.922              1.105              0.512

 Optimization completed.
    -- Stationary point found.
 Normal termination of Gaussian 16 at Tue Dec  8 10:39:49 2020.

 ----------------------------------------------------------------------
 # B3LYP/6-311++G(d,p) empiricaldispersion=gd3bj scf=xqc pop=npa geom=c
 heck
 ----------------------------------------------------------------------

 -------------------------------------
 CID_91110849_JID_440_Energie_neutraal
 -------------------------------------
 Structure from the checkpoint file:  "JID_440.chk"
 Charge =  0 Multiplicity = 1

 SCF Done:  E(RB3LYP) =  -822.753389530     A.U. after   14 cycles
 Normal termination of Gaussian 16 at Tue Dec  8 10:44:15 2020.

 ----------------------------------------------------------------------
 # B3LYP/6-311++G(d,p) empiricaldispersion=gd3bj scf=xqc pop=npa geom=c
 heck
 ----------------------------------------------------------------------

 -----------------------------------
 CID_91110849_JID_440_Energie_kation
 -----------------------------------
 Structure from the checkpoint file:  "JID_440.chk"
 Charge =  1 Multiplicity = 2

 SCF Done:  E(UB3LYP) =  -822.433790789     A.U. after   25 cycles
 Normal termination of Gaussian 16 at Tue Dec  8 10:48:31 2020.
 Gaussian 16:  ES64L-G16RevA.03 25-Dec-2016

 ----------------------------------------------------------------------
 # B3LYP/6-311++G(d,p) empiricaldispersion=gd3bj scf=xqc pop=npa geom=c
 heck
 ----------------------------------------------------------------------

 ----------------------------------
 CID_91110849_JID_440_Energie_anion
 ----------------------------------
 Structure from the checkpoint file:  "JID_440.chk"
 Charge = -1 Multiplicity = 2

                         Standard orientation:
 ---------------------------------------------------------------------
 Center     Atomic      Atomic             Coordinates (Angstroms)
 Number     Number       Type             X           Y           Z
 ---------------------------------------------------------------------
      1          6           0        2.535042    1.541689    0.611617
      2          6           0        1.923221    0.249871    0.141109
      3         16           0        2.763557   -1.082114   -0.334391
      4          8           0        0.588377    0.351392    0.163322
      5          6           0       -0.230523   -0.765322   -0.286348
      6          6           0       -1.671838   -0.376578   -0.107582
      7          6           0       -2.652781   -1.516827    0.059610
      8          6           0       -2.315954   -0.634047    1.232364
      9          6           0       -2.111794    0.860846   -0.872346
     10          8           0       -1.688434    2.072957   -0.265408
     11          1           0        2.277127    2.346544   -0.088176
     12          1           0        3.618391    1.453926    0.676498
     13          1           0        2.122777    1.814942    1.589876
     14          1           0        0.022599   -0.958475   -1.334358
     15          1           0        0.042366   -1.649111    0.296983
     16          1           0       -3.627400   -1.411106   -0.408200
     17          1           0       -2.265717   -2.532344    0.050000
     18          1           0       -1.699425   -1.047953    2.025562
     19          1           0       -3.053862    0.087266    1.569761
     20          1           0       -1.754129    0.789837   -1.914270
     21          1           0       -3.204899    0.907242   -0.907103
     22          1           0       -0.746518    1.960463   -0.060176
 ---------------------------------------------------------------------

 SCF Done:  E(UB3LYP) =  -822.751372208     A.U. after   33 cycles
 SCF Done:  E(UB3LYP) =  -822.751372208     a.u. after    1 cycles

 The electronic state is 2-A.
 Alpha  occ. eigenvalues --  -88.64054 -19.02577 -19.00371 -10.10918 -10.10614
 Alpha  occ. eigenvalues --  -10.08801 -10.08105 -10.07454 -10.07060 -10.03907
 Alpha  occ. eigenvalues --   -7.72847  -5.69148  -5.68810  -5.68409  -0.94330
 Alpha  occ. eigenvalues --   -0.90690  -0.76829  -0.65455  -0.59962  -0.57287
 Alpha  occ. eigenvalues --   -0.55491  -0.50552  -0.45846  -0.43507  -0.39901
 Alpha  occ. eigenvalues --   -0.38859  -0.35435  -0.34594  -0.31705  -0.31428
 Alpha  occ. eigenvalues --   -0.30689  -0.29407  -0.28152  -0.26888  -0.26214
 Alpha  occ. eigenvalues --   -0.22801  -0.21153  -0.20051  -0.18868  -0.18048
 Alpha  occ. eigenvalues --   -0.16339  -0.11237  -0.06790   0.05242
 Alpha virt. eigenvalues --    0.06811   0.08890   0.09255   0.09591   0.10559
 Alpha virt. eigenvalues --    0.12075   0.12377   0.12567   0.13268   0.13764
 Alpha virt. eigenvalues --    0.14627   0.15800   0.16213   0.16358   0.17318

  Beta  occ. eigenvalues --  -88.64001 -19.02411 -19.00365 -10.10903 -10.10618
  Beta  occ. eigenvalues --  -10.08106 -10.07967 -10.07431 -10.07055 -10.03968
  Beta  occ. eigenvalues --   -7.72800  -5.69147  -5.68612  -5.68381  -0.93876
  Beta  occ. eigenvalues --   -0.90661  -0.76803  -0.64779  -0.59813  -0.57189
  Beta  occ. eigenvalues --   -0.55208  -0.50510  -0.45764  -0.43194  -0.39808
  Beta  occ. eigenvalues --   -0.38810  -0.35341  -0.34027  -0.31270  -0.31126
  Beta  occ. eigenvalues --   -0.30384  -0.28869  -0.28017  -0.26839  -0.26036
  Beta  occ. eigenvalues --   -0.22391  -0.20600  -0.19854  -0.18540  -0.17828
  Beta  occ. eigenvalues --   -0.16318  -0.09490  -0.06656
  Beta virt. eigenvalues --    0.07630   0.08959   0.09431   0.09664   0.10754
  Beta virt. eigenvalues --    0.11680   0.12357   0.12438   0.12786   0.13504
  Beta virt. eigenvalues --    0.14241   0.14727   0.15719   0.16234   0.16282

 Mulliken charges and spin densities:
               1          2
     1  C   -0.401114  -0.107786
     2  C    0.330065   0.385800
     3  S   -0.788102   0.214904
     4  O    0.034605   0.046826
     5  C   -0.451780  -0.509878
     6  C   -0.407331   1.216998
     7  C    0.227281  -0.748757
     8  C   -0.128632  -0.210768
     9  C    0.444052  -0.811805
    10  O   -0.242571   0.010278
    11  H    0.001294   0.149180
    12  H    0.144427  -0.000438
    13  H    0.124904   0.018310
    14  H    0.078845   0.070696
    15  H    0.161013  -0.019143
    16  H   -0.507171   0.658667
    17  H    0.079550   0.056885
    18  H    0.100247   0.049428
    19  H    0.085539   0.062598
    20  H    0.043922   0.099745
    21  H   -0.189184   0.365552
    22  H    0.260144   0.002708
 Sum of Mulliken charges =  -1.00000   1.00000

 Dipole moment (field-independent basis, Debye):
    X=             -1.6593    Y=              0.7078    Z=              1.7174  Tot=              2.4907
 Quadrupole moment (field-independent basis, Debye-Ang):
   XX=           -132.6329   YY=            -93.8879   ZZ=            -82.4787
   XY=              7.8371   XZ=              0.5104   YZ=             -0.3909

 Summary of Natural Population Analysis:

                                       Natural Population
                Natural  -----------------------------------------------
    Atom  No    Charge         Core      Valence    Rydberg      Total
 -----------------------------------------------------------------------
      C    1   -0.32295      0.99961     2.31745    0.00588     3.32295
      C    2    0.25560      0.99969     1.72555    0.01917     2.74440
      S    3   -0.12494      4.99950     3.11083    0.01461     8.12494
      O    4   -0.28473      0.99983     3.27175    0.01315     4.28473
      C    5   -0.01219      0.99949     1.99938    0.01331     3.01219
      C    6   -0.07071      0.99954     2.05908    0.01209     3.07071
      C    7   -0.19234      0.99959     2.18342    0.00933     3.19234
      C    8   -0.19186      0.99959     2.18256    0.00972     3.19186
      C    9   -0.00425      0.99953     1.99027    0.01445     3.00425
      O   10   -0.37785      0.99990     3.37120    0.00676     4.37785
      H   11    0.10610      0.00000     0.39198    0.00192     0.39390
      H   12    0.10556      0.00000     0.39378    0.00065     0.39444
      H   13    0.10391      0.00000     0.39509    0.00101     0.39609
      H   14    0.09674      0.00000     0.40221    0.00106     0.40326
      H   15    0.09792      0.00000     0.40092    0.00115     0.40208
      H   16    0.10416      0.00000     0.39387    0.00197     0.39584
      H   17    0.10176      0.00000     0.39738    0.00086     0.39824
      H   18    0.10265      0.00000     0.39660    0.00075     0.39735
      H   19    0.10509      0.00000     0.39409    0.00082     0.39491
      H   20    0.07705      0.00000     0.42174    0.00121     0.42295
      H   21    0.08586      0.00000     0.41255    0.00158     0.41414
      H   22    0.23942      0.00000     0.25738    0.00320     0.26058
 =======================================================================
   * Total *    0.00000     13.99627    28.86908    0.13465    43.00000

 Normal termination of Gaussian 16 at Tue Dec  8 10:56:05 2020.
