 Gaussian 16, Revision A.03,

 -----------------------------------------------------------
 # opt freq B3LYP/6-31G(d) empiricaldispersion=gd3bj scf=xqc
 -----------------------------------------------------------

 ------------------------------
 CID_65496674_JID_5254_neutraal
 ------------------------------
 Symbolic Z-matrix:
 Charge =  0 Multiplicity = 1

 SCF Done:  E(RB3LYP) =  -670.096205364     A.U. after   15 cycles
 SCF Done:  E(RB3LYP) =  -670.103159075     A.U. after   13 cycles
 SCF Done:  E(RB3LYP) =  -670.102658106     A.U. after   13 cycles
 SCF Done:  E(RB3LYP) =  -670.104061802     A.U. after   13 cycles
 SCF Done:  E(RB3LYP) =  -670.105353306     A.U. after   13 cycles
 SCF Done:  E(RB3LYP) =  -670.106264735     A.U. after   13 cycles
 SCF Done:  E(RB3LYP) =  -670.106514166     A.U. after   12 cycles
 SCF Done:  E(RB3LYP) =  -670.106810220     A.U. after   11 cycles
 SCF Done:  E(RB3LYP) =  -670.106954570     A.U. after   12 cycles
 SCF Done:  E(RB3LYP) =  -670.107098289     A.U. after   11 cycles
 SCF Done:  E(RB3LYP) =  -670.107264231     A.U. after    9 cycles
 SCF Done:  E(RB3LYP) =  -670.107265576     A.U. after    9 cycles
 SCF Done:  E(RB3LYP) =  -670.107266254     A.U. after    8 cycles
 SCF Done:  E(RB3LYP) =  -670.107266438     A.U. after    8 cycles
 SCF Done:  E(RB3LYP) =  -670.107266471     A.U. after    7 cycles
 Optimization completed.
    -- Stationary point found.
 Normal termination of Gaussian 16 at Thu Dec 10 15:03:58 2020.

 --------------------------------------------------------------------
 #N Geom=AllCheck Guess=TCheck SCRF=Check GenChk RB3LYP/6-31G(d) Freq
 --------------------------------------------------------------------

 Structure from the checkpoint file:  "JID_5254.chk"
 ------------------------------
 CID_65496674_JID_5254_neutraal
 ------------------------------
 Charge =  0 Multiplicity = 1

 SCF Done:  E(RB3LYP) =  -670.107266471     A.U. after    1 cycles

  Exact polarizability: 143.107   9.282 132.991  -3.661   5.689 114.011
 Approx polarizability: 188.057  16.051 198.818  -9.499  13.913 168.998

                      1                      2                      3
                      A                      A                      A
 Frequencies --     22.1030                35.1052                55.1499
 Red. masses --      5.1916                 3.6987                 3.8744
 Frc consts  --      0.0015                 0.0027                 0.0069
 IR Inten    --      2.5534                 0.8757                 1.9054

                      4                      5                      6
                      A                      A                      A
 Frequencies --     65.1989                72.7590                74.7932
 Red. masses --      3.9129                 3.9301                 4.0005
 Frc consts  --      0.0098                 0.0123                 0.0132
 IR Inten    --      4.2413                 0.9985                 0.4969

                      7                      8                      9
                      A                      A                      A
 Frequencies --     99.9804               139.5947               144.5202
 Red. masses --      2.9218                 6.4059                 2.7474
 Frc consts  --      0.0172                 0.0735                 0.0338
 IR Inten    --      1.3417                 7.4658                 2.8317

                     10                     11                     12
                      A                      A                      A
 Frequencies --    194.9238               223.8975               230.1342
 Red. masses --      1.9751                 2.7196                 1.1644
 Frc consts  --      0.0442                 0.0803                 0.0363
 IR Inten    --      2.8817                 0.1627                 0.2226

                     13                     14                     15
                      A                      A                      A
 Frequencies --    237.5259               270.1670               315.1851
 Red. masses --      1.6797                 2.4887                 2.4106
 Frc consts  --      0.0558                 0.1070                 0.1411
 IR Inten    --      1.4360                 0.4680                 0.6062

                     16                     17                     18
                      A                      A                      A
 Frequencies --    338.3216               359.1646               374.7741
 Red. masses --      2.5663                 2.4103                 3.2865
 Frc consts  --      0.1731                 0.1832                 0.2720
 IR Inten    --      1.2752                 0.5583                 6.6079

                     19                     20                     21
                      A                      A                      A
 Frequencies --    387.4957               397.1102               416.6194
 Red. masses --      3.0139                 2.7747                 2.9418
 Frc consts  --      0.2666                 0.2578                 0.3008
 IR Inten    --      0.2651                 3.8357                 2.9412

                     22                     23                     24
                      A                      A                      A
 Frequencies --    455.8614               538.6068               563.0818
 Red. masses --      3.8558                 5.1830                 3.9208
 Frc consts  --      0.4721                 0.8859                 0.7324
 IR Inten    --      2.9955                 1.4693                17.8496

                     25                     26                     27
                      A                      A                      A
 Frequencies --    622.2113               657.9530               751.3492
 Red. masses --      2.3870                 1.8783                 2.3157
 Frc consts  --      0.5445                 0.4791                 0.7702
 IR Inten    --     28.0992                42.2146                 8.0666

                     28                     29                     30
                      A                      A                      A
 Frequencies --    758.7936               785.2972               790.3108
 Red. masses --      3.3205                 1.8370                 1.2158
 Frc consts  --      1.1264                 0.6675                 0.4474
 IR Inten    --     36.6214                 7.4601                18.5372

                     31                     32                     33
                      A                      A                      A
 Frequencies --    801.2012               830.5793               901.6389
 Red. masses --      1.2600                 1.3618                 1.7332
 Frc consts  --      0.4765                 0.5535                 0.8302
 IR Inten    --     38.5941                13.2157                 0.8106

                     34                     35                     36
                      A                      A                      A
 Frequencies --    911.9949               913.9099               945.8478
 Red. masses --      2.6032                 2.0579                 2.0521
 Frc consts  --      1.2757                 1.0127                 1.0816
 IR Inten    --      3.8109                 2.7157                20.0226

                     37                     38                     39
                      A                      A                      A
 Frequencies --    962.2401               966.9823               987.2869
 Red. masses --      2.0398                 2.1531                 2.2437
 Frc consts  --      1.1127                 1.1862                 1.2885
 IR Inten    --      5.7871                 1.4881                 3.3623

                     40                     41                     42
                      A                      A                      A
 Frequencies --    992.6273              1041.9578              1053.8171
 Red. masses --      1.7477                 2.3115                 1.8663
 Frc consts  --      1.0146                 1.4786                 1.2211
 IR Inten    --      2.8202                14.4921                15.7718

                     43                     44                     45
                      A                      A                      A
 Frequencies --   1068.5272              1088.0809              1100.3948
 Red. masses --      1.5230                 1.4042                 1.9441
 Frc consts  --      1.0245                 0.9795                 1.3870
 IR Inten    --      4.1588                 3.4481                 5.8600

                     46                     47                     48
                      A                      A                      A
 Frequencies --   1121.0337              1126.2440              1142.7532
 Red. masses --      2.5889                 2.1070                 2.0136
 Frc consts  --      1.9169                 1.5747                 1.5493
 IR Inten    --     33.1911                 1.8323                24.5578

                     49                     50                     51
                      A                      A                      A
 Frequencies --   1170.0024              1195.2537              1196.1738
 Red. masses --      2.7265                 1.3350                 2.2892
 Frc consts  --      2.1990                 1.1237                 1.9298
 IR Inten    --     50.9696                 0.5144                11.0061

                     52                     53                     54
                      A                      A                      A
 Frequencies --   1227.2691              1261.3362              1326.7864
 Red. masses --      1.2783                 1.3908                 1.2904
 Frc consts  --      1.1344                 1.3037                 1.3384
 IR Inten    --      0.6915                17.6438                39.6064

                     55                     56                     57
                      A                      A                      A
 Frequencies --   1335.3251              1348.8956              1354.9516
 Red. masses --      1.3279                 1.3369                 1.9621
 Frc consts  --      1.3950                 1.4331                 2.1224
 IR Inten    --      1.5627                30.7473                 1.1002

                     58                     59                     60
                      A                      A                      A
 Frequencies --   1373.0159              1381.5831              1396.7994
 Red. masses --      1.5356                 1.6268                 1.4955
 Frc consts  --      1.7056                 1.8295                 1.7191
 IR Inten    --     22.3349                57.4906                 9.4831

                     61                     62                     63
                      A                      A                      A
 Frequencies --   1425.7552              1436.1988              1438.8936
 Red. masses --      1.3091                 1.3230                 1.7314
 Frc consts  --      1.5679                 1.6079                 2.1120
 IR Inten    --     14.9129                 7.2954                35.5266

                     64                     65                     66
                      A                      A                      A
 Frequencies --   1443.5630              1488.6641              1500.6076
 Red. masses --      1.3977                 1.0845                 1.0874
 Frc consts  --      1.7160                 1.4161                 1.4427
 IR Inten    --     20.3877                11.6506                 2.5265

                     67                     68                     69
                      A                      A                      A
 Frequencies --   1505.7254              1520.5650              1523.2304
 Red. masses --      1.4262                 1.0767                 1.1187
 Frc consts  --      1.9052                 1.4667                 1.5293
 IR Inten    --     23.9791                18.6952                 8.7161

                     70                     71                     72
                      A                      A                      A
 Frequencies --   1524.3801              1528.5852              1533.1380
 Red. masses --      1.0955                 1.1471                 1.1130
 Frc consts  --      1.4999                 1.5791                 1.5414
 IR Inten    --      1.7547                 2.4460                 1.3058

                     73                     74                     75
                      A                      A                      A
 Frequencies --   1543.0662              1546.8549              1549.0681
 Red. masses --      1.2093                 1.1443                 1.1274
 Frc consts  --      1.6965                 1.6132                 1.5939
 IR Inten    --      1.6277                10.1944                29.7926

                     76                     77                     78
                      A                      A                      A
 Frequencies --   1776.4249              2365.3282              2932.3151
 Red. masses --      7.4969                12.5965                 1.0738
 Frc consts  --     13.9388                41.5226                 5.4400
 IR Inten    --    342.3090                 7.4402                83.9242

                     79                     80                     81
                      A                      A                      A
 Frequencies --   2998.6560              3045.4731              3048.3208
 Red. masses --      1.0835                 1.0355                 1.0608
 Frc consts  --      5.7404                 5.6587                 5.8076
 IR Inten    --     38.5993                26.4739                10.1706

                     82                     83                     84
                      A                      A                      A
 Frequencies --   3060.1783              3068.0097              3086.3963
 Red. masses --      1.0364                 1.0730                 1.0864
 Frc consts  --      5.7182                 5.9505                 6.0971
 IR Inten    --     13.0758                18.7402                20.5020

                     85                     86                     87
                      A                      A                      A
 Frequencies --   3090.8958              3108.6424              3122.3990
 Red. masses --      1.1003                 1.1013                 1.1018
 Frc consts  --      6.1936                 6.2707                 6.3290
 IR Inten    --      6.6622                30.2772                45.4529

                     88                     89                     90
                      A                      A                      A
 Frequencies --   3126.7330              3143.8198              3146.2387
 Red. masses --      1.1009                 1.1033                 1.0533
 Frc consts  --      6.3415                 6.4249                 6.1432
 IR Inten    --     28.4106                18.4295                18.3640

                     91                     92                     93
                      A                      A                      A
 Frequencies --   3153.8947              3165.1213              3221.3932
 Red. masses --      1.0572                 1.0951                 1.1191
 Frc consts  --      6.1957                 6.4637                 6.8427
 IR Inten    --      7.9445                 7.1642                 2.4574

                     94                     95                     96
                      A                      A                      A
 Frequencies --   3236.3532              3517.8179              3563.1626
 Red. masses --      1.1163                 1.0745                 1.0748
 Frc consts  --      6.8891                 7.8341                 8.0395
 IR Inten    --     15.2118                 4.3175                12.6637

 - Thermochemistry -
 -------------------
 Temperature   298.150 Kelvin.  Pressure   1.00000 Atm.
 Atom     1 has atomic number  6 and mass  12.00000

 Molecular mass:   209.15281 amu.
 Principal axes and moments of inertia in atomic units:
                           1         2         3
     Eigenvalues --  2206.725974923.985125518.32671
           X            0.99949   0.02487   0.02005
           Y           -0.02528   0.99947   0.02061
           Z           -0.01952  -0.02111   0.99959
 This molecule is an asymmetric top.
 Rotational symmetry number  1.
 Warning -- assumption of classical behavior for rotation
           may cause significant error
 Rotational temperatures (Kelvin)      0.03925     0.01759     0.01570
 Rotational constants (GHZ):           0.81784     0.36652     0.32705
 Zero-point vibrational energy     779895.6 (Joules/Mol)
                                  186.39953 (Kcal/Mol)
 Warning -- explicit consideration of  24 degrees of freedom as
           vibrations may cause significant error
 Vibrational temperatures:     31.80    50.51    79.35    93.81   104.68
          (Kelvin)            107.61   143.85   200.85   207.93   280.45
                              322.14   331.11   341.75   388.71   453.48
                              486.77   516.76   539.22   557.52   571.35
                              599.42   655.88   774.94   810.15   895.22
                              946.65  1081.02  1091.73  1129.87  1137.08
                             1152.75  1195.02  1297.26  1312.16  1314.91
                             1360.86  1384.45  1391.27  1420.49  1428.17
                             1499.14  1516.21  1537.37  1565.51  1583.22
                             1612.92  1620.41  1644.17  1683.37  1719.70
                             1721.03  1765.77  1814.78  1908.95  1921.23
                             1940.76  1949.47  1975.46  1987.79  2009.68
                             2051.34  2066.37  2070.25  2076.97  2141.86
                             2159.04  2166.40  2187.75  2191.59  2193.24
                             2199.29  2205.84  2220.13  2225.58  2228.76
                             2555.88  3403.18  4218.95  4314.40  4381.76
                             4385.85  4402.91  4414.18  4440.64  4447.11
                             4472.64  4492.44  4498.67  4523.26  4526.74
                             4537.75  4553.90  4634.87  4656.39  5061.36
                             5126.60

 Zero-point correction=                           0.297047 (Hartree/Particle)
 Thermal correction to Energy=                    0.314052
 Thermal correction to Enthalpy=                  0.314996
 Thermal correction to Gibbs Free Energy=         0.250699
 Sum of electronic and zero-point Energies=           -669.810220
 Sum of electronic and thermal Energies=              -669.793215
 Sum of electronic and thermal Enthalpies=            -669.792271
 Sum of electronic and thermal Free Energies=         -669.856568

                     E (Thermal)             CV                S
                      KCal/Mol        Cal/Mol-Kelvin    Cal/Mol-Kelvin
 Total                  197.070             61.667            135.325
 Electronic               0.000              0.000              0.000
 Translational            0.889              2.981             41.918
 Rotational               0.889              2.981             32.461
 Vibrational            195.293             55.705             60.946
 Vibration     1          0.593              1.985              6.436
 Vibration     2          0.594              1.982              5.518
 Vibration     3          0.596              1.976              4.624
 Vibration     4          0.597              1.971              4.293
 Vibration     5          0.599              1.967              4.077
 Vibration     6          0.599              1.966              4.023
 Vibration     7          0.604              1.949              3.455
 Vibration     8          0.615              1.914              2.809
 Vibration     9          0.616              1.909              2.743
 Vibration    10          0.636              1.847              2.180
 Vibration    11          0.649              1.805              1.927
 Vibration    12          0.652              1.795              1.878
 Vibration    13          0.656              1.783              1.821
 Vibration    14          0.674              1.728              1.595
 Vibration    15          0.703              1.645              1.335
 Vibration    16          0.719              1.599              1.220
 Vibration    17          0.734              1.556              1.126
 Vibration    18          0.746              1.524              1.060
 Vibration    19          0.756              1.497              1.010
 Vibration    20          0.764              1.476              0.973
 Vibration    21          0.780              1.434              0.904
 Vibration    22          0.814              1.348              0.778
 Vibration    23          0.894              1.165              0.568
 Vibration    24          0.919              1.111              0.518

                           ! Non-Optimized Parameters !
 Normal termination of Gaussian 16 at Thu Dec 10 15:15:13 2020.

 ----------------------------------------------------------------------
 # B3LYP/6-311++G(d,p) empiricaldispersion=gd3bj scf=xqc pop=npa geom=c
 heck
 ----------------------------------------------------------------------

 --------------------------------------
 CID_65496674_JID_5254_Energie_neutraal
 --------------------------------------
 Structure from the checkpoint file:  "JID_5254.chk"
 Charge =  0 Multiplicity = 1

 SCF Done:  E(RB3LYP) =  -670.303781683     A.U. after   14 cycles
 Normal termination of Gaussian 16 at Thu Dec 10 15:19:55 2020.

 ----------------------------------------------------------------------
 # B3LYP/6-311++G(d,p) empiricaldispersion=gd3bj scf=xqc pop=npa geom=c
 heck
 ----------------------------------------------------------------------

 ------------------------------------
 CID_65496674_JID_5254_Energie_kation
 ------------------------------------
 Structure from the checkpoint file:  "JID_5254.chk"
 Charge =  1 Multiplicity = 2

 SCF Done:  E(UB3LYP) =  -669.996081800     A.U. after   24 cycles
 Normal termination of Gaussian 16 at Thu Dec 10 15:31:21 2020.
 Gaussian 16:  ES64L-G16RevA.03 25-Dec-2016

 ----------------------------------------------------------------------
 # B3LYP/6-311++G(d,p) empiricaldispersion=gd3bj scf=xqc pop=npa geom=c
 heck
 ----------------------------------------------------------------------

 -----------------------------------
 CID_65496674_JID_5254_Energie_anion
 -----------------------------------
 Structure from the checkpoint file:  "JID_5254.chk"
 Charge = -1 Multiplicity = 2

                         Standard orientation:
 ---------------------------------------------------------------------
 Center     Atomic      Atomic             Coordinates (Angstroms)
 Number     Number       Type             X           Y           Z
 ---------------------------------------------------------------------
      1          6           0        2.979564    1.425427    1.919613
      2          6           0        1.979705    1.400458    0.762192
      3          7           0        2.520764    0.727472   -0.419896
      4          6           0        2.320171   -0.542285   -0.888807
      5          8           0        3.084494   -1.043110   -1.707961
      6          6           0        1.103216   -1.345580   -0.405168
      7          6           0        1.442611   -2.090224    0.894837
      8          7           0       -0.089412   -0.504481   -0.240768
      9          6           0       -1.352378   -1.222941   -0.369484
     10          6           0       -2.541270   -0.362486    0.024077
     11          6           0       -3.709575   -1.051196    0.691575
     12          6           0       -2.796255   -0.153763    1.492136
     13          6           0       -2.878927    0.790736   -0.920949
     14          6           0       -1.890106    1.876909   -0.894189
     15          7           0       -1.095716    2.722955   -0.865662
     16          1           0        3.233947    0.408745    2.239071
     17          1           0        2.558230    1.962700    2.777059
     18          1           0        3.910393    1.929480    1.632806
     19          1           0        1.058141    0.892643    1.044320
     20          1           0        1.698642    2.420393    0.475166
     21          1           0        3.363094    1.132024   -0.815875
     22          1           0        0.964215   -2.093458   -1.201364
     23          1           0        1.619490   -1.386573    1.713566
     24          1           0        0.623755   -2.754749    1.190705
     25          1           0        2.338084   -2.702678    0.751254
     26          1           0       -0.053968    0.254996   -0.916024
     27          1           0       -1.511604   -1.632339   -1.386346
     28          1           0       -1.320041   -2.084725    0.305272
     29          1           0       -4.712962   -0.697963    0.468627
     30          1           0       -3.644147   -2.125168    0.842406
     31          1           0       -2.094211   -0.607329    2.185114
     32          1           0       -3.178278    0.810576    1.815938
     33          1           0       -2.966655    0.426149   -1.953075
     34          1           0       -3.852062    1.220203   -0.655655
 ---------------------------------------------------------------------

 SCF Done:  E(UB3LYP) =  -670.295219449     A.U. after   33 cycles
 SCF Done:  E(UB3LYP) =  -670.295219449     a.u. after    1 cycles

 The electronic state is 2-A.
 Alpha  occ. eigenvalues --  -18.99857 -14.24943 -14.22038 -14.21123 -10.18415
 Alpha  occ. eigenvalues --  -10.12169 -10.12131 -10.12083 -10.11591 -10.10784
 Alpha  occ. eigenvalues --  -10.10640 -10.08453 -10.08075 -10.07906 -10.07671
 Alpha  occ. eigenvalues --   -0.95022  -0.83988  -0.82616  -0.81612  -0.78116
 Alpha  occ. eigenvalues --   -0.67954  -0.67305  -0.66721  -0.60104  -0.55999
 Alpha  occ. eigenvalues --   -0.54122  -0.51424  -0.49254  -0.47360  -0.43194
 Alpha  occ. eigenvalues --   -0.41821  -0.40638  -0.39681  -0.38140  -0.37349
 Alpha  occ. eigenvalues --   -0.36457  -0.35823  -0.34932  -0.34040  -0.33523
 Alpha  occ. eigenvalues --   -0.31145  -0.30917  -0.30220  -0.29630  -0.28661
 Alpha  occ. eigenvalues --   -0.27759  -0.27360  -0.27282  -0.26768  -0.26488
 Alpha  occ. eigenvalues --   -0.24118  -0.23100  -0.20657  -0.20061  -0.17377
 Alpha  occ. eigenvalues --   -0.16564  -0.14230   0.03989
 Alpha virt. eigenvalues --    0.05720   0.06631   0.07381   0.08186   0.08534
 Alpha virt. eigenvalues --    0.08745   0.09740   0.09815   0.10160   0.10564
 Alpha virt. eigenvalues --    0.11006   0.11400   0.11572   0.12124   0.12339

  Beta  occ. eigenvalues --  -18.99855 -14.24937 -14.22030 -14.21117 -10.18415
  Beta  occ. eigenvalues --  -10.12140 -10.12097 -10.12078 -10.11588 -10.10755
  Beta  occ. eigenvalues --  -10.10642 -10.08434 -10.08033 -10.07881 -10.07646
  Beta  occ. eigenvalues --   -0.95018  -0.83977  -0.82600  -0.81593  -0.78096
  Beta  occ. eigenvalues --   -0.67919  -0.67253  -0.66685  -0.60053  -0.55968
  Beta  occ. eigenvalues --   -0.54085  -0.51321  -0.49226  -0.47303  -0.43154
  Beta  occ. eigenvalues --   -0.41767  -0.40625  -0.39624  -0.38068  -0.37311
  Beta  occ. eigenvalues --   -0.36428  -0.35795  -0.34887  -0.34019  -0.33498
  Beta  occ. eigenvalues --   -0.31112  -0.30895  -0.30197  -0.29601  -0.28635
  Beta  occ. eigenvalues --   -0.27738  -0.27326  -0.27265  -0.26745  -0.26470
  Beta  occ. eigenvalues --   -0.24097  -0.23062  -0.20616  -0.20024  -0.17368
  Beta  occ. eigenvalues --   -0.16551  -0.14207
  Beta virt. eigenvalues --    0.05848   0.06831   0.07499   0.07906   0.08694
  Beta virt. eigenvalues --    0.09005   0.09111   0.09871   0.10069   0.10469
  Beta virt. eigenvalues --    0.10845   0.11144   0.11542   0.11963   0.12293

 Mulliken charges and spin densities:
               1          2
     1  C   -0.011061  -0.558696
     2  C   -0.320324   0.124337
     3  N   -0.250132   0.059597
     4  C    0.220833  -0.338759
     5  O   -0.326435   0.004060
     6  C   -0.586450   0.546391
     7  C    0.338946  -0.822587
     8  N    0.148330  -0.001903
     9  C    1.029145  -2.273773
    10  C   -2.293768   3.261782
    11  C    0.025173  -0.422913
    12  C    0.883875  -1.326665
    13  C    1.725691  -1.718635
    14  C    0.069096  -0.292034
    15  N   -0.282180   0.015137
    16  H    0.003987   0.150195
    17  H   -0.047970   0.187959
    18  H   -0.005485   0.134125
    19  H    0.292555  -0.081338
    20  H    0.114041   0.073809
    21  H    0.288105   0.009236
    22  H    0.080120   0.120552
    23  H   -0.007902   0.133063
    24  H   -0.364502   0.504035
    25  H    0.036860   0.119022
    26  H    0.033468   0.178914
    27  H   -0.269228   0.432361
    28  H    0.542682  -0.365559
    29  H   -0.516726   0.688513
    30  H   -0.516166   0.677115
    31  H   -0.033791   0.193067
    32  H   -0.080934   0.248636
    33  H   -0.322031   0.536047
    34  H   -0.597822   0.804909
 Sum of Mulliken charges =  -1.00000   1.00000

 Dipole moment (field-independent basis, Debye):
    X=              6.2450    Y=              1.0712    Z=              1.2038  Tot=              6.4496
 Quadrupole moment (field-independent basis, Debye-Ang):
   XX=           -178.2897   YY=           -139.2953   ZZ=           -134.0118
   XY=              6.4787   XZ=              3.9351   YZ=              1.8084

 Summary of Natural Population Analysis:

                                       Natural Population
                Natural  -----------------------------------------------
    Atom  No    Charge         Core      Valence    Rydberg      Total
 -----------------------------------------------------------------------
      C    1   -0.28888      0.99966     2.28554    0.00368     3.28888
      C    2   -0.10359      0.99962     2.09329    0.01068     3.10359
      N    3   -0.31516      0.99966     2.80640    0.00909     3.81516
      C    4    0.34380      0.99964     1.63334    0.02322     2.65620
      O    5   -0.32724      0.99988     3.32155    0.00581     4.32724
      C    6   -0.04462      0.99957     2.03326    0.01180     3.04462
      C    7   -0.28692      0.99964     2.28080    0.00649     3.28692
      N    8   -0.34943      0.99972     2.83851    0.01120     3.84943
      C    9   -0.07907      0.99956     2.06820    0.01132     3.07907
      C   10   -0.04831      0.99954     2.03321    0.01556     3.04831
      C   11   -0.18671      0.99958     2.17732    0.00981     3.18671
      C   12   -0.18897      0.99957     2.17976    0.00963     3.18897
      C   13   -0.24544      0.99949     2.23462    0.01133     3.24544
      C   14    0.16735      0.99965     1.81611    0.01689     2.83265
      N   15   -0.19146      0.99979     2.68073    0.01095     3.69146
      H   16    0.09877      0.00000     0.40017    0.00106     0.40123
      H   17    0.10120      0.00000     0.39786    0.00095     0.39880
      H   18    0.09363      0.00000     0.40516    0.00121     0.40637
      H   19    0.11830      0.00000     0.37965    0.00205     0.38170
      H   20    0.09834      0.00000     0.40066    0.00101     0.40166
      H   21    0.18875      0.00000     0.30877    0.00248     0.31125
      H   22    0.09600      0.00000     0.40194    0.00207     0.40400
      H   23    0.09922      0.00000     0.39953    0.00125     0.40078
      H   24    0.10328      0.00000     0.39561    0.00110     0.39672
      H   25    0.10311      0.00000     0.39600    0.00089     0.39689
      H   26    0.18146      0.00000     0.31466    0.00387     0.31854
      H   27    0.08537      0.00000     0.41299    0.00164     0.41463
      H   28    0.09912      0.00000     0.39870    0.00218     0.40088
      H   29    0.10717      0.00000     0.39003    0.00280     0.39283
      H   30    0.10552      0.00000     0.39286    0.00162     0.39448
      H   31    0.10654      0.00000     0.39219    0.00128     0.39346
      H   32    0.10482      0.00000     0.39371    0.00146     0.39518
      H   33    0.12440      0.00000     0.37339    0.00222     0.37560
      H   34    0.12967      0.00000     0.36644    0.00389     0.37033
 =======================================================================
   * Total *    0.00000     14.99456    41.80297    0.20247    57.00000

 Normal termination of Gaussian 16 at Thu Dec 10 15:51:41 2020.
