 Gaussian 16, Revision A.03,

 -----------------------------------------------------------
 # opt freq B3LYP/6-31G(d) empiricaldispersion=gd3bj scf=xqc
 -----------------------------------------------------------

 ------------------------------
 CID_84175662_JID_9367_neutraal
 ------------------------------
 Symbolic Z-matrix:
 Charge =  0 Multiplicity = 1

 SCF Done:  E(RB3LYP) =  -801.503028221     A.U. after   15 cycles
 SCF Done:  E(RB3LYP) =  -801.510217364     A.U. after   12 cycles
 SCF Done:  E(RB3LYP) =  -801.510136713     A.U. after   12 cycles
 SCF Done:  E(RB3LYP) =  -801.511449253     A.U. after   12 cycles
 SCF Done:  E(RB3LYP) =  -801.512298251     A.U. after   11 cycles
 SCF Done:  E(RB3LYP) =  -801.513224365     A.U. after   14 cycles
 SCF Done:  E(RB3LYP) =  -801.514103665     A.U. after   12 cycles
 SCF Done:  E(RB3LYP) =  -801.515355772     A.U. after   13 cycles
 SCF Done:  E(RB3LYP) =  -801.515844434     A.U. after   13 cycles
 SCF Done:  E(RB3LYP) =  -801.516325171     A.U. after   11 cycles
 SCF Done:  E(RB3LYP) =  -801.522764458     A.U. after    9 cycles
 SCF Done:  E(RB3LYP) =  -801.522766236     A.U. after    9 cycles
 SCF Done:  E(RB3LYP) =  -801.522767476     A.U. after    9 cycles
 SCF Done:  E(RB3LYP) =  -801.522767650     A.U. after    7 cycles
 SCF Done:  E(RB3LYP) =  -801.522767701     A.U. after    7 cycles
 Optimization completed.
    -- Stationary point found.
 Normal termination of Gaussian 16 at Sat Dec 12 10:07:04 2020.

 --------------------------------------------------------------------
 #N Geom=AllCheck Guess=TCheck SCRF=Check GenChk RB3LYP/6-31G(d) Freq
 --------------------------------------------------------------------

 Structure from the checkpoint file:  "JID_9367.chk"
 ------------------------------
 CID_84175662_JID_9367_neutraal
 ------------------------------
 Charge =  0 Multiplicity = 1

 SCF Done:  E(RB3LYP) =  -801.522767701     A.U. after    1 cycles

  Exact polarizability: 261.052  -3.041 205.795  -3.620   6.751  93.736
 Approx polarizability: 364.595  -6.567 340.414  -7.509  17.377 148.126

                      1                      2                      3
                      A                      A                      A
 Frequencies --     33.1806                59.2051                71.5671
 Red. masses --      4.4422                 2.6024                 1.4614
 Frc consts  --      0.0029                 0.0054                 0.0044
 IR Inten    --      0.3171                 4.5159                 0.6349

                      4                      5                      6
                      A                      A                      A
 Frequencies --     88.7079                93.2970               100.5141
 Red. masses --      3.3038                 1.9353                 2.8098
 Frc consts  --      0.0153                 0.0099                 0.0167
 IR Inten    --      2.4046                 1.3050                 0.0193

                      7                      8                      9
                      A                      A                      A
 Frequencies --    121.0099               134.2932               151.8829
 Red. masses --      2.8544                 2.2400                 2.3500
 Frc consts  --      0.0246                 0.0238                 0.0319
 IR Inten    --      0.2482                 2.2639                 0.5944

                     10                     11                     12
                      A                      A                      A
 Frequencies --    172.1717               215.4815               239.2173
 Red. masses --      2.9888                 2.9993                 3.6818
 Frc consts  --      0.0522                 0.0821                 0.1241
 IR Inten    --      0.3012                 0.6349                 0.5170

                     13                     14                     15
                      A                      A                      A
 Frequencies --    258.4328               263.1809               276.3859
 Red. masses --      3.9371                 3.7620                 3.7059
 Frc consts  --      0.1549                 0.1535                 0.1668
 IR Inten    --      1.4812                 0.3541                 0.5937

                     16                     17                     18
                      A                      A                      A
 Frequencies --    319.2713               340.2865               356.5665
 Red. masses --      1.5163                 4.1166                 2.2646
 Frc consts  --      0.0911                 0.2808                 0.1696
 IR Inten    --     57.5804                 9.5501                33.9830

                     19                     20                     21
                      A                      A                      A
 Frequencies --    400.1444               439.4376               471.8620
 Red. masses --      3.6597                 3.1052                 3.9958
 Frc consts  --      0.3453                 0.3533                 0.5242
 IR Inten    --      4.6640                 3.0959                 1.8191

                     22                     23                     24
                      A                      A                      A
 Frequencies --    484.9780               550.8406               580.5324
 Red. masses --      2.2250                 5.4835                 4.1914
 Frc consts  --      0.3083                 0.9803                 0.8323
 IR Inten    --      7.7654                 0.8740                 0.9917

                     25                     26                     27
                      A                      A                      A
 Frequencies --    585.7271               606.9089               630.3071
 Red. masses --      4.4091                 5.5150                 3.9943
 Frc consts  --      0.8912                 1.1969                 0.9350
 IR Inten    --     12.5803                 1.8476                 4.4236

                     28                     29                     30
                      A                      A                      A
 Frequencies --    648.4043               680.7596               729.1727
 Red. masses --      4.2117                 3.4866                 4.2124
 Frc consts  --      1.0433                 0.9520                 1.3196
 IR Inten    --      1.5032                 5.8446                 4.8780

                     31                     32                     33
                      A                      A                      A
 Frequencies --    741.8881               757.4344               777.8717
 Red. masses --      4.7794                 1.3591                 4.1181
 Frc consts  --      1.5499                 0.4594                 1.4681
 IR Inten    --      0.4902                53.7817                 3.5585

                     34                     35                     36
                      A                      A                      A
 Frequencies --    782.3889               789.4643               797.1969
 Red. masses --      2.8417                 1.7205                 4.7850
 Frc consts  --      1.0249                 0.6318                 1.7917
 IR Inten    --      1.2064                11.3015                 3.9362

                     37                     38                     39
                      A                      A                      A
 Frequencies --    854.5007               860.1706               878.6686
 Red. masses --      1.4844                 1.5048                 1.9298
 Frc consts  --      0.6386                 0.6560                 0.8778
 IR Inten    --     23.4498                 0.3423                14.4619

                     40                     41                     42
                      A                      A                      A
 Frequencies --    909.6275               920.8308               929.3826
 Red. masses --      1.5988                 1.9443                 1.3191
 Frc consts  --      0.7794                 0.9713                 0.6713
 IR Inten    --     19.8057                69.2724                 1.4762

                     43                     44                     45
                      A                      A                      A
 Frequencies --    948.4049               977.1677              1019.1772
 Red. masses --      3.3369                 1.2470                 2.6771
 Frc consts  --      1.7684                 0.7015                 1.6384
 IR Inten    --     19.0799                 0.9911                 9.9451

                     46                     47                     48
                      A                      A                      A
 Frequencies --   1045.6443              1070.1621              1086.3326
 Red. masses --      2.0768                 2.2719                 1.6104
 Frc consts  --      1.3379                 1.5330                 1.1197
 IR Inten    --     15.0380                 7.5021                 7.8493

                     49                     50                     51
                      A                      A                      A
 Frequencies --   1097.6237              1123.5418              1148.8213
 Red. masses --      2.5235                 2.1296                 2.0765
 Frc consts  --      1.7913                 1.5839                 1.6147
 IR Inten    --     38.0558                22.3854                 1.8495

                     52                     53                     54
                      A                      A                      A
 Frequencies --   1159.4418              1160.7367              1164.7868
 Red. masses --      1.3057                 1.2969                 1.6902
 Frc consts  --      1.0342                 1.0295                 1.3511
 IR Inten    --      0.1813                 0.2548                12.3507

                     55                     56                     57
                      A                      A                      A
 Frequencies --   1179.4640              1187.3284              1190.4313
 Red. masses --      1.4864                 1.9511                 1.3520
 Frc consts  --      1.2183                 1.6206                 1.1288
 IR Inten    --      1.6972                 5.5464                 9.0581

                     58                     59                     60
                      A                      A                      A
 Frequencies --   1219.8083              1254.7593              1278.5396
 Red. masses --      1.8331                 1.5589                 1.4284
 Frc consts  --      1.6070                 1.4461                 1.3758
 IR Inten    --     12.2637                15.2987                16.8089

                     61                     62                     63
                      A                      A                      A
 Frequencies --   1285.4840              1318.3192              1351.9512
 Red. masses --      1.6914                 3.0863                 1.3385
 Frc consts  --      1.6468                 3.1603                 1.4414
 IR Inten    --     63.9453                51.1575                 6.5395

                     64                     65                     66
                      A                      A                      A
 Frequencies --   1361.2967              1377.6598              1385.2171
 Red. masses --      1.9699                 3.0841                 2.1080
 Frc consts  --      2.1508                 3.4487                 2.3832
 IR Inten    --     21.3216                41.4917                 3.3658

                     67                     68                     69
                      A                      A                      A
 Frequencies --   1400.6999              1415.2363              1434.7865
 Red. masses --      3.9611                 3.8480                 2.3396
 Frc consts  --      4.5788                 4.5409                 2.8377
 IR Inten    --     11.4806                 6.4037                21.6725

                     70                     71                     72
                      A                      A                      A
 Frequencies --   1445.6699              1453.3972              1476.7248
 Red. masses --      2.2837                 3.6731                 1.3967
 Frc consts  --      2.8121                 4.5714                 1.7945
 IR Inten    --     20.3455                12.2861                29.0506

                     73                     74                     75
                      A                      A                      A
 Frequencies --   1478.4527              1501.1686              1509.1205
 Red. masses --      1.3541                 1.1111                 1.0422
 Frc consts  --      1.7438                 1.4753                 1.3984
 IR Inten    --     18.5245                 3.4370                 5.9235

                     76                     77                     78
                      A                      A                      A
 Frequencies --   1512.3748              1516.1464              1530.3373
 Red. masses --      1.0620                 2.3234                 2.5616
 Frc consts  --      1.4311                 3.1467                 3.5346
 IR Inten    --     13.0446                52.6723                13.6958

                     79                     80                     81
                      A                      A                      A
 Frequencies --   1538.5631              1543.3361              1550.0645
 Red. masses --      1.5868                 1.0863                 1.2451
 Frc consts  --      2.2131                 1.5245                 1.7626
 IR Inten    --     70.2069                 2.3198                 0.5462

                     82                     83                     84
                      A                      A                      A
 Frequencies --   1551.4519              1583.3771              1630.1374
 Red. masses --      1.5972                 5.0668                 6.2691
 Frc consts  --      2.2650                 7.4843                 9.8152
 IR Inten    --     33.8101                 4.6198                 0.4864

                     85                     86                     87
                      A                      A                      A
 Frequencies --   1635.4969              1673.3512              1690.6338
 Red. masses --      7.9044                 6.4641                 1.0888
 Frc consts  --     12.4571                10.6643                 1.8336
 IR Inten    --     44.3154                 9.9615                39.9488

                     88                     89                     90
                      A                      A                      A
 Frequencies --   2950.4856              3036.1111              3040.0021
 Red. masses --      1.0734                 1.0667                 1.0360
 Frc consts  --      5.5053                 5.7935                 5.6410
 IR Inten    --     99.0280                28.6151                82.5336

                     91                     92                     93
                      A                      A                      A
 Frequencies --   3057.7762              3069.4428              3090.4612
 Red. masses --      1.0346                 1.0878                 1.1054
 Frc consts  --      5.6996                 6.0385                 6.2204
 IR Inten    --     70.4674                70.2938                28.3705

                     94                     95                     96
                      A                      A                      A
 Frequencies --   3103.1104              3116.3462              3153.9995
 Red. masses --      1.0959                 1.1052                 1.1024
 Frc consts  --      6.2173                 6.3239                 6.4610
 IR Inten    --     13.0662                22.1023                10.6659

                     97                     98                     99
                      A                      A                      A
 Frequencies --   3154.4324              3178.9581              3191.2474
 Red. masses --      1.0999                 1.0852                 1.0899
 Frc consts  --      6.4485                 6.4613                 6.5397
 IR Inten    --     10.2622                 1.3579                27.0373

                    100                    101                    102
                      A                      A                      A
 Frequencies --   3204.0264              3234.3713              3246.0158
 Red. masses --      1.0957                 1.0927                 1.0987
 Frc consts  --      6.6271                 6.7350                 6.8210
 IR Inten    --     41.7414                 5.5772                27.3780

                    103                    104                    105
                      A                      A                      A
 Frequencies --   3250.8674              3461.8968              3548.6517
 Red. masses --      1.0963                 1.0503                 1.0921
 Frc consts  --      6.8259                 7.4164                 8.1027
 IR Inten    --      6.7548                 1.7800                 0.1383

 - Thermochemistry -
 -------------------
 Temperature   298.150 Kelvin.  Pressure   1.00000 Atm.
 Atom     1 has atomic number  6 and mass  12.00000

 Molecular mass:   254.15315 amu.
 Principal axes and moments of inertia in atomic units:
                           1         2         3
     Eigenvalues --  2731.629216965.134149313.98362
           X            1.00000   0.00168  -0.00210
           Y           -0.00169   1.00000  -0.00262
           Z            0.00210   0.00262   0.99999
 This molecule is an asymmetric top.
 Rotational symmetry number  1.
 Warning -- assumption of classical behavior for rotation
           may cause significant error
 Rotational temperatures (Kelvin)      0.03171     0.01244     0.00930
 Rotational constants (GHZ):           0.66068     0.25911     0.19377
 Zero-point vibrational energy     823353.7 (Joules/Mol)
                                  196.78625 (Kcal/Mol)
 Warning -- explicit consideration of  26 degrees of freedom as
           vibrations may cause significant error
 Vibrational temperatures:     47.74    85.18   102.97   127.63   134.23
          (Kelvin)            144.62   174.11   193.22   218.53   247.72
                              310.03   344.18   371.83   378.66   397.66
                              459.36   489.60   513.02   575.72   632.25
                              678.90   697.78   792.54   835.26   842.73
                              873.21   906.87   932.91   979.46  1049.12
                             1067.41  1089.78  1119.18  1125.68  1135.86
                             1146.99  1229.44  1237.59  1264.21  1308.75
                             1324.87  1337.17  1364.54  1405.93  1466.37
                             1504.45  1539.72  1562.99  1579.24  1616.53
                             1652.90  1668.18  1670.04  1675.87  1696.99
                             1708.30  1712.77  1755.03  1805.32  1839.53
                             1849.52  1896.77  1945.16  1958.60  1982.15
                             1993.02  2015.29  2036.21  2064.34  2080.00
                             2091.11  2124.68  2127.16  2159.85  2171.29
                             2175.97  2181.40  2201.81  2213.65  2220.52
                             2230.20  2232.19  2278.13  2345.40  2353.12
                             2407.58  2432.44  4245.09  4368.29  4373.89
                             4399.46  4416.24  4446.48  4464.68  4483.73
                             4537.90  4538.52  4573.81  4591.49  4609.88
                             4653.54  4670.29  4677.27  4980.90  5105.72

 Zero-point correction=                           0.313599 (Hartree/Particle)
 Thermal correction to Energy=                    0.330994
 Thermal correction to Enthalpy=                  0.331938
 Thermal correction to Gibbs Free Energy=         0.268002
 Sum of electronic and zero-point Energies=           -801.209169
 Sum of electronic and thermal Energies=              -801.191773
 Sum of electronic and thermal Enthalpies=            -801.190829
 Sum of electronic and thermal Free Energies=         -801.254766

                     E (Thermal)             CV                S
                      KCal/Mol        Cal/Mol-Kelvin    Cal/Mol-Kelvin
 Total                  207.702             66.506            134.565
 Electronic               0.000              0.000              0.000
 Translational            0.889              2.981             42.498
 Rotational               0.889              2.981             33.538
 Vibrational            205.925             60.544             58.529
 Vibration     1          0.594              1.983              5.630
 Vibration     2          0.597              1.974              4.484
 Vibration     3          0.598              1.968              4.110
 Vibration     4          0.602              1.957              3.688
 Vibration     5          0.602              1.954              3.590
 Vibration     6          0.604              1.949              3.444
 Vibration     7          0.609              1.932              3.084
 Vibration     8          0.613              1.919              2.884
 Vibration     9          0.619              1.901              2.649
 Vibration    10          0.626              1.877              2.412
 Vibration    11          0.645              1.817              1.997
 Vibration    12          0.657              1.780              1.809
 Vibration    13          0.667              1.749              1.672
 Vibration    14          0.670              1.740              1.641
 Vibration    15          0.678              1.717              1.556
 Vibration    16          0.705              1.637              1.314
 Vibration    17          0.720              1.595              1.211
 Vibration    18          0.732              1.562              1.137
 Vibration    19          0.766              1.470              0.962
 Vibration    20          0.799              1.384              0.828
 Vibration    21          0.829              1.312              0.732
 Vibration    22          0.841              1.283              0.697
 Vibration    23          0.906              1.138              0.542
 Vibration    24          0.937              1.073              0.484
 Vibration    25          0.943              1.062              0.475
 Vibration    26          0.966              1.017              0.438

                           ! Non-Optimized Parameters !
 Normal termination of Gaussian 16 at Sat Dec 12 10:25:54 2020.

 ----------------------------------------------------------------------
 # B3LYP/6-311++G(d,p) empiricaldispersion=gd3bj scf=xqc pop=npa geom=c
 heck
 ----------------------------------------------------------------------

 --------------------------------------
 CID_84175662_JID_9367_Energie_neutraal
 --------------------------------------
 Structure from the checkpoint file:  "JID_9367.chk"
 Charge =  0 Multiplicity = 1

 SCF Done:  E(RB3LYP) =  -801.734029827     A.U. after   16 cycles
 Normal termination of Gaussian 16 at Sat Dec 12 10:34:25 2020.

 ----------------------------------------------------------------------
 # B3LYP/6-311++G(d,p) empiricaldispersion=gd3bj scf=xqc pop=npa geom=c
 heck
 ----------------------------------------------------------------------

 ------------------------------------
 CID_84175662_JID_9367_Energie_kation
 ------------------------------------
 Structure from the checkpoint file:  "JID_9367.chk"
 Charge =  1 Multiplicity = 2

 SCF Done:  E(UB3LYP) =  -801.497851224     A.U. after   22 cycles
 Normal termination of Gaussian 16 at Sat Dec 12 10:51:03 2020.
 Gaussian 16:  ES64L-G16RevA.03 25-Dec-2016

 ----------------------------------------------------------------------
 # B3LYP/6-311++G(d,p) empiricaldispersion=gd3bj scf=xqc pop=npa geom=c
 heck
 ----------------------------------------------------------------------

 -----------------------------------
 CID_84175662_JID_9367_Energie_anion
 -----------------------------------
 Structure from the checkpoint file:  "JID_9367.chk"
 Charge = -1 Multiplicity = 2

                         Standard orientation:
 ---------------------------------------------------------------------
 Center     Atomic      Atomic             Coordinates (Angstroms)
 Number     Number       Type             X           Y           Z
 ---------------------------------------------------------------------
      1          6           0       -2.609620   -2.939196   -0.053852
      2          7           0       -1.990780   -1.633767   -0.034704
      3          6           0       -0.634067   -1.380936    0.052584
      4          6           0       -0.403757   -0.019563    0.077980
      5          6           0       -1.705014    0.612989    0.019013
      6          6           0       -2.143122    1.946151    0.014292
      7          6           0       -3.506981    2.202987   -0.066036
      8          6           0       -4.446601    1.155411   -0.141306
      9          6           0       -4.041850   -0.175261   -0.137067
     10          6           0       -2.669206   -0.428935   -0.056915
     11          6           0        0.878004    0.671369    0.127185
     12          6           0        2.121126    0.252172   -0.330964
     13          7           0        2.983536    1.313644   -0.068279
     14          6           0        2.233579    2.303143    0.504040
     15          7           0        0.974310    1.958976    0.640030
     16          6           0        4.390705    1.395726   -0.403733
     17          6           0        2.568175   -1.002070   -1.009244
     18          6           0        3.236872   -2.025187   -0.072635
     19          7           0        2.291811   -2.466206    0.954555
     20          1           0       -3.265199   -3.077733    0.814650
     21          1           0       -3.205439   -3.077042   -0.964262
     22          1           0       -1.828573   -3.701703   -0.028603
     23          1           0        0.072451   -2.195831    0.142928
     24          1           0       -1.416646    2.746913    0.090602
     25          1           0       -3.858955    3.231009   -0.067304
     26          1           0       -5.505940    1.389905   -0.200311
     27          1           0       -4.765475   -0.983466   -0.193253
     28          1           0        2.670688    3.247813    0.801571
     29          1           0        4.965289    0.615504    0.105538
     30          1           0        4.543781    1.295572   -1.483686
     31          1           0        4.768123    2.371069   -0.088928
     32          1           0        1.690915   -1.469931   -1.468182
     33          1           0        3.269120   -0.766824   -1.821848
     34          1           0        3.535942   -2.900914   -0.661462
     35          1           0        4.164650   -1.586041    0.337823
     36          1           0        2.749916   -3.102856    1.604032
     37          1           0        1.993755   -1.656782    1.499424
 ---------------------------------------------------------------------

 SCF Done:  E(UB3LYP) =  -801.726649471     A.U. after   33 cycles
 SCF Done:  E(UB3LYP) =  -801.726649471     a.u. after    1 cycles

 The electronic state is 2-A.
 Alpha  occ. eigenvalues --  -14.27358 -14.26987 -14.19936 -14.19380 -10.12820
 Alpha  occ. eigenvalues --  -10.12418 -10.11670 -10.11183 -10.10370 -10.10295
 Alpha  occ. eigenvalues --  -10.09881 -10.09460 -10.08753 -10.08431 -10.08419
 Alpha  occ. eigenvalues --  -10.07828 -10.07745 -10.07614 -10.07524  -0.92074
 Alpha  occ. eigenvalues --   -0.89852  -0.79423  -0.79029  -0.75692  -0.71713
 Alpha  occ. eigenvalues --   -0.68713  -0.65991  -0.63525  -0.62822  -0.62574
 Alpha  occ. eigenvalues --   -0.58971  -0.53413  -0.52410  -0.51893  -0.48940
 Alpha  occ. eigenvalues --   -0.47500  -0.45465  -0.43166  -0.40807  -0.40450
 Alpha  occ. eigenvalues --   -0.39802  -0.38464  -0.38185  -0.37726  -0.37212
 Alpha  occ. eigenvalues --   -0.35234  -0.34662  -0.34384  -0.33299  -0.32526
 Alpha  occ. eigenvalues --   -0.31762  -0.31205  -0.30292  -0.30105  -0.29780
 Alpha  occ. eigenvalues --   -0.28060  -0.27422  -0.26843  -0.26612  -0.25052
 Alpha  occ. eigenvalues --   -0.24333  -0.20033  -0.17705  -0.16991  -0.15432
 Alpha  occ. eigenvalues --   -0.14327  -0.13706  -0.09517   0.03681
 Alpha virt. eigenvalues --    0.05107   0.06289   0.06500   0.07016   0.07614
 Alpha virt. eigenvalues --    0.08089   0.08924   0.09121   0.09333   0.09484
 Alpha virt. eigenvalues --    0.09964   0.10174   0.10870   0.11044   0.11595

  Beta  occ. eigenvalues --  -14.27352 -14.26984 -14.19909 -14.19381 -10.12793
  Beta  occ. eigenvalues --  -10.12407 -10.11600 -10.11183 -10.10370 -10.10286
  Beta  occ. eigenvalues --  -10.09844 -10.09454 -10.08747 -10.08430 -10.08407
  Beta  occ. eigenvalues --  -10.07827 -10.07745 -10.07614 -10.07525  -0.92061
  Beta  occ. eigenvalues --   -0.89845  -0.79394  -0.78996  -0.75688  -0.71702
  Beta  occ. eigenvalues --   -0.68684  -0.65980  -0.63511  -0.62747  -0.62544
  Beta  occ. eigenvalues --   -0.58934  -0.53377  -0.52364  -0.51875  -0.48920
  Beta  occ. eigenvalues --   -0.47466  -0.45434  -0.43136  -0.40757  -0.40417
  Beta  occ. eigenvalues --   -0.39778  -0.38444  -0.38163  -0.37679  -0.37168
  Beta  occ. eigenvalues --   -0.35201  -0.34637  -0.34360  -0.33282  -0.32503
  Beta  occ. eigenvalues --   -0.31716  -0.31174  -0.30278  -0.30081  -0.29754
  Beta  occ. eigenvalues --   -0.28022  -0.27380  -0.26834  -0.26582  -0.25047
  Beta  occ. eigenvalues --   -0.24321  -0.20015  -0.17698  -0.16973  -0.15395
  Beta  occ. eigenvalues --   -0.14308  -0.13696  -0.09498
  Beta virt. eigenvalues --    0.05510   0.06353   0.06488   0.06846   0.07540
  Beta virt. eigenvalues --    0.08197   0.08420   0.09226   0.09522   0.09672
  Beta virt. eigenvalues --    0.09804   0.10024   0.10380   0.11231   0.11344

 Mulliken charges and spin densities:
               1          2
     1  C    0.517134  -0.852328
     2  N    0.149671   0.046479
     3  C   -0.414170   0.185770
     4  C    0.438437   0.062368
     5  C    0.616082   0.010710
     6  C   -0.910662   0.026306
     7  C   -0.603849   0.033795
     8  C   -0.152566  -0.164568
     9  C   -0.340657  -0.156038
    10  C   -0.011816   0.060148
    11  C   -0.389326  -0.068161
    12  C    0.532851  -0.768394
    13  N   -0.227263   0.244650
    14  C    0.386167  -0.002769
    15  N   -0.086052   0.018558
    16  C    1.528193  -1.851304
    17  C   -1.504420   1.251022
    18  C    1.246363  -1.698347
    19  N   -0.486812   0.057874
    20  H   -0.068848   0.243840
    21  H   -0.028041   0.195225
    22  H   -0.302798   0.429613
    23  H    0.832661  -0.466453
    24  H    0.172529   0.004443
    25  H    0.131788   0.008681
    26  H    0.112526   0.027038
    27  H   -0.021097   0.153804
    28  H   -0.070188   0.246358
    29  H   -0.537330   0.720491
    30  H   -0.411230   0.595782
    31  H   -0.440922   0.589033
    32  H   -0.045910   0.221942
    33  H   -0.113530   0.281007
    34  H   -0.465454   0.642024
    35  H   -0.130468   0.256019
    36  H   -0.046541   0.322366
    37  H    0.145550   0.093014
 Sum of Mulliken charges =  -1.00000   1.00000

 Dipole moment (field-independent basis, Debye):
    X=             -8.4042    Y=              1.3602    Z=             -0.3221  Tot=              8.5197
 Quadrupole moment (field-independent basis, Debye-Ang):
   XX=           -213.8259   YY=           -163.6507   ZZ=           -144.3412
   XY=             -0.5512   XZ=              2.9708   YZ=              0.6221

 Summary of Natural Population Analysis:

                                       Natural Population
                Natural  -----------------------------------------------
    Atom  No    Charge         Core      Valence    Rydberg      Total
 -----------------------------------------------------------------------
      C    1   -0.17446      0.99965     2.16663    0.00818     3.17446
      N    2   -0.22005      0.99965     2.70828    0.01212     3.72005
      C    3   -0.00006      0.99955     1.98687    0.01364     3.00006
      C    4   -0.03634      0.99948     2.03019    0.00667     3.03634
      C    5   -0.05305      0.99954     2.03908    0.01443     3.05305
      C    6   -0.09030      0.99953     2.08148    0.00928     3.09030
      C    7   -0.12125      0.99958     2.11161    0.01006     3.12125
      C    8   -0.11223      0.99959     2.10181    0.01083     3.11223
      C    9   -0.14279      0.99957     2.12799    0.01524     3.14279
      C   10    0.13164      0.99948     1.86218    0.00670     2.86836
      C   11    0.03712      0.99948     1.94643    0.01696     2.96288
      C   12    0.06609      0.99948     1.92075    0.01368     2.93391
      N   13   -0.20337      0.99962     2.69349    0.01026     3.70337
      C   14    0.10896      0.99962     1.87401    0.01740     2.89104
      N   15   -0.25938      0.99971     2.74979    0.00987     3.75938
      C   16   -0.17450      0.99963     2.16672    0.00814     3.17450
      C   17   -0.21378      0.99960     2.20432    0.00986     3.21378
      C   18   -0.08153      0.99963     2.07060    0.01130     3.08153
      N   19   -0.42902      0.99977     2.91818    0.01106     3.92902
      H   20    0.09627      0.00000     0.40238    0.00136     0.40373
      H   21    0.09570      0.00000     0.40302    0.00127     0.40430
      H   22    0.10559      0.00000     0.39346    0.00095     0.39441
      H   23    0.11742      0.00000     0.38087    0.00171     0.38258
      H   24    0.11496      0.00000     0.38396    0.00108     0.38504
      H   25    0.09640      0.00000     0.40282    0.00078     0.40360
      H   26    0.09644      0.00000     0.40280    0.00076     0.40356
      H   27    0.10176      0.00000     0.39714    0.00110     0.39824
      H   28    0.09110      0.00000     0.40768    0.00122     0.40890
      H   29    0.10463      0.00000     0.39236    0.00301     0.39537
      H   30    0.10042      0.00000     0.39770    0.00188     0.39958
      H   31    0.10381      0.00000     0.39427    0.00192     0.39619
      H   32    0.11059      0.00000     0.38784    0.00157     0.38941
      H   33    0.10739      0.00000     0.39129    0.00132     0.39261
      H   34    0.09029      0.00000     0.40790    0.00181     0.40971
      H   35    0.08019      0.00000     0.41681    0.00300     0.41981
      H   36    0.17884      0.00000     0.31919    0.00197     0.32116
      H   37    0.17688      0.00000     0.32111    0.00202     0.32312
 =======================================================================
   * Total *    0.00038     18.99218    48.76301    0.24443    67.99962

 Normal termination of Gaussian 16 at Sat Dec 12 11:16:22 2020.
