 Gaussian 16, Revision A.03,

 -----------------------------------------------------------
 # opt freq B3LYP/6-31G(d) empiricaldispersion=gd3bj scf=xqc
 -----------------------------------------------------------

 ------------------------------
 CID_73023141_JID_3451_neutraal
 ------------------------------
 Symbolic Z-matrix:
 Charge =  0 Multiplicity = 1

 SCF Done:  E(RB3LYP) =  -616.395631774     A.U. after   13 cycles
 SCF Done:  E(RB3LYP) =  -616.400456860     A.U. after   11 cycles
 SCF Done:  E(RB3LYP) =  -616.400941138     A.U. after   10 cycles
 SCF Done:  E(RB3LYP) =  -616.401036140     A.U. after   10 cycles
 SCF Done:  E(RB3LYP) =  -616.401135268     A.U. after   10 cycles
 SCF Done:  E(RB3LYP) =  -616.401153155     A.U. after   10 cycles
 SCF Done:  E(RB3LYP) =  -616.401196371     A.U. after    8 cycles
 SCF Done:  E(RB3LYP) =  -616.401266199     A.U. after   10 cycles
 SCF Done:  E(RB3LYP) =  -616.401270029     A.U. after    8 cycles
 SCF Done:  E(RB3LYP) =  -616.401271002     A.U. after    8 cycles
 SCF Done:  E(RB3LYP) =  -616.401271106     A.U. after    7 cycles
 SCF Done:  E(RB3LYP) =  -616.401271134     A.U. after    7 cycles
 Optimization completed.
    -- Stationary point found.
 Normal termination of Gaussian 16 at Wed Dec  9 23:17:57 2020.

 --------------------------------------------------------------------
 #N Geom=AllCheck Guess=TCheck SCRF=Check GenChk RB3LYP/6-31G(d) Freq
 --------------------------------------------------------------------

 Structure from the checkpoint file:  "JID_3451.chk"
 ------------------------------
 CID_73023141_JID_3451_neutraal
 ------------------------------
 Charge =  0 Multiplicity = 1

 SCF Done:  E(RB3LYP) =  -616.401271134     A.U. after    1 cycles

  Exact polarizability: 122.896   2.545  96.232   2.377  -1.049  96.336
 Approx polarizability: 155.961   0.699 141.787   0.901   0.776 142.286

                      1                      2                      3
                      A                      A                      A
 Frequencies --     39.9096                55.6270               157.8680
 Red. masses --      3.4774                 3.3959                 3.3110
 Frc consts  --      0.0033                 0.0062                 0.0486
 IR Inten    --      1.5414                 3.9463                 1.1982

                      4                      5                      6
                      A                      A                      A
 Frequencies --    187.9539               230.0124               286.9542
 Red. masses --      2.4421                 2.0632                 2.6829
 Frc consts  --      0.0508                 0.0643                 0.1302
 IR Inten    --      0.0703                 0.0619                 2.1076

                      7                      8                      9
                      A                      A                      A
 Frequencies --    299.0487               319.7586               347.5299
 Red. masses --      2.8929                 2.6883                 1.4979
 Frc consts  --      0.1524                 0.1619                 0.1066
 IR Inten    --      8.5523                13.8934               101.5959

                     10                     11                     12
                      A                      A                      A
 Frequencies --    382.6527               395.9724               412.1447
 Red. masses --      2.1141                 4.5372                 2.6055
 Frc consts  --      0.1824                 0.4191                 0.2608
 IR Inten    --      0.6894                 6.6008                 5.5319

                     13                     14                     15
                      A                      A                      A
 Frequencies --    477.9665               545.2970               579.8335
 Red. masses --      3.6438                 3.3586                 3.6012
 Frc consts  --      0.4905                 0.5884                 0.7134
 IR Inten    --      8.6933                 7.8693                 4.5502

                     16                     17                     18
                      A                      A                      A
 Frequencies --    601.7130               650.8220               675.2148
 Red. masses --      4.8220                 2.1827                 4.7944
 Frc consts  --      1.0286                 0.5447                 1.2879
 IR Inten    --      1.1626                 2.5418                 1.2542

                     19                     20                     21
                      A                      A                      A
 Frequencies --    771.9508               797.6263               825.6278
 Red. masses --      7.1239                 2.6910                 1.5287
 Frc consts  --      2.5012                 1.0087                 0.6140
 IR Inten    --      6.7099                 3.2376                12.3618

                     22                     23                     24
                      A                      A                      A
 Frequencies --    850.1649               871.0160               885.8809
 Red. masses --      2.5955                 2.2490                 2.4103
 Frc consts  --      1.1053                 1.0053                 1.1145
 IR Inten    --      6.2806                 4.0666                 8.1354

                     25                     26                     27
                      A                      A                      A
 Frequencies --    925.3688               935.6395               956.1409
 Red. masses --      1.9185                 2.0820                 2.3386
 Frc consts  --      0.9679                 1.0739                 1.2596
 IR Inten    --      5.7869                19.4810                 1.3414

                     28                     29                     30
                      A                      A                      A
 Frequencies --    957.9130               984.2838              1008.3230
 Red. masses --      2.2973                 2.4577                 2.1737
 Frc consts  --      1.2420                 1.4029                 1.3021
 IR Inten    --      8.5445                29.8856                 7.2146

                     31                     32                     33
                      A                      A                      A
 Frequencies --   1043.5305              1062.5362              1071.5748
 Red. masses --      2.7796                 2.6449                 2.7363
 Frc consts  --      1.7833                 1.7593                 1.8512
 IR Inten    --     46.8636                27.7969                 6.0972

                     34                     35                     36
                      A                      A                      A
 Frequencies --   1083.2309              1104.6063              1108.7896
 Red. masses --      4.9434                 1.9387                 2.2032
 Frc consts  --      3.4176                 1.3937                 1.5959
 IR Inten    --     17.2292                 7.8499                 8.3624

                     37                     38                     39
                      A                      A                      A
 Frequencies --   1120.2077              1141.6729              1155.9879
 Red. masses --      2.0836                 1.8083                 2.3020
 Frc consts  --      1.5405                 1.3887                 1.8125
 IR Inten    --     19.6598                24.3245               120.3228

                     40                     41                     42
                      A                      A                      A
 Frequencies --   1174.7566              1180.1774              1204.2326
 Red. masses --      1.1123                 2.5973                 1.1818
 Frc consts  --      0.9044                 2.1314                 1.0098
 IR Inten    --     12.3847               169.4962                33.7882

                     43                     44                     45
                      A                      A                      A
 Frequencies --   1239.5252              1258.9515              1265.0029
 Red. masses --      1.2102                 1.3659                 1.3734
 Frc consts  --      1.0955                 1.2755                 1.2949
 IR Inten    --      3.0892                30.0807                 5.8462

                     46                     47                     48
                      A                      A                      A
 Frequencies --   1272.6214              1283.7517              1287.7612
 Red. masses --      1.4783                 1.2550                 1.2789
 Frc consts  --      1.4107                 1.2186                 1.2495
 IR Inten    --      3.9537                44.4909                 8.0429

                     49                     50                     51
                      A                      A                      A
 Frequencies --   1313.5703              1342.9634              1358.7621
 Red. masses --      1.7384                 1.6401                 1.3594
 Frc consts  --      1.7673                 1.7428                 1.4787
 IR Inten    --      8.7562                11.6091                 2.5096

                     52                     53                     54
                      A                      A                      A
 Frequencies --   1369.4254              1373.2510              1384.7439
 Red. masses --      1.5132                 1.5078                 1.3782
 Frc consts  --      1.6719                 1.6754                 1.5571
 IR Inten    --      0.2080                 3.2808                 3.2254

                     55                     56                     57
                      A                      A                      A
 Frequencies --   1390.5255              1397.9608              1402.1333
 Red. masses --      1.4737                 1.5623                 1.3415
 Frc consts  --      1.6789                 1.7989                 1.5539
 IR Inten    --      5.1971                 5.4246                16.7089

                     58                     59                     60
                      A                      A                      A
 Frequencies --   1418.3550              1451.3246              1502.1419
 Red. masses --      1.5118                 1.4935                 1.0908
 Frc consts  --      1.7920                 1.8535                 1.4502
 IR Inten    --     27.0957                 2.5026                 5.9716

                     61                     62                     63
                      A                      A                      A
 Frequencies --   1514.6157              1518.9400              1539.0027
 Red. masses --      1.0939                 1.0780                 1.0928
 Frc consts  --      1.4785                 1.4654                 1.5251
 IR Inten    --      3.8030                 2.3325                 2.5383

                     64                     65                     66
                      A                      A                      A
 Frequencies --   1541.4973              1549.0481              2993.8350
 Red. masses --      1.0941                 1.1046                 1.0850
 Frc consts  --      1.5318                 1.5617                 5.7296
 IR Inten    --      5.7821                 1.2140                51.3423

                     67                     68                     69
                      A                      A                      A
 Frequencies --   3016.9129              3026.2653              3030.5929
 Red. masses --      1.0732                 1.0662                 1.0840
 Frc consts  --      5.7553                 5.7533                 5.8659
 IR Inten    --     42.3997                74.3315                51.4916

                     70                     71                     72
                      A                      A                      A
 Frequencies --   3059.2804              3066.8719              3069.8288
 Red. masses --      1.0632                 1.0677                 1.0647
 Frc consts  --      5.8626                 5.9169                 5.9116
 IR Inten    --     15.1831                56.1971                48.5042

                     73                     74                     75
                      A                      A                      A
 Frequencies --   3073.4340              3082.1658              3097.3327
 Red. masses --      1.0667                 1.0750                 1.1026
 Frc consts  --      5.9365                 6.0171                 6.2323
 IR Inten    --     24.0962                29.4946                 0.5350

                     76                     77                     78
                      A                      A                      A
 Frequencies --   3114.6258              3115.6390              3118.2328
 Red. masses --      1.0960                 1.1050                 1.1042
 Frc consts  --      6.2641                 6.3200                 6.3258
 IR Inten    --     43.0924                14.0168                40.3334

                     79                     80                     81
                      A                      A                      A
 Frequencies --   3129.5010              3134.2489              3730.5734
 Red. masses --      1.0975                 1.1014                 1.0658
 Frc consts  --      6.3330                 6.3750                 8.7396
 IR Inten    --     38.0149                21.1914                 7.1569

 - Thermochemistry -
 -------------------
 Temperature   298.150 Kelvin.  Pressure   1.00000 Atm.
 Atom     1 has atomic number  6 and mass  12.00000

 Molecular mass:   184.10994 amu.
 Principal axes and moments of inertia in atomic units:
                           1         2         3
     Eigenvalues --  1085.673562871.344593144.48636
           X            0.99988   0.01354   0.00700
           Y           -0.01335   0.99958  -0.02553
           Z           -0.00734   0.02543   0.99965
 This molecule is an asymmetric top.
 Rotational symmetry number  1.
 Warning -- assumption of classical behavior for rotation
           may cause significant error
 Rotational temperatures (Kelvin)      0.07978     0.03016     0.02754
 Rotational constants (GHZ):           1.66232     0.62854     0.57394
 Zero-point vibrational energy     674112.0 (Joules/Mol)
                                  161.11665 (Kcal/Mol)
 Warning -- explicit consideration of  16 degrees of freedom as
           vibrations may cause significant error
 Vibrational temperatures:     57.42    80.03   227.14   270.42   330.94
          (Kelvin)            412.86   430.26   460.06   500.02   550.55
                              569.72   592.98   687.69   784.56   834.25
                              865.73   936.39   971.48  1110.67  1147.61
                             1187.89  1223.20  1253.20  1274.58  1331.40
                             1346.18  1375.67  1378.22  1416.16  1450.75
                             1501.41  1528.75  1541.76  1558.53  1589.28
                             1595.30  1611.73  1642.61  1663.21  1690.21
                             1698.01  1732.62  1783.40  1811.35  1820.06
                             1831.02  1847.03  1852.80  1889.93  1932.22
                             1954.96  1970.30  1975.80  1992.34  2000.66
                             2011.35  2017.36  2040.70  2088.13  2161.25
                             2179.19  2185.42  2214.28  2217.87  2228.73
                             4307.46  4340.66  4354.12  4360.35  4401.62
                             4412.54  4416.80  4421.99  4434.55  4456.37
                             4481.25  4482.71  4486.44  4502.65  4509.49
                             5367.46

 Zero-point correction=                           0.256756 (Hartree/Particle)
 Thermal correction to Energy=                    0.267719
 Thermal correction to Enthalpy=                  0.268663
 Thermal correction to Gibbs Free Energy=         0.219755
 Sum of electronic and zero-point Energies=           -616.144515
 Sum of electronic and thermal Energies=              -616.133552
 Sum of electronic and thermal Enthalpies=            -616.132608
 Sum of electronic and thermal Free Energies=         -616.181516

                     E (Thermal)             CV                S
                      KCal/Mol        Cal/Mol-Kelvin    Cal/Mol-Kelvin
 Total                  167.996             44.794            102.937
 Electronic               0.000              0.000              0.000
 Translational            0.889              2.981             41.537
 Rotational               0.889              2.981             30.662
 Vibrational            166.219             38.832             30.738
 Vibration     1          0.594              1.981              5.264
 Vibration     2          0.596              1.975              4.607
 Vibration     3          0.621              1.894              2.575
 Vibration     4          0.633              1.856              2.248
 Vibration     5          0.652              1.795              1.879
 Vibration     6          0.684              1.698              1.492
 Vibration     7          0.692              1.675              1.422
 Vibration     8          0.706              1.636              1.311
 Vibration     9          0.725              1.580              1.177
 Vibration    10          0.752              1.507              1.029
 Vibration    11          0.763              1.479              0.978
 Vibration    12          0.776              1.444              0.919
 Vibration    13          0.834              1.299              0.716
 Vibration    14          0.900              1.150              0.554
 Vibration    15          0.936              1.075              0.486
 Vibration    16          0.960              1.028              0.447

 Optimization completed.
    -- Stationary point found.
 Normal termination of Gaussian 16 at Wed Dec  9 23:26:11 2020.

 ----------------------------------------------------------------------
 # B3LYP/6-311++G(d,p) empiricaldispersion=gd3bj scf=xqc pop=npa geom=c
 heck
 ----------------------------------------------------------------------

 --------------------------------------
 CID_73023141_JID_3451_Energie_neutraal
 --------------------------------------
 Structure from the checkpoint file:  "JID_3451.chk"
 Charge =  0 Multiplicity = 1

 SCF Done:  E(RB3LYP) =  -616.581996941     A.U. after   13 cycles
 Normal termination of Gaussian 16 at Wed Dec  9 23:29:24 2020.

 ----------------------------------------------------------------------
 # B3LYP/6-311++G(d,p) empiricaldispersion=gd3bj scf=xqc pop=npa geom=c
 heck
 ----------------------------------------------------------------------

 ------------------------------------
 CID_73023141_JID_3451_Energie_kation
 ------------------------------------
 Structure from the checkpoint file:  "JID_3451.chk"
 Charge =  1 Multiplicity = 2

 SCF Done:  E(UB3LYP) =  -616.260671801     A.U. after   23 cycles
 Normal termination of Gaussian 16 at Wed Dec  9 23:37:19 2020.
 Gaussian 16:  ES64L-G16RevA.03 25-Dec-2016

 ----------------------------------------------------------------------
 # B3LYP/6-311++G(d,p) empiricaldispersion=gd3bj scf=xqc pop=npa geom=c
 heck
 ----------------------------------------------------------------------

 -----------------------------------
 CID_73023141_JID_3451_Energie_anion
 -----------------------------------
 Structure from the checkpoint file:  "JID_3451.chk"
 Charge = -1 Multiplicity = 2

                         Standard orientation:
 ---------------------------------------------------------------------
 Center     Atomic      Atomic             Coordinates (Angstroms)
 Number     Number       Type             X           Y           Z
 ---------------------------------------------------------------------
      1          6           0        0.761275    1.670862   -0.843676
      2          6           0        1.775478    1.519032    0.324225
      3          6           0        1.495812    0.200075    1.064999
      4          6           0        0.006774    0.127598    1.442878
      5          6           0       -0.856068    0.058433    0.164358
      6          6           0        0.026466    0.336082   -1.062930
      7          6           0        1.055643   -0.800192   -1.199667
      8          6           0        1.820380   -0.982094    0.131065
      9          8           0        3.212178   -1.060983   -0.182432
     10          8           0       -1.929596    0.993131    0.276714
     11          6           0       -3.084857    0.371020   -0.270917
     12          6           0       -2.873646   -1.083668    0.132389
     13          8           0       -1.465261   -1.235178    0.004717
     14          1           0        0.025828    2.451818   -0.626807
     15          1           0        1.275361    1.958446   -1.767171
     16          1           0        2.802426    1.496546   -0.052577
     17          1           0        1.700175    2.364005    1.017621
     18          1           0        2.113595    0.129952    1.971030
     19          1           0       -0.284116    1.014940    2.013859
     20          1           0       -0.210606   -0.754522    2.054143
     21          1           0       -0.613188    0.384354   -1.950904
     22          1           0        0.565388   -1.729870   -1.495867
     23          1           0        1.785419   -0.541789   -1.974383
     24          1           0        1.497655   -1.913938    0.621247
     25          1           0        3.689548   -1.195487    0.651616
     26          1           0       -3.119859    0.481184   -1.364817
     27          1           0       -3.968293    0.839962    0.169286
     28          1           0       -3.365132   -1.807292   -0.524198
     29          1           0       -3.196322   -1.256964    1.169584
 ---------------------------------------------------------------------

 SCF Done:  E(UB3LYP) =  -616.567258508     A.U. after   29 cycles

 The electronic state is 2-A.
 Alpha  occ. eigenvalues --  -19.03226 -19.02684 -19.01542 -10.16976 -10.12062
 Alpha  occ. eigenvalues --  -10.11946 -10.11171 -10.06985 -10.06636 -10.06225
 Alpha  occ. eigenvalues --  -10.06108 -10.05849 -10.05845  -0.99161  -0.91679
 Alpha  occ. eigenvalues --   -0.89668  -0.75584  -0.67055  -0.65588  -0.63305
 Alpha  occ. eigenvalues --   -0.59134  -0.53751  -0.50899  -0.50424  -0.48771
 Alpha  occ. eigenvalues --   -0.42173  -0.42005  -0.40840  -0.39967  -0.37854
 Alpha  occ. eigenvalues --   -0.37209  -0.35848  -0.32182  -0.30445  -0.30026
 Alpha  occ. eigenvalues --   -0.29467  -0.29385  -0.28525  -0.27726  -0.27552
 Alpha  occ. eigenvalues --   -0.27120  -0.24809  -0.24252  -0.23294  -0.21055
 Alpha  occ. eigenvalues --   -0.20732  -0.19993  -0.17433  -0.16392  -0.15020
 Alpha  occ. eigenvalues --    0.04506
 Alpha virt. eigenvalues --    0.06128   0.07722   0.08215   0.08896   0.09410
 Alpha virt. eigenvalues --    0.09566   0.10390   0.10838   0.11718   0.12001
 Alpha virt. eigenvalues --    0.12749   0.12972   0.13696   0.14362   0.15021

  Beta  occ. eigenvalues --  -19.03223 -19.02682 -19.01509 -10.16976 -10.12030
  Beta  occ. eigenvalues --  -10.11917 -10.11162 -10.06979 -10.06616 -10.06219
  Beta  occ. eigenvalues --  -10.06096 -10.05843 -10.05834  -0.99152  -0.91611
  Beta  occ. eigenvalues --   -0.89659  -0.75556  -0.67017  -0.65561  -0.63274
  Beta  occ. eigenvalues --   -0.59094  -0.53686  -0.50865  -0.50391  -0.48739
  Beta  occ. eigenvalues --   -0.42130  -0.41963  -0.40784  -0.39921  -0.37799
  Beta  occ. eigenvalues --   -0.37181  -0.35804  -0.32155  -0.30421  -0.30004
  Beta  occ. eigenvalues --   -0.29438  -0.29363  -0.28489  -0.27698  -0.27528
  Beta  occ. eigenvalues --   -0.27092  -0.24776  -0.24238  -0.23266  -0.21033
  Beta  occ. eigenvalues --   -0.20705  -0.19960  -0.17412  -0.16360  -0.15003
  Beta virt. eigenvalues --    0.06886   0.07672   0.08168   0.08780   0.09526
  Beta virt. eigenvalues --    0.09942   0.10088   0.10714   0.10925   0.12339
  Beta virt. eigenvalues --    0.12416   0.12980   0.13313   0.13834   0.14421

 Mulliken charges and spin densities:
               1          2
     1  C   -0.183392  -0.291230
     2  C    0.234486  -0.799103
     3  C   -0.699210   1.132812
     4  C    0.753160  -1.095229
     5  C   -2.228581   0.522920
     6  C    1.070370  -0.015767
     7  C   -0.159196  -0.395117
     8  C    0.733830  -1.220033
     9  O   -0.190738  -0.027177
    10  O   -0.015481   0.035648
    11  C    0.851524  -0.873816
    12  C    0.731156  -0.788146
    13  O   -0.004141   0.039301
    14  H    0.121986   0.057160
    15  H    0.027422   0.114736
    16  H    0.136153   0.030623
    17  H   -0.108567   0.256291
    18  H   -0.993281   1.249097
    19  H    0.091345   0.093439
    20  H   -0.149552   0.316474
    21  H    0.027488   0.202593
    22  H    0.113918   0.050008
    23  H    0.132110   0.057953
    24  H   -0.021842   0.242908
    25  H   -0.132561   0.387234
    26  H   -0.044104   0.163571
    27  H   -0.565132   0.739045
    28  H   -0.546926   0.709203
    29  H    0.017754   0.104600
 Sum of Mulliken charges =  -1.00000   1.00000

 Dipole moment (field-independent basis, Debye):
    X=              0.2591    Y=              1.6743    Z=             -2.3583  Tot=              2.9038
 Quadrupole moment (field-independent basis, Debye-Ang):
   XX=           -155.2651   YY=           -112.0678   ZZ=           -115.4932
   XY=              1.9672   XZ=             -9.6114   YZ=             -1.2605

 Summary of Natural Population Analysis:

                                       Natural Population
                Natural  -----------------------------------------------
    Atom  No    Charge         Core      Valence    Rydberg      Total
 -----------------------------------------------------------------------
      C    1   -0.19231      0.99962     2.18474    0.00795     3.19231
      C    2   -0.19465      0.99962     2.18594    0.00909     3.19465
      C    3   -0.12279      0.99958     2.10866    0.01455     3.12279
      C    4   -0.21143      0.99954     2.19820    0.01370     3.21143
      C    5    0.30985      0.99948     1.66728    0.02339     2.69015
      C    6   -0.12934      0.99951     2.11736    0.01248     3.12934
      C    7   -0.19819      0.99960     2.18941    0.00918     3.19819
      C    8    0.06620      0.99952     1.92026    0.01402     2.93380
      O    9   -0.37549      0.99989     3.36919    0.00641     4.37549
      O   10   -0.30667      0.99987     3.29792    0.00888     4.30667
      C   11   -0.02372      0.99958     2.01191    0.01223     3.02372
      C   12   -0.02075      0.99958     2.00909    0.01207     3.02075
      O   13   -0.31247      0.99987     3.30366    0.00894     4.31247
      H   14    0.10338      0.00000     0.39517    0.00146     0.39662
      H   15    0.09784      0.00000     0.40119    0.00097     0.40216
      H   16    0.10472      0.00000     0.39386    0.00141     0.39528
      H   17    0.09829      0.00000     0.40073    0.00099     0.40171
      H   18    0.10586      0.00000     0.38994    0.00421     0.39414
      H   19    0.10988      0.00000     0.38870    0.00142     0.39012
      H   20    0.11024      0.00000     0.38831    0.00145     0.38976
      H   21    0.10544      0.00000     0.39270    0.00186     0.39456
      H   22    0.10851      0.00000     0.39024    0.00125     0.39149
      H   23    0.10557      0.00000     0.39310    0.00133     0.39443
      H   24    0.08133      0.00000     0.41672    0.00195     0.41867
      H   25    0.23113      0.00000     0.26395    0.00492     0.26887
      H   26    0.08064      0.00000     0.41761    0.00175     0.41936
      H   27    0.09524      0.00000     0.40284    0.00192     0.40476
      H   28    0.09327      0.00000     0.40476    0.00197     0.40673
      H   29    0.08042      0.00000     0.41804    0.00154     0.41958
 =======================================================================
   * Total *    0.00000     12.99525    36.82146    0.18328    50.00000

 Normal termination of Gaussian 16 at Wed Dec  9 23:47:07 2020.
