 Gaussian 16, Revision A.03,

 -----------------------------------------------------------
 # opt freq B3LYP/6-31G(d) empiricaldispersion=gd3bj scf=xqc
 -----------------------------------------------------------

 ------------------------------
 CID_79597886_JID_8634_neutraal
 ------------------------------
 Symbolic Z-matrix:
 Charge =  0 Multiplicity = 1

 SCF Done:  E(RB3LYP) =  -754.784440898     A.U. after   14 cycles
 SCF Done:  E(RB3LYP) =  -754.788446821     A.U. after   12 cycles
 SCF Done:  E(RB3LYP) =  -754.789278036     A.U. after   12 cycles
 SCF Done:  E(RB3LYP) =  -754.789667002     A.U. after   12 cycles
 SCF Done:  E(RB3LYP) =  -754.789812529     A.U. after   12 cycles
 SCF Done:  E(RB3LYP) =  -754.789850867     A.U. after   11 cycles
 SCF Done:  E(RB3LYP) =  -754.789858126     A.U. after   10 cycles
 SCF Done:  E(RB3LYP) =  -754.789861353     A.U. after    9 cycles
 SCF Done:  E(RB3LYP) =  -754.789864034     A.U. after    9 cycles
 SCF Done:  E(RB3LYP) =  -754.789864742     A.U. after    9 cycles
 SCF Done:  E(RB3LYP) =  -754.789864946     A.U. after    8 cycles
 SCF Done:  E(RB3LYP) =  -754.789864969     A.U. after    6 cycles
 SCF Done:  E(RB3LYP) =  -754.789864984     A.U. after    6 cycles
 Optimization completed.
    -- Stationary point found.
 Normal termination of Gaussian 16 at Fri Dec 11 21:19:59 2020.

 --------------------------------------------------------------------
 #N Geom=AllCheck Guess=TCheck SCRF=Check GenChk RB3LYP/6-31G(d) Freq
 --------------------------------------------------------------------

 Structure from the checkpoint file:  "JID_8634.chk"
 ------------------------------
 CID_79597886_JID_8634_neutraal
 ------------------------------
 Charge =  0 Multiplicity = 1

 SCF Done:  E(RB3LYP) =  -754.789864984     A.U. after    1 cycles

  Exact polarizability: 275.319  15.755 181.814 -16.646   9.504 118.890
 Approx polarizability: 352.449  24.654 279.871 -31.286  21.662 181.753

                      1                      2                      3
                      A                      A                      A
 Frequencies --     14.5919                21.0430                25.9222
 Red. masses --      3.5661                 3.1108                 3.7535
 Frc consts  --      0.0004                 0.0008                 0.0015
 IR Inten    --      0.3470                 0.2498                 0.0128

                      4                      5                      6
                      A                      A                      A
 Frequencies --     48.4288                92.4824               102.6440
 Red. masses --      3.6781                 3.3512                 3.6540
 Frc consts  --      0.0051                 0.0169                 0.0227
 IR Inten    --      1.3398                 1.1495                 0.5193

                      7                      8                      9
                      A                      A                      A
 Frequencies --    109.1088               129.0824               162.5097
 Red. masses --      3.2722                 2.0185                 1.1721
 Frc consts  --      0.0230                 0.0198                 0.0182
 IR Inten    --      2.3745                 0.9370                 0.3389

                     10                     11                     12
                      A                      A                      A
 Frequencies --    182.4940               202.6214               213.1260
 Red. masses --      2.5907                 1.9403                 2.3446
 Frc consts  --      0.0508                 0.0469                 0.0627
 IR Inten    --      1.4400                 0.4118                 1.9319

                     13                     14                     15
                      A                      A                      A
 Frequencies --    224.5178               228.5896               246.4286
 Red. masses --      1.3282                 2.6874                 2.1084
 Frc consts  --      0.0394                 0.0827                 0.0754
 IR Inten    --      1.0149                 0.5726                 0.8348

                     16                     17                     18
                      A                      A                      A
 Frequencies --    268.1986               276.3112               281.1061
 Red. masses --      1.0428                 1.4396                 1.0749
 Frc consts  --      0.0442                 0.0648                 0.0500
 IR Inten    --      0.0900                 0.3141                 0.5799

                     19                     20                     21
                      A                      A                      A
 Frequencies --    319.8656               343.7690               347.0088
 Red. masses --      2.9011                 2.4918                 2.3418
 Frc consts  --      0.1749                 0.1735                 0.1661
 IR Inten    --      0.2385                 4.3579                 0.2889

                     22                     23                     24
                      A                      A                      A
 Frequencies --    351.8536               382.5798               422.5972
 Red. masses --      2.5641                 3.0690                 2.9290
 Frc consts  --      0.1870                 0.2647                 0.3082
 IR Inten    --      0.9370                 1.3835                 1.3096

                     25                     26                     27
                      A                      A                      A
 Frequencies --    449.0061               453.8385               465.8765
 Red. masses --      2.7403                 2.4615                 3.0038
 Frc consts  --      0.3255                 0.2987                 0.3841
 IR Inten    --      4.7156                 5.0161                 1.6230

                     28                     29                     30
                      A                      A                      A
 Frequencies --    484.3032               489.3948               536.5675
 Red. masses --      3.8664                 3.0972                 3.1256
 Frc consts  --      0.5343                 0.4371                 0.5302
 IR Inten    --      2.1462                 8.2830                 2.0617

                     31                     32                     33
                      A                      A                      A
 Frequencies --    545.1578               600.3756               611.0202
 Red. masses --      3.9339                 3.0012                 3.9534
 Frc consts  --      0.6888                 0.6374                 0.8696
 IR Inten    --      2.7380                 0.5742                 7.0525

                     34                     35                     36
                      A                      A                      A
 Frequencies --    724.8214               730.0157               744.1081
 Red. masses --      4.0356                 4.4659                 2.9157
 Frc consts  --      1.2492                 1.4022                 0.9512
 IR Inten    --      5.4345                 1.4041                16.5396

                     37                     38                     39
                      A                      A                      A
 Frequencies --    793.9193               809.5829               831.7145
 Red. masses --      1.6152                 2.2853                 1.4286
 Frc consts  --      0.5998                 0.8825                 0.5822
 IR Inten    --     47.7446                 8.1732                17.0029

                     40                     41                     42
                      A                      A                      A
 Frequencies --    856.1111               860.3523               874.8683
 Red. masses --      1.8038                 1.6149                 1.9299
 Frc consts  --      0.7789                 0.7043                 0.8703
 IR Inten    --      8.3439                13.8652                 5.8408

                     43                     44                     45
                      A                      A                      A
 Frequencies --    922.2148               931.6193               947.9368
 Red. masses --      1.7584                 2.0663                 1.6232
 Frc consts  --      0.8811                 1.0566                 0.8594
 IR Inten    --      0.1066                 1.4906                 4.1335

                     46                     47                     48
                      A                      A                      A
 Frequencies --    958.1586               964.9143               970.2204
 Red. masses --      1.3753                 3.6742                 1.2211
 Frc consts  --      0.7439                 2.0155                 0.6773
 IR Inten    --      0.3637                 6.1111                 0.1480

                     49                     50                     51
                      A                      A                      A
 Frequencies --    977.8431              1019.9390              1032.6056
 Red. masses --      2.1469                 1.1125                 1.6034
 Frc consts  --      1.2095                 0.6819                 1.0073
 IR Inten    --      3.2293                28.1744                11.2107

                     52                     53                     54
                      A                      A                      A
 Frequencies --   1045.9749              1058.1322              1071.6784
 Red. masses --      1.4681                 1.4250                 1.5129
 Frc consts  --      0.9463                 0.9401                 1.0238
 IR Inten    --      2.3200                 0.5943                 3.1267

                     55                     56                     57
                      A                      A                      A
 Frequencies --   1084.5716              1091.4734              1113.3202
 Red. masses --      1.7987                 3.2969                 2.4719
 Frc consts  --      1.2466                 2.3141                 1.8052
 IR Inten    --     18.6370                51.7069                 2.9391

                     58                     59                     60
                      A                      A                      A
 Frequencies --   1134.7371              1144.3177              1186.5374
 Red. masses --      2.2446                 2.9157                 1.2717
 Frc consts  --      1.7029                 2.2495                 1.0549
 IR Inten    --     38.8935                16.3154                 0.7315

                     61                     62                     63
                      A                      A                      A
 Frequencies --   1204.5488              1224.5709              1225.3258
 Red. masses --      1.5061                 1.3563                 1.3535
 Frc consts  --      1.2875                 1.1983                 1.1973
 IR Inten    --     12.2215                 2.0245                 7.4712

                     64                     65                     66
                      A                      A                      A
 Frequencies --   1239.8326              1252.0435              1256.7570
 Red. masses --      1.5724                 2.0840                 2.2284
 Frc consts  --      1.4241                 1.9249                 2.0737
 IR Inten    --     23.5214                75.3055                27.1540

                     67                     68                     69
                      A                      A                      A
 Frequencies --   1277.6319              1305.8986              1321.5567
 Red. masses --      2.6776                 3.4773                 1.8539
 Frc consts  --      2.5752                 3.4939                 1.9077
 IR Inten    --     56.3170               166.9474                26.9659

                     70                     71                     72
                      A                      A                      A
 Frequencies --   1331.2790              1336.5973              1356.3786
 Red. masses --      1.7070                 1.3297                 2.7217
 Frc consts  --      1.7825                 1.3996                 2.9502
 IR Inten    --     27.7534                17.4635                84.0681

                     73                     74                     75
                      A                      A                      A
 Frequencies --   1374.3574              1388.1013              1407.5622
 Red. masses --      1.3390                 1.8281                 1.3362
 Frc consts  --      1.4902                 2.0754                 1.5598
 IR Inten    --      5.3927                21.4426                 7.5494

                     76                     77                     78
                      A                      A                      A
 Frequencies --   1423.1098              1426.9035              1443.9911
 Red. masses --      1.2426                 1.2947                 1.2409
 Frc consts  --      1.4827                 1.5531                 1.5245
 IR Inten    --     11.4337                 9.3056                 0.3952

                     79                     80                     81
                      A                      A                      A
 Frequencies --   1451.3213              1464.3442              1502.8866
 Red. masses --      1.2285                 2.9360                 1.1662
 Frc consts  --      1.5246                 3.7094                 1.5519
 IR Inten    --     15.6016                 7.6138                 4.4525

                     82                     83                     84
                      A                      A                      A
 Frequencies --   1503.9480              1505.3275              1512.7341
 Red. masses --      1.2086                 1.0736                 1.0887
 Frc consts  --      1.6107                 1.4333                 1.4678
 IR Inten    --     11.2355                10.1335                14.7662

                     85                     86                     87
                      A                      A                      A
 Frequencies --   1515.9951              1516.5972              1518.9585
 Red. masses --      1.0640                 1.0456                 1.0471
 Frc consts  --      1.4407                 1.4169                 1.4235
 IR Inten    --      6.1130                 6.6186                 0.4994

                     88                     89                     90
                      A                      A                      A
 Frequencies --   1520.7868              1525.5890              1532.7809
 Red. masses --      1.0479                 1.2367                 1.0580
 Frc consts  --      1.4279                 1.6958                 1.4645
 IR Inten    --      3.9099                 7.3901                 4.9645

                     91                     92                     93
                      A                      A                      A
 Frequencies --   1536.3913              1541.0143              1549.5030
 Red. masses --      1.0729                 1.0772                 1.1431
 Frc consts  --      1.4921                 1.5072                 1.6170
 IR Inten    --     59.7804                 1.1585                24.9214

                     94                     95                     96
                      A                      A                      A
 Frequencies --   1552.2153              1558.1398              1626.2780
 Red. masses --      1.0695                 2.1718                 7.1049
 Frc consts  --      1.5182                 3.1066                11.0713
 IR Inten    --     19.1794                85.4467                 8.3537

                     97                     98                     99
                      A                      A                      A
 Frequencies --   1670.4246              1725.7252              2963.2437
 Red. masses --      5.6220                 5.7007                 1.0721
 Frc consts  --      9.2425                10.0029                 5.5467
 IR Inten    --    135.1668                 0.5928                48.1099

                    100                    101                    102
                      A                      A                      A
 Frequencies --   3024.4557              3039.2924              3039.8849
 Red. masses --      1.0348                 1.0376                 1.0582
 Frc consts  --      5.5771                 5.6474                 5.7612
 IR Inten    --     68.4213                20.5919                34.5262

                    103                    104                    105
                      A                      A                      A
 Frequencies --   3042.5025              3043.8133              3055.3725
 Red. masses --      1.0392                 1.0368                 1.0368
 Frc consts  --      5.6678                 5.6594                 5.7024
 IR Inten    --     26.8329                26.6736                 7.1676

                    106                    107                    108
                      A                      A                      A
 Frequencies --   3082.4818              3084.4770              3089.3329
 Red. masses --      1.1065                 1.1004                 1.0920
 Frc consts  --      6.1946                 6.1680                 6.1403
 IR Inten    --     43.7922                21.8371                61.1437

                    109                    110                    111
                      A                      A                      A
 Frequencies --   3095.5171              3103.3562              3109.7078
 Red. masses --      1.0987                 1.1003                 1.0991
 Frc consts  --      6.2029                 6.2434                 6.2624
 IR Inten    --     20.3372                 2.9530                74.2884

                    112                    113                    114
                      A                      A                      A
 Frequencies --   3116.5363              3121.6758              3127.3015
 Red. masses --      1.1011                 1.1007                 1.1010
 Frc consts  --      6.3014                 6.3199                 6.3440
 IR Inten    --      3.9930                66.4037                20.7921

                    115                    116                    117
                      A                      A                      A
 Frequencies --   3129.4442              3134.7605              3151.7999
 Red. masses --      1.1033                 1.1027                 1.0896
 Frc consts  --      6.3659                 6.3843                 6.3773
 IR Inten    --      8.9113                53.3065                 2.9992

                    118                    119                    120
                      A                      A                      A
 Frequencies --   3157.7030              3158.6982              3195.6495
 Red. masses --      1.0996                 1.0855                 1.0872
 Frc consts  --      6.4598                 6.3812                 6.5412
 IR Inten    --     34.7948                34.2351                13.2430

                    121                    122                    123
                      A                      A                      A
 Frequencies --   3216.2558              3218.1126              3473.3758
 Red. masses --      1.0891                 1.0940                 1.0729
 Frc consts  --      6.6375                 6.6753                 7.6263
 IR Inten    --     17.4582                 9.7561                 1.9801

 - Thermochemistry -
 -------------------
 Temperature   298.150 Kelvin.  Pressure   1.00000 Atm.
 Atom     1 has atomic number  6 and mass  12.00000

 Molecular mass:   247.19361 amu.
 Principal axes and moments of inertia in atomic units:
                           1         2         3
     Eigenvalues --  2099.20649********************
           X            0.99996  -0.00920   0.00008
           Y            0.00920   0.99993   0.00752
           Z           -0.00015  -0.00752   0.99997
 This molecule is an asymmetric top.
 Rotational symmetry number  1.
 Warning -- assumption of classical behavior for rotation
           may cause significant error
 Rotational temperatures (Kelvin)      0.04126     0.00660     0.00595
 Rotational constants (GHZ):           0.85973     0.13748     0.12397
 Zero-point vibrational energy    1005558.6 (Joules/Mol)
                                  240.33427 (Kcal/Mol)
 Warning -- explicit consideration of  33 degrees of freedom as
           vibrations may cause significant error
 Vibrational temperatures:     20.99    30.28    37.30    69.68   133.06
          (Kelvin)            147.68   156.98   185.72   233.82   262.57
                              291.53   306.64   323.03   328.89   354.56
                              385.88   397.55   404.45   460.22   494.61
                              499.27   506.24   550.45   608.02   646.02
                              652.97   670.29   696.80   704.13   772.00
                              784.36   863.81   879.12  1042.86  1050.33
                             1070.61  1142.27  1164.81  1196.65  1231.75
                             1237.86  1258.74  1326.86  1340.39  1363.87
                             1378.58  1388.30  1395.93  1406.90  1467.46
                             1485.69  1504.92  1522.42  1541.91  1560.46
                             1570.39  1601.82  1632.63  1646.42  1707.16
                             1733.08  1761.88  1762.97  1783.84  1801.41
                             1808.19  1838.23  1878.90  1901.43  1915.41
                             1923.07  1951.53  1977.39  1997.17  2025.17
                             2047.54  2053.00  2077.58  2088.13  2106.86
                             2162.32  2163.85  2165.83  2176.49  2181.18
                             2182.05  2185.44  2188.07  2194.98  2205.33
                             2210.52  2217.18  2229.39  2233.29  2241.82
                             2339.85  2403.37  2482.93  4263.45  4351.52
                             4372.86  4373.72  4377.48  4379.37  4396.00
                             4435.00  4437.87  4444.86  4453.76  4465.04
                             4474.18  4484.00  4491.40  4499.49  4502.57
                             4510.22  4534.74  4543.23  4544.66  4597.83
                             4627.47  4630.15  4997.41

 Zero-point correction=                           0.382997 (Hartree/Particle)
 Thermal correction to Energy=                    0.403077
 Thermal correction to Enthalpy=                  0.404021
 Thermal correction to Gibbs Free Energy=         0.332474
 Sum of electronic and zero-point Energies=           -754.406868
 Sum of electronic and thermal Energies=              -754.386788
 Sum of electronic and thermal Enthalpies=            -754.385844
 Sum of electronic and thermal Free Energies=         -754.457391

                     E (Thermal)             CV                S
                      KCal/Mol        Cal/Mol-Kelvin    Cal/Mol-Kelvin
 Total                  252.934             75.822            150.584
 Electronic               0.000              0.000              0.000
 Translational            0.889              2.981             42.416
 Rotational               0.889              2.981             34.350
 Vibrational            251.157             69.861             73.818
 Vibration     1          0.593              1.986              7.260
 Vibration     2          0.593              1.985              6.533
 Vibration     3          0.593              1.985              6.119
 Vibration     4          0.595              1.978              4.881
 Vibration     5          0.602              1.955              3.607
 Vibration     6          0.605              1.947              3.403
 Vibration     7          0.606              1.942              3.285
 Vibration     8          0.612              1.924              2.960
 Vibration     9          0.623              1.888              2.520
 Vibration    10          0.630              1.864              2.303
 Vibration    11          0.639              1.836              2.109
 Vibration    12          0.644              1.821              2.017
 Vibration    13          0.649              1.804              1.922
 Vibration    14          0.651              1.797              1.890
 Vibration    15          0.661              1.769              1.756
 Vibration    16          0.673              1.732              1.608
 Vibration    17          0.678              1.717              1.556
 Vibration    18          0.681              1.709              1.527
 Vibration    19          0.706              1.636              1.311
 Vibration    20          0.723              1.588              1.195
 Vibration    21          0.725              1.581              1.180
 Vibration    22          0.728              1.571              1.158
 Vibration    23          0.752              1.507              1.029
 Vibration    24          0.785              1.421              0.883
 Vibration    25          0.808              1.363              0.799
 Vibration    26          0.812              1.352              0.784
 Vibration    27          0.823              1.326              0.749
 Vibration    28          0.840              1.285              0.699
 Vibration    29          0.845              1.274              0.685
 Vibration    30          0.892              1.169              0.573
 Vibration    31          0.900              1.150              0.554
 Vibration    32          0.959              1.031              0.449
 Vibration    33          0.970              1.009              0.431

 Optimization completed.
    -- Stationary point found.
 Normal termination of Gaussian 16 at Fri Dec 11 21:36:18 2020.

 ----------------------------------------------------------------------
 # B3LYP/6-311++G(d,p) empiricaldispersion=gd3bj scf=xqc pop=npa geom=c
 heck
 ----------------------------------------------------------------------

 --------------------------------------
 CID_79597886_JID_8634_Energie_neutraal
 --------------------------------------
 Structure from the checkpoint file:  "JID_8634.chk"
 Charge =  0 Multiplicity = 1

 SCF Done:  E(RB3LYP) =  -754.998228337     A.U. after   15 cycles
 Normal termination of Gaussian 16 at Fri Dec 11 21:45:04 2020.

 ----------------------------------------------------------------------
 # B3LYP/6-311++G(d,p) empiricaldispersion=gd3bj scf=xqc pop=npa geom=c
 heck
 ----------------------------------------------------------------------

 ------------------------------------
 CID_79597886_JID_8634_Energie_kation
 ------------------------------------
 Structure from the checkpoint file:  "JID_8634.chk"
 Charge =  1 Multiplicity = 2

 SCF Done:  E(UB3LYP) =  -754.735468212     A.U. after   22 cycles
 Normal termination of Gaussian 16 at Fri Dec 11 22:03:11 2020.
 Gaussian 16:  ES64L-G16RevA.03 25-Dec-2016

 ----------------------------------------------------------------------
 # B3LYP/6-311++G(d,p) empiricaldispersion=gd3bj scf=xqc pop=npa geom=c
 heck
 ----------------------------------------------------------------------

 -----------------------------------
 CID_79597886_JID_8634_Energie_anion
 -----------------------------------
 Structure from the checkpoint file:  "JID_8634.chk"
 Charge = -1 Multiplicity = 2

                         Standard orientation:
 ---------------------------------------------------------------------
 Center     Atomic      Atomic             Coordinates (Angstroms)
 Number     Number       Type             X           Y           Z
 ---------------------------------------------------------------------
      1          6           0       -2.955477    2.664905    0.516953
      2          6           0       -2.845203    1.188549    0.215406
      3          6           0       -1.601210    0.595484   -0.087529
      4          6           0       -1.574479   -0.785353   -0.359386
      5          6           0       -2.724363   -1.556682   -0.359193
      6          6           0       -3.956941   -0.958819   -0.068106
      7          6           0       -4.007091    0.407516    0.220229
      8          8           0       -5.040895   -1.788394   -0.082334
      9          6           0       -6.308195   -1.230969    0.219501
     10          6           0       -0.369312    1.396090   -0.108330
     11          6           0        0.745726    1.118255   -0.801616
     12          6           0        2.010916    1.925560   -0.733662
     13          6           0        3.106256    1.250099    0.113461
     14          7           0        3.439016   -0.061878   -0.434406
     15          6           0        4.567903   -0.793035    0.180328
     16          6           0        4.420339   -0.964330    1.706084
     17          6           0        4.590602   -2.174995   -0.488515
     18          6           0        5.879104   -0.059238   -0.140343
     19          1           0       -2.398321    2.937881    1.422288
     20          1           0       -2.554595    3.274630   -0.300923
     21          1           0       -3.998590    2.955199    0.672820
     22          1           0       -0.619691   -1.264133   -0.555129
     23          1           0       -2.694327   -2.621743   -0.564393
     24          1           0       -4.952026    0.887307    0.448373
     25          1           0       -6.331446   -0.807342    1.232342
     26          1           0       -6.587850   -0.451252   -0.501354
     27          1           0       -7.021581   -2.054427    0.155645
     28          1           0       -0.374442    2.304771    0.492715
     29          1           0        0.765487    0.246378   -1.454931
     30          1           0        2.409732    2.078983   -1.744407
     31          1           0        1.799492    2.911915   -0.301584
     32          1           0        4.003306    1.877709    0.088191
     33          1           0        2.762939    1.218479    1.162658
     34          1           0        2.611097   -0.651845   -0.357461
     35          1           0        3.479037   -1.472519    1.949704
     36          1           0        5.242091   -1.563427    2.115320
     37          1           0        4.425712    0.001803    2.221573
     38          1           0        4.680936   -2.069748   -1.574266
     39          1           0        5.429596   -2.775168   -0.120700
     40          1           0        3.666412   -2.727590   -0.274576
     41          1           0        5.962609    0.108657   -1.218740
     42          1           0        5.939028    0.910914    0.364134
     43          1           0        6.737987   -0.653345    0.190524
 ---------------------------------------------------------------------

 SCF Done:  E(UB3LYP) =  -754.989002093     A.U. after   33 cycles
 SCF Done:  E(UB3LYP) =  -754.989002093     a.u. after    1 cycles

 The electronic state is 2-A.
 Alpha  occ. eigenvalues --  -19.05952 -14.19977 -10.13289 -10.13059 -10.11824
 Alpha  occ. eigenvalues --  -10.09503 -10.08502 -10.07554 -10.07264 -10.07207
 Alpha  occ. eigenvalues --  -10.07140 -10.07124 -10.07010 -10.06999 -10.06761
 Alpha  occ. eigenvalues --  -10.06697 -10.06402 -10.06165  -0.97574  -0.81819
 Alpha  occ. eigenvalues --   -0.76249  -0.71197  -0.68991  -0.67804  -0.65252
 Alpha  occ. eigenvalues --   -0.62273  -0.60799  -0.60035  -0.59911  -0.57769
 Alpha  occ. eigenvalues --   -0.52703  -0.50657  -0.48324  -0.46602  -0.44386
 Alpha  occ. eigenvalues --   -0.43373  -0.39519  -0.39394  -0.39093  -0.37942
 Alpha  occ. eigenvalues --   -0.37549  -0.35573  -0.35205  -0.34863  -0.33518
 Alpha  occ. eigenvalues --   -0.33009  -0.32103  -0.32053  -0.31109  -0.30635
 Alpha  occ. eigenvalues --   -0.29839  -0.29328  -0.29035  -0.28107  -0.27932
 Alpha  occ. eigenvalues --   -0.27329  -0.26799  -0.26026  -0.25219  -0.24559
 Alpha  occ. eigenvalues --   -0.23860  -0.23487  -0.22932  -0.22636  -0.17460
 Alpha  occ. eigenvalues --   -0.15316  -0.13480  -0.10873   0.03825
 Alpha virt. eigenvalues --    0.05035   0.05972   0.06649   0.07151   0.07679
 Alpha virt. eigenvalues --    0.07807   0.08313   0.08539   0.09006   0.09395
 Alpha virt. eigenvalues --    0.09646   0.09849   0.10291   0.10586   0.10732

  Beta  occ. eigenvalues --  -19.05925 -14.19962 -10.13255 -10.12966 -10.11823
  Beta  occ. eigenvalues --  -10.09479 -10.08463 -10.07542 -10.07269 -10.07159
  Beta  occ. eigenvalues --  -10.07148 -10.07086 -10.07022 -10.06992 -10.06739
  Beta  occ. eigenvalues --  -10.06669 -10.06350 -10.06059  -0.97503  -0.81795
  Beta  occ. eigenvalues --   -0.76156  -0.71108  -0.68894  -0.67722  -0.65152
  Beta  occ. eigenvalues --   -0.62202  -0.60748  -0.59991  -0.59865  -0.57696
  Beta  occ. eigenvalues --   -0.52581  -0.50594  -0.48243  -0.46533  -0.44263
  Beta  occ. eigenvalues --   -0.43317  -0.39466  -0.39340  -0.39049  -0.37841
  Beta  occ. eigenvalues --   -0.37503  -0.35536  -0.35152  -0.34823  -0.33464
  Beta  occ. eigenvalues --   -0.32924  -0.32053  -0.32019  -0.31063  -0.30592
  Beta  occ. eigenvalues --   -0.29801  -0.29284  -0.28987  -0.28027  -0.27797
  Beta  occ. eigenvalues --   -0.27277  -0.26745  -0.25980  -0.25175  -0.24521
  Beta  occ. eigenvalues --   -0.23816  -0.23401  -0.22751  -0.22575  -0.17093
  Beta  occ. eigenvalues --   -0.15158  -0.13452  -0.10469
  Beta virt. eigenvalues --    0.05688   0.05899   0.06777   0.07103   0.07472
  Beta virt. eigenvalues --    0.07900   0.07933   0.08436   0.08846   0.09077
  Beta virt. eigenvalues --    0.09570   0.09809   0.09984   0.10456   0.10658

 Mulliken charges and spin densities:
               1          2
     1  C   -0.188316  -0.359329
     2  C    0.059222   0.240762
     3  C    0.661174   0.123162
     4  C   -0.298933  -0.136432
     5  C   -0.730249   0.245030
     6  C   -0.209959  -0.127303
     7  C    0.302084  -0.322982
     8  O   -0.201888   0.044208
     9  C    0.502517  -0.848989
    10  C   -0.395520  -0.052331
    11  C    0.005438   0.358567
    12  C    0.349614  -0.706186
    13  C   -0.255921  -0.193336
    14  N    0.220793  -0.058299
    15  C   -1.398462   1.343733
    16  C    0.455500  -0.980376
    17  C   -0.233058  -0.204428
    18  C    0.497918  -0.990778
    19  H    0.103003   0.047680
    20  H    0.063510   0.094092
    21  H   -0.209739   0.358425
    22  H   -0.014212   0.044693
    23  H    0.103088   0.084513
    24  H    0.132318  -0.038110
    25  H   -0.119240   0.269395
    26  H   -0.219377   0.374333
    27  H   -0.267938   0.437721
    28  H    0.167386  -0.059069
    29  H    0.124607   0.022034
    30  H    0.094866   0.049982
    31  H   -0.033406   0.186508
    32  H    0.086716   0.029566
    33  H   -0.016444   0.133648
    34  H    0.294903  -0.163702
    35  H    0.044636   0.109196
    36  H   -0.161560   0.313842
    37  H   -0.010393   0.163449
    38  H    0.086573   0.071703
    39  H   -0.051395   0.187098
    40  H   -0.062232   0.194585
    41  H    0.070680   0.085766
    42  H   -0.200638   0.341919
    43  H   -0.147666   0.286040
 Sum of Mulliken charges =  -1.00000   1.00000

 Dipole moment (field-independent basis, Debye):
    X=              0.9611    Y=              0.9654    Z=             -0.5538  Tot=              1.4706
 Quadrupole moment (field-independent basis, Debye-Ang):
   XX=           -260.0739   YY=           -148.8169   ZZ=           -140.0688
   XY=             -1.0720   XZ=             -3.2447   YZ=              3.1519

 Summary of Natural Population Analysis:

                                       Natural Population
                Natural  -----------------------------------------------
    Atom  No    Charge         Core      Valence    Rydberg      Total
 -----------------------------------------------------------------------
      C    1   -0.29394      0.99964     2.28953    0.00477     3.29394
      C    2    0.00811      0.99950     1.98360    0.00878     2.99189
      C    3   -0.04552      0.99946     2.03744    0.00861     3.04552
      C    4   -0.07169      0.99954     2.06441    0.00775     3.07169
      C    5   -0.13068      0.99953     2.12184    0.00932     3.13068
      C    6    0.17467      0.99938     1.81234    0.01361     2.82533
      C    7   -0.15223      0.99948     2.14456    0.00819     3.15223
      O    8   -0.27271      0.99986     3.26315    0.00970     4.27271
      C    9   -0.10123      0.99960     2.09239    0.00923     3.10123
      C   10   -0.09415      0.99950     2.08626    0.00839     3.09415
      C   11   -0.07012      0.99953     2.06217    0.00842     3.07012
      C   12   -0.20394      0.99962     2.19527    0.00905     3.20394
      C   13   -0.08316      0.99962     2.07212    0.01142     3.08316
      N   14   -0.34822      0.99971     2.83706    0.01145     3.84822
      C   15    0.05323      0.99960     1.93414    0.01303     2.94677
      C   16   -0.29469      0.99962     2.28934    0.00573     3.29469
      C   17   -0.28419      0.99962     2.27848    0.00609     3.28419
      C   18   -0.29011      0.99961     2.28334    0.00716     3.29011
      H   19    0.10190      0.00000     0.39693    0.00117     0.39810
      H   20    0.10568      0.00000     0.39310    0.00122     0.39432
      H   21    0.10074      0.00000     0.39838    0.00088     0.39926
      H   22    0.09817      0.00000     0.40020    0.00163     0.40183
      H   23    0.10363      0.00000     0.39531    0.00106     0.39637
      H   24    0.10228      0.00000     0.39651    0.00121     0.39772
      H   25    0.08349      0.00000     0.41515    0.00136     0.41651
      H   26    0.08524      0.00000     0.41303    0.00172     0.41476
      H   27    0.09243      0.00000     0.40648    0.00109     0.40757
      H   28    0.09105      0.00000     0.40679    0.00216     0.40895
      H   29    0.09000      0.00000     0.40869    0.00131     0.41000
      H   30    0.10036      0.00000     0.39842    0.00122     0.39964
      H   31    0.09747      0.00000     0.40138    0.00115     0.40253
      H   32    0.09150      0.00000     0.40699    0.00152     0.40850
      H   33    0.07912      0.00000     0.41936    0.00152     0.42088
      H   34    0.17367      0.00000     0.32311    0.00322     0.32633
      H   35    0.09993      0.00000     0.39902    0.00105     0.40007
      H   36    0.10027      0.00000     0.39875    0.00098     0.39973
      H   37    0.10064      0.00000     0.39842    0.00093     0.39936
      H   38    0.10331      0.00000     0.39566    0.00103     0.39669
      H   39    0.09936      0.00000     0.39977    0.00087     0.40064
      H   40    0.09785      0.00000     0.40119    0.00096     0.40215
      H   41    0.10313      0.00000     0.39586    0.00101     0.39687
      H   42    0.09947      0.00000     0.39950    0.00104     0.40053
      H   43    0.09984      0.00000     0.39925    0.00091     0.40016
 =======================================================================
   * Total *    0.00000     17.99243    49.81467    0.19290    68.00000

 Normal termination of Gaussian 16 at Fri Dec 11 22:30:50 2020.
