 Gaussian 16, Revision A.03,

 -----------------------------------------------------------
 # opt freq B3LYP/6-31G(d) empiricaldispersion=gd3bj scf=xqc
 -----------------------------------------------------------

 ------------------------------
 CID_58298963_JID_7430_neutraal
 ------------------------------
 Symbolic Z-matrix:
 Charge =  0 Multiplicity = 1

 SCF Done:  E(RB3LYP) =  -774.889025554     A.U. after   14 cycles
 SCF Done:  E(RB3LYP) =  -774.892871788     A.U. after   12 cycles
 SCF Done:  E(RB3LYP) =  -774.893146591     A.U. after   12 cycles
 SCF Done:  E(RB3LYP) =  -774.894294641     A.U. after   12 cycles
 SCF Done:  E(RB3LYP) =  -774.894863930     A.U. after   12 cycles
 SCF Done:  E(RB3LYP) =  -774.894771873     A.U. after   14 cycles
 SCF Done:  E(RB3LYP) =  -774.895597075     A.U. after   12 cycles
 SCF Done:  E(RB3LYP) =  -774.895772441     A.U. after   12 cycles
 SCF Done:  E(RB3LYP) =  -774.895978362     A.U. after   11 cycles
 SCF Done:  E(RB3LYP) =  -774.896202890     A.U. after   13 cycles
 SCF Done:  E(RB3LYP) =  -774.900619140     A.U. after    9 cycles
 SCF Done:  E(RB3LYP) =  -774.900619659     A.U. after    7 cycles
 SCF Done:  E(RB3LYP) =  -774.900619855     A.U. after    7 cycles
 SCF Done:  E(RB3LYP) =  -774.900619912     A.U. after    7 cycles
 SCF Done:  E(RB3LYP) =  -774.900619919     A.U. after    6 cycles
 Optimization completed.
    -- Stationary point found.
 Normal termination of Gaussian 16 at Mon Dec 14 16:59:29 2020.

 --------------------------------------------------------------------
 #N Geom=AllCheck Guess=TCheck SCRF=Check GenChk RB3LYP/6-31G(d) Freq
 --------------------------------------------------------------------

 Structure from the checkpoint file:  "JID_7430.chk"
 ------------------------------
 CID_58298963_JID_7430_neutraal
 ------------------------------
 Charge =  0 Multiplicity = 1

 SCF Done:  E(RB3LYP) =  -774.900619919     A.U. after    1 cycles

  Exact polarizability: 181.996  10.378 152.907  -5.384   1.001 130.543
 Approx polarizability: 215.135  18.553 223.866  -2.984  -4.828 199.208

                      1                      2                      3
                      A                      A                      A
 Frequencies --     16.1274                25.3351                29.5783
 Red. masses --      3.6011                 3.6150                 3.6288
 Frc consts  --      0.0006                 0.0014                 0.0019
 IR Inten    --      0.5326                 0.0202                 0.0247

                      4                      5                      6
                      A                      A                      A
 Frequencies --     36.8997                52.9325                67.1474
 Red. masses --      3.6822                 3.2223                 3.6428
 Frc consts  --      0.0030                 0.0053                 0.0097
 IR Inten    --      0.0391                 0.1191                 1.0878

                      7                      8                      9
                      A                      A                      A
 Frequencies --     98.9879               110.9907               126.3532
 Red. masses --      3.7282                 5.2931                 3.5629
 Frc consts  --      0.0215                 0.0384                 0.0335
 IR Inten    --      1.4398                 0.5930                 0.3703

                     10                     11                     12
                      A                      A                      A
 Frequencies --    166.9059               174.9828               183.5465
 Red. masses --      3.3491                 1.1532                 2.6490
 Frc consts  --      0.0550                 0.0208                 0.0526
 IR Inten    --      5.8772                 0.3040                 1.7540

                     13                     14                     15
                      A                      A                      A
 Frequencies --    212.4043               220.8178               257.4316
 Red. masses --      1.0823                 3.0457                 1.0644
 Frc consts  --      0.0288                 0.0875                 0.0416
 IR Inten    --      0.0767                 1.2424                 0.1558

                     16                     17                     18
                      A                      A                      A
 Frequencies --    270.4886               276.7382               278.5251
 Red. masses --      2.0658                 1.1947                 2.3400
 Frc consts  --      0.0891                 0.0539                 0.1070
 IR Inten    --      2.0408                 0.2912                 4.1789

                     19                     20                     21
                      A                      A                      A
 Frequencies --    319.3774               322.5070               340.5628
 Red. masses --      2.7899                 2.1741                 2.6364
 Frc consts  --      0.1677                 0.1332                 0.1802
 IR Inten    --      4.3251                 0.7937                 2.3937

                     22                     23                     24
                      A                      A                      A
 Frequencies --    355.8685               386.8183               414.2177
 Red. masses --      2.4523                 2.1905                 2.1755
 Frc consts  --      0.1830                 0.1931                 0.2199
 IR Inten    --      1.4273                 2.7349                 0.7472

                     25                     26                     27
                      A                      A                      A
 Frequencies --    429.3723               462.1938               464.3492
 Red. masses --      2.6327                 2.1936                 2.6802
 Frc consts  --      0.2860                 0.2761                 0.3405
 IR Inten    --      1.1391                 1.2459                 4.4570

                     28                     29                     30
                      A                      A                      A
 Frequencies --    489.7124               516.4950               535.5125
 Red. masses --      2.6050                 2.1993                 2.6918
 Frc consts  --      0.3681                 0.3457                 0.4548
 IR Inten    --      1.9323                 0.4568                 4.0447

                     31                     32                     33
                      A                      A                      A
 Frequencies --    571.1072               618.8257               715.7924
 Red. masses --      2.6134                 3.6935                 1.4495
 Frc consts  --      0.5022                 0.8333                 0.4376
 IR Inten    --      0.6954                 3.9587                 3.3792

                     34                     35                     36
                      A                      A                      A
 Frequencies --    731.7998               746.0849               764.1842
 Red. masses --      1.2950                 1.8078                 3.4102
 Frc consts  --      0.4086                 0.5929                 1.1733
 IR Inten    --      2.3795                 8.5341                10.3785

                     37                     38                     39
                      A                      A                      A
 Frequencies --    790.7505               815.4425               844.6746
 Red. masses --      2.8306                 1.3709                 2.3433
 Frc consts  --      1.0428                 0.5371                 0.9851
 IR Inten    --      7.0341                61.9591                 2.8068

                     40                     41                     42
                      A                      A                      A
 Frequencies --    860.5172               873.8900               890.2506
 Red. masses --      3.1680                 2.3744                 2.6327
 Frc consts  --      1.3821                 1.0683                 1.2294
 IR Inten    --     16.3205                 6.3091                 2.6738

                     43                     44                     45
                      A                      A                      A
 Frequencies --    932.2710               939.1542               941.6215
 Red. masses --      2.1436                 1.6368                 1.8220
 Frc consts  --      1.0977                 0.8506                 0.9518
 IR Inten    --      5.6441                 0.1949                 1.1218

                     46                     47                     48
                      A                      A                      A
 Frequencies --    958.8477               972.0430               982.7351
 Red. masses --      2.0812                 2.0930                 1.1981
 Frc consts  --      1.1274                 1.1652                 0.6817
 IR Inten    --     10.0915                 7.3759                 0.2338

                     49                     50                     51
                      A                      A                      A
 Frequencies --   1008.9567              1021.4645              1037.3072
 Red. masses --      2.0780                 1.6084                 1.6243
 Frc consts  --      1.2464                 0.9888                 1.0297
 IR Inten    --      5.0270                 8.4707                 9.2440

                     52                     53                     54
                      A                      A                      A
 Frequencies --   1046.4884              1066.9989              1073.9781
 Red. masses --      1.5998                 1.4034                 1.4770
 Frc consts  --      1.0322                 0.9414                 1.0037
 IR Inten    --      6.0174                 0.3741                 5.1556

                     55                     56                     57
                      A                      A                      A
 Frequencies --   1080.7954              1090.8398              1121.9130
 Red. masses --      1.8174                 1.4974                 2.0577
 Frc consts  --      1.2508                 1.0498                 1.5260
 IR Inten    --     16.7711                 1.6924                39.3261

                     58                     59                     60
                      A                      A                      A
 Frequencies --   1133.2501              1140.8992              1178.6676
 Red. masses --      2.8699                 2.2075                 1.7976
 Frc consts  --      2.1715                 1.6930                 1.4714
 IR Inten    --     93.2323                 1.6616               117.6003

                     61                     62                     63
                      A                      A                      A
 Frequencies --   1202.6622              1219.0460              1246.5733
 Red. masses --      1.2649                 1.9218                 1.4727
 Frc consts  --      1.0780                 1.6827                 1.3483
 IR Inten    --      7.0193               218.4557                 8.2567

                     64                     65                     66
                      A                      A                      A
 Frequencies --   1275.2894              1287.4048              1292.2586
 Red. masses --      1.2316                 2.6786                 1.9730
 Frc consts  --      1.1801                 2.6157                 1.9413
 IR Inten    --     18.4092                16.9732                95.3213

                     67                     68                     69
                      A                      A                      A
 Frequencies --   1300.8795              1313.9357              1330.9710
 Red. masses --      2.6285                 1.2517                 2.7946
 Frc consts  --      2.6207                 1.2733                 2.9168
 IR Inten    --      7.0692                24.1613               245.0566

                     70                     71                     72
                      A                      A                      A
 Frequencies --   1349.0187              1380.8307              1386.5950
 Red. masses --      1.1260                 1.5960                 1.3922
 Frc consts  --      1.2073                 1.7929                 1.5770
 IR Inten    --      1.6865                30.8432                12.1114

                     73                     74                     75
                      A                      A                      A
 Frequencies --   1403.6713              1414.9627              1423.6756
 Red. masses --      1.5361                 1.3708                 1.2992
 Frc consts  --      1.7832                 1.6170                 1.5515
 IR Inten    --     27.9643                 1.6053                 8.3455

                     76                     77                     78
                      A                      A                      A
 Frequencies --   1424.0310              1427.9837              1431.9609
 Red. masses --      1.3781                 1.2972                 1.3424
 Frc consts  --      1.6465                 1.5585                 1.6218
 IR Inten    --     10.7018                18.1181                25.9914

                     79                     80                     81
                      A                      A                      A
 Frequencies --   1452.4060              1455.1278              1470.3754
 Red. masses --      1.2372                 1.5169                 1.2056
 Frc consts  --      1.5377                 1.8923                 1.5357
 IR Inten    --     18.1363                 5.9032                 0.2456

                     82                     83                     84
                      A                      A                      A
 Frequencies --   1500.2415              1502.3296              1503.3970
 Red. masses --      1.0469                 1.0446                 1.0855
 Frc consts  --      1.3883                 1.3891                 1.4455
 IR Inten    --      0.4934                 6.1363                 5.1857

                     85                     86                     87
                      A                      A                      A
 Frequencies --   1511.2192              1519.3982              1520.5221
 Red. masses --      1.1094                 1.0485                 1.0516
 Frc consts  --      1.4928                 1.4262                 1.4324
 IR Inten    --      6.7646                 0.9579                 0.2801

                     88                     89                     90
                      A                      A                      A
 Frequencies --   1522.9195              1523.9574              1525.4342
 Red. masses --      1.0587                 1.0804                 1.0663
 Frc consts  --      1.4466                 1.4783                 1.4619
 IR Inten    --      7.8356                 8.1004                14.0281

                     91                     92                     93
                      A                      A                      A
 Frequencies --   1528.4664              1535.0532              1537.6665
 Red. masses --      1.0789                 1.0578                 1.0914
 Frc consts  --      1.4851                 1.4686                 1.5203
 IR Inten    --      3.5476                 0.4832                 3.3792

                     94                     95                     96
                      A                      A                      A
 Frequencies --   1554.4913              1557.1301              1729.3206
 Red. masses --      1.0839                 1.0558                 5.1442
 Frc consts  --      1.5432                 1.5082                 9.0640
 IR Inten    --     14.4067                12.1833               125.3499

                     97                     98                     99
                      A                      A                      A
 Frequencies --   1808.3561              3021.4704              3042.5377
 Red. masses --     10.9522                 1.0559                 1.0654
 Frc consts  --     21.1017                 5.6797                 5.8110
 IR Inten    --    182.2018                18.0906                25.8596

                    100                    101                    102
                      A                      A                      A
 Frequencies --   3046.4679              3051.6411              3052.2800
 Red. masses --      1.0635                 1.0702                 1.0379
 Frc consts  --      5.8155                 5.8718                 5.6973
 IR Inten    --      6.1450                12.5460                20.2445

                    103                    104                    105
                      A                      A                      A
 Frequencies --   3057.9451              3058.8719              3059.6112
 Red. masses --      1.0357                 1.0931                 1.0391
 Frc consts  --      5.7059                 6.0261                 5.7310
 IR Inten    --      6.7483                52.9724                26.4139

                    106                    107                    108
                      A                      A                      A
 Frequencies --   3063.8042              3066.6065              3076.2786
 Red. masses --      1.0668                 1.0384                 1.0725
 Frc consts  --      5.9001                 5.7534                 5.9798
 IR Inten    --      7.8231                17.3296                19.3276

                    109                    110                    111
                      A                      A                      A
 Frequencies --   3077.8102              3087.6577              3097.7313
 Red. masses --      1.0870                 1.0979                 1.1027
 Frc consts  --      6.0666                 6.1671                 6.2345
 IR Inten    --     38.7493                59.3401                25.5173

                    112                    113                    114
                      A                      A                      A
 Frequencies --   3104.0298              3104.7508              3121.5710
 Red. masses --      1.1035                 1.1008                 1.1026
 Frc consts  --      6.2645                 6.2517                 6.3301
 IR Inten    --     57.8212                16.5057                 7.6646

                    115                    116                    117
                      A                      A                      A
 Frequencies --   3123.3891              3134.7394              3134.9430
 Red. masses --      1.1023                 1.1015                 1.1030
 Frc consts  --      6.3359                 6.3772                 6.3866
 IR Inten    --     18.1335                18.5352                37.0108

                    118                    119                    120
                      A                      A                      A
 Frequencies --   3136.9081              3153.1318              3172.6675
 Red. masses --      1.1025                 1.1008                 1.0995
 Frc consts  --      6.3920                 6.4483                 6.5210
 IR Inten    --     47.7203                18.5139                 1.7943

                    121                    122                    123
                      A                      A                      A
 Frequencies --   3176.4484              3202.7626              3280.5374
 Red. masses --      1.0991                 1.0602                 1.1161
 Frc consts  --      6.5337                 6.4072                 7.0770
 IR Inten    --     10.3418                 0.7377                14.3582

 - Thermochemistry -
 -------------------
 Temperature   298.150 Kelvin.  Pressure   1.00000 Atm.
 Atom     1 has atomic number  6 and mass  12.00000

 Molecular mass:   242.18819 amu.
 Principal axes and moments of inertia in atomic units:
                           1         2         3
     Eigenvalues --  1922.09965********************
           X            0.99995   0.00940  -0.00366
           Y           -0.00925   0.99924   0.03778
           Z            0.00402  -0.03774   0.99928
 This molecule is an asymmetric top.
 Rotational symmetry number  1.
 Warning -- assumption of classical behavior for rotation
           may cause significant error
 Rotational temperatures (Kelvin)      0.04506     0.00806     0.00760
 Rotational constants (GHZ):           0.93894     0.16803     0.15836
 Zero-point vibrational energy    1014857.3 (Joules/Mol)
                                  242.55671 (Kcal/Mol)
 Warning -- explicit consideration of  32 degrees of freedom as
           vibrations may cause significant error
 Vibrational temperatures:     23.20    36.45    42.56    53.09    76.16
          (Kelvin)             96.61   142.42   159.69   181.79   240.14
                              251.76   264.08   305.60   317.71   370.39
                              389.17   398.16   400.74   459.51   464.02
                              489.99   512.02   556.55   595.97   617.77
                              664.99   668.09   704.59   743.12   770.48
                              821.70   890.35  1029.87  1052.90  1073.45
                             1099.49  1137.71  1173.24  1215.30  1238.09
                             1257.33  1280.87  1341.33  1351.23  1354.78
                             1379.57  1398.55  1413.94  1451.66  1469.66
                             1492.45  1505.66  1535.17  1545.21  1555.02
                             1569.48  1614.18  1630.49  1641.50  1695.84
                             1730.36  1753.94  1793.54  1834.86  1852.29
                             1859.27  1871.68  1890.46  1914.97  1940.94
                             1986.71  1995.00  2019.57  2035.82  2048.35
                             2048.86  2054.55  2060.27  2089.69  2093.60
                             2115.54  2158.51  2161.52  2163.05  2174.31
                             2186.08  2187.69  2191.14  2192.63  2194.76
                             2199.12  2208.60  2212.36  2236.57  2240.36
                             2488.11  2601.82  4347.22  4377.53  4383.19
                             4390.63  4391.55  4399.70  4401.03  4402.10
                             4408.13  4412.16  4426.08  4428.28  4442.45
                             4456.94  4466.01  4467.04  4491.24  4493.86
                             4510.19  4510.48  4513.31  4536.65  4564.76
                             4570.20  4608.06  4719.96

 Zero-point correction=                           0.386539 (Hartree/Particle)
 Thermal correction to Energy=                    0.406911
 Thermal correction to Enthalpy=                  0.407855
 Thermal correction to Gibbs Free Energy=         0.335105
 Sum of electronic and zero-point Energies=           -774.514081
 Sum of electronic and thermal Energies=              -774.493709
 Sum of electronic and thermal Enthalpies=            -774.492765
 Sum of electronic and thermal Free Energies=         -774.565515

                     E (Thermal)             CV                S
                      KCal/Mol        Cal/Mol-Kelvin    Cal/Mol-Kelvin
 Total                  255.340             75.331            153.115
 Electronic               0.000              0.000              0.000
 Translational            0.889              2.981             42.355
 Rotational               0.889              2.981             33.819
 Vibrational            253.563             69.369             76.941
 Vibration     1          0.593              1.986              7.062
 Vibration     2          0.593              1.985              6.165
 Vibration     3          0.593              1.984              5.858
 Vibration     4          0.594              1.982              5.419
 Vibration     5          0.596              1.976              4.705
 Vibration     6          0.598              1.970              4.235
 Vibration     7          0.604              1.950              3.474
 Vibration     8          0.607              1.940              3.252
 Vibration     9          0.611              1.927              3.001
 Vibration    10          0.624              1.883              2.470
 Vibration    11          0.627              1.873              2.381
 Vibration    12          0.631              1.862              2.292
 Vibration    13          0.643              1.822              2.023
 Vibration    14          0.648              1.809              1.952
 Vibration    15          0.667              1.750              1.679
 Vibration    16          0.674              1.728              1.593
 Vibration    17          0.678              1.716              1.554
 Vibration    18          0.679              1.713              1.543
 Vibration    19          0.705              1.637              1.313
 Vibration    20          0.708              1.630              1.297
 Vibration    21          0.720              1.594              1.210
 Vibration    22          0.731              1.563              1.140
 Vibration    23          0.755              1.498              1.012
 Vibration    24          0.778              1.439              0.912
 Vibration    25          0.791              1.406              0.861
 Vibration    26          0.820              1.334              0.760
 Vibration    27          0.822              1.329              0.754
 Vibration    28          0.846              1.273              0.684
 Vibration    29          0.872              1.213              0.618
 Vibration    30          0.891              1.171              0.575
 Vibration    31          0.927              1.094              0.502
 Vibration    32          0.979              0.992              0.418

 Optimization completed.
    -- Stationary point found.
 Normal termination of Gaussian 16 at Mon Dec 14 17:17:16 2020.

 ----------------------------------------------------------------------
 # B3LYP/6-311++G(d,p) empiricaldispersion=gd3bj scf=xqc pop=npa geom=c
 heck
 ----------------------------------------------------------------------

 --------------------------------------
 CID_58298963_JID_7430_Energie_neutraal
 --------------------------------------
 Structure from the checkpoint file:  "JID_7430.chk"
 Charge =  0 Multiplicity = 1

 SCF Done:  E(RB3LYP) =  -775.125176297     A.U. after   14 cycles
 Normal termination of Gaussian 16 at Mon Dec 14 17:26:15 2020.

 ----------------------------------------------------------------------
 # B3LYP/6-311++G(d,p) empiricaldispersion=gd3bj scf=xqc pop=npa geom=c
 heck
 ----------------------------------------------------------------------

 ------------------------------------
 CID_58298963_JID_7430_Energie_kation
 ------------------------------------
 Structure from the checkpoint file:  "JID_7430.chk"
 Charge =  1 Multiplicity = 2

 SCF Done:  E(UB3LYP) =  -774.820598731     A.U. after   32 cycles
 Normal termination of Gaussian 16 at Mon Dec 14 17:55:09 2020.
 Gaussian 16:  ES64L-G16RevA.03 25-Dec-2016

 ----------------------------------------------------------------------
 # B3LYP/6-311++G(d,p) empiricaldispersion=gd3bj scf=xqc pop=npa geom=c
 heck
 ----------------------------------------------------------------------

 -----------------------------------
 CID_58298963_JID_7430_Energie_anion
 -----------------------------------
 Structure from the checkpoint file:  "JID_7430.chk"
 Charge = -1 Multiplicity = 2

                         Standard orientation:
 ---------------------------------------------------------------------
 Center     Atomic      Atomic             Coordinates (Angstroms)
 Number     Number       Type             X           Y           Z
 ---------------------------------------------------------------------
      1          6           0       -5.240366    1.802055    0.925276
      2          6           0       -4.857071    0.488893    0.308119
      3          6           0       -5.592287   -0.628648    0.383728
      4          8           0       -3.658147    0.609183   -0.333458
      5          6           0       -3.113921   -0.552422   -0.953437
      6          6           0       -1.757514   -0.183902   -1.537250
      7          6           0       -0.770673    0.389353   -0.509408
      8          6           0       -0.500870   -0.512065    0.705253
      9          6           0        0.013429   -1.922979    0.380633
     10          6           0        1.286017   -1.945911   -0.488349
     11          6           0        2.397991   -1.166845    0.185978
     12          8           0        2.885477   -1.480847    1.253155
     13          8           0        2.725188   -0.074079   -0.532660
     14          6           0        3.707801    0.905224   -0.037213
     15          6           0        3.211417    1.515313    1.275225
     16          6           0        5.078658    0.242360    0.109372
     17          6           0        3.724725    1.952039   -1.150187
     18          1           0       -6.199174    1.727682    1.443140
     19          1           0       -5.312658    2.579515    0.155536
     20          1           0       -4.474879    2.125751    1.640525
     21          1           0       -5.301253   -1.566714   -0.071618
     22          1           0       -6.531728   -0.612132    0.922725
     23          1           0       -3.023103   -1.352818   -0.206494
     24          1           0       -3.796985   -0.906216   -1.738381
     25          1           0       -1.344648   -1.084803   -2.009960
     26          1           0       -1.906192    0.548615   -2.339913
     27          1           0        0.175460    0.612850   -1.015644
     28          1           0       -1.164435    1.345548   -0.147809
     29          1           0        0.229574   -0.010492    1.353416
     30          1           0       -1.415276   -0.602806    1.304779
     31          1           0        0.229883   -2.445566    1.318850
     32          1           0       -0.762436   -2.503998   -0.132906
     33          1           0        1.626549   -2.981027   -0.602070
     34          1           0        1.097046   -1.536770   -1.483480
     35          1           0        3.190304    0.771117    2.072158
     36          1           0        3.877128    2.332847    1.572693
     37          1           0        2.204590    1.926266    1.143710
     38          1           0        5.371286   -0.233645   -0.832597
     39          1           0        5.827531    1.003792    0.353550
     40          1           0        5.068849   -0.509675    0.898941
     41          1           0        4.029080    1.499853   -2.099300
     42          1           0        2.730922    2.392299   -1.279627
     43          1           0        4.430396    2.751692   -0.902971
 ---------------------------------------------------------------------

 SCF Done:  E(UB3LYP) =  -775.112738446     A.U. after   33 cycles
 SCF Done:  E(UB3LYP) =  -775.112738446     a.u. after    1 cycles

 The electronic state is 2-A.
 Alpha  occ. eigenvalues --  -19.07341 -19.06320 -19.01836 -10.21026 -10.15682
 Alpha  occ. eigenvalues --  -10.14733 -10.13226 -10.08944 -10.08470 -10.08390
 Alpha  occ. eigenvalues --  -10.07949 -10.07536 -10.07458 -10.07372 -10.07312
 Alpha  occ. eigenvalues --  -10.07089 -10.06346  -1.01157  -0.97964  -0.92971
 Alpha  occ. eigenvalues --   -0.73699  -0.72637  -0.70654  -0.67594  -0.63342
 Alpha  occ. eigenvalues --   -0.61161  -0.61013  -0.60959  -0.58521  -0.54801
 Alpha  occ. eigenvalues --   -0.51666  -0.47988  -0.45667  -0.43129  -0.41409
 Alpha  occ. eigenvalues --   -0.41044  -0.40283  -0.39317  -0.38713  -0.38021
 Alpha  occ. eigenvalues --   -0.37090  -0.36457  -0.34773  -0.34418  -0.33462
 Alpha  occ. eigenvalues --   -0.33105  -0.32587  -0.31815  -0.31065  -0.30552
 Alpha  occ. eigenvalues --   -0.29644  -0.29340  -0.28769  -0.28404  -0.28327
 Alpha  occ. eigenvalues --   -0.27212  -0.26949  -0.26066  -0.25550  -0.24857
 Alpha  occ. eigenvalues --   -0.24534  -0.23271  -0.22688  -0.22516  -0.21475
 Alpha  occ. eigenvalues --   -0.18275  -0.14630   0.03894
 Alpha virt. eigenvalues --    0.05313   0.05889   0.07086   0.07349   0.07573
 Alpha virt. eigenvalues --    0.08122   0.08416   0.08737   0.09119   0.09283
 Alpha virt. eigenvalues --    0.09808   0.10213   0.10490   0.10811   0.11113

  Beta  occ. eigenvalues --  -19.07334 -19.06313 -19.01826 -10.21014 -10.15681
  Beta  occ. eigenvalues --  -10.14732 -10.13208 -10.08929 -10.08447 -10.08377
  Beta  occ. eigenvalues --  -10.07933 -10.07529 -10.07426 -10.07353 -10.07286
  Beta  occ. eigenvalues --  -10.07081 -10.06327  -1.01140  -0.97954  -0.92955
  Beta  occ. eigenvalues --   -0.73678  -0.72617  -0.70634  -0.67567  -0.63311
  Beta  occ. eigenvalues --   -0.61126  -0.60974  -0.60911  -0.58485  -0.54763
  Beta  occ. eigenvalues --   -0.51627  -0.47950  -0.45623  -0.43091  -0.41376
  Beta  occ. eigenvalues --   -0.41011  -0.40261  -0.39287  -0.38684  -0.37992
  Beta  occ. eigenvalues --   -0.37065  -0.36431  -0.34748  -0.34388  -0.33433
  Beta  occ. eigenvalues --   -0.33081  -0.32559  -0.31793  -0.31039  -0.30519
  Beta  occ. eigenvalues --   -0.29613  -0.29309  -0.28745  -0.28377  -0.28303
  Beta  occ. eigenvalues --   -0.27187  -0.26924  -0.26037  -0.25522  -0.24837
  Beta  occ. eigenvalues --   -0.24512  -0.23252  -0.22663  -0.22493  -0.21448
  Beta  occ. eigenvalues --   -0.18260  -0.14612
  Beta virt. eigenvalues --    0.05681   0.06151   0.06517   0.07466   0.07753
  Beta virt. eigenvalues --    0.07826   0.08439   0.08699   0.09048   0.09337
  Beta virt. eigenvalues --    0.09478   0.09974   0.10361   0.10706   0.11091

 Mulliken charges and spin densities:
               1          2
     1  C    0.462879  -1.021519
     2  C   -0.312679   0.850928
     3  C    0.080394  -0.677846
     4  O   -0.021194   0.026244
     5  C   -2.008909   1.385939
     6  C    2.552551  -2.975818
     7  C   -1.195795   0.827022
     8  C    0.433344  -0.243567
     9  C   -0.247651  -0.230357
    10  C   -0.306494   0.125311
    11  C    0.072598  -0.498294
    12  O   -0.213150   0.020480
    13  O    0.174669  -0.001588
    14  C   -0.932804   0.908721
    15  C    0.538323  -0.981104
    16  C    0.164647  -0.636860
    17  C    0.342056  -0.779548
    18  H   -0.082273   0.234229
    19  H   -0.073705   0.231075
    20  H   -0.019001   0.171085
    21  H   -0.156235   0.304459
    22  H   -0.296327   0.442762
    23  H    0.415238  -0.247552
    24  H   -0.160015   0.331362
    25  H   -0.206219   0.354530
    26  H   -0.064800   0.256535
    27  H    0.677935  -0.523317
    28  H    0.018723   0.170954
    29  H    0.221921  -0.050460
    30  H    0.036020   0.135667
    31  H    0.118368   0.066353
    32  H   -0.242732   0.409768
    33  H   -0.115307   0.310618
    34  H    0.041777   0.146825
    35  H    0.129302   0.062001
    36  H   -0.165430   0.329277
    37  H    0.001885   0.150748
    38  H   -0.057612   0.200984
    39  H   -0.132007   0.294290
    40  H    0.093121   0.095757
    41  H   -0.061296   0.224018
    42  H   -0.299355   0.445410
    43  H   -0.204760   0.354478
 Sum of Mulliken charges =  -1.00000   1.00000

 Dipole moment (field-independent basis, Debye):
    X=              0.4064    Y=             -0.8396    Z=              0.7543  Tot=              1.1996
 Quadrupole moment (field-independent basis, Debye-Ang):
   XX=           -230.6237   YY=           -155.1728   ZZ=           -145.2054
   XY=             -7.6551   XZ=             -0.4171   YZ=              0.7501

 Summary of Natural Population Analysis:

                                       Natural Population
                Natural  -----------------------------------------------
    Atom  No    Charge         Core      Valence    Rydberg      Total
 -----------------------------------------------------------------------
      C    1   -0.30262      0.99962     2.29764    0.00536     3.30262
      C    2    0.17502      0.99945     1.81271    0.01283     2.82498
      C    3   -0.26894      0.99952     2.26281    0.00662     3.26894
      O    4   -0.28581      0.99985     3.27457    0.01139     4.28581
      C    5   -0.01404      0.99956     2.00158    0.01290     3.01404
      C    6   -0.19864      0.99962     2.19023    0.00878     3.19864
      C    7   -0.19719      0.99962     2.18897    0.00861     3.19719
      C    8   -0.19493      0.99962     2.18801    0.00729     3.19493
      C    9   -0.18773      0.99962     2.17972    0.00839     3.18773
      C   10   -0.23468      0.99958     2.22694    0.00816     3.23468
      C   11    0.41484      0.99968     1.55834    0.02714     2.58516
      O   12   -0.31449      0.99987     3.30955    0.00507     4.31449
      O   13   -0.29445      0.99985     3.28358    0.01103     4.29445
      C   14    0.13248      0.99953     1.85382    0.01417     2.86752
      C   15   -0.30196      0.99960     2.29567    0.00669     3.30196
      C   16   -0.30172      0.99960     2.29569    0.00643     3.30172
      C   17   -0.28920      0.99960     2.28238    0.00722     3.28920
      H   18    0.10304      0.00000     0.39592    0.00104     0.39696
      H   19    0.10568      0.00000     0.39269    0.00162     0.39432
      H   20    0.10588      0.00000     0.39255    0.00157     0.39412
      H   21    0.09995      0.00000     0.39899    0.00106     0.40005
      H   22    0.10018      0.00000     0.39890    0.00092     0.39982
      H   23    0.08503      0.00000     0.41333    0.00165     0.41497
      H   24    0.08812      0.00000     0.41046    0.00142     0.41188
      H   25    0.09966      0.00000     0.39906    0.00128     0.40034
      H   26    0.10136      0.00000     0.39745    0.00119     0.39864
      H   27    0.10210      0.00000     0.39629    0.00161     0.39790
      H   28    0.10283      0.00000     0.39567    0.00150     0.39717
      H   29    0.09925      0.00000     0.39955    0.00120     0.40075
      H   30    0.09936      0.00000     0.39946    0.00118     0.40064
      H   31    0.10301      0.00000     0.39593    0.00106     0.39699
      H   32    0.09799      0.00000     0.40086    0.00114     0.40201
      H   33    0.11177      0.00000     0.38722    0.00101     0.38823
      H   34    0.10738      0.00000     0.39122    0.00140     0.39262
      H   35    0.11286      0.00000     0.38620    0.00093     0.38714
      H   36    0.10411      0.00000     0.39500    0.00089     0.39589
      H   37    0.10294      0.00000     0.39598    0.00108     0.39706
      H   38    0.10241      0.00000     0.39667    0.00092     0.39759
      H   39    0.10390      0.00000     0.39508    0.00102     0.39610
      H   40    0.11350      0.00000     0.38562    0.00089     0.38650
      H   41    0.10407      0.00000     0.39486    0.00107     0.39593
      H   42    0.10436      0.00000     0.39441    0.00123     0.39564
      H   43    0.10333      0.00000     0.39538    0.00129     0.39667
 =======================================================================
   * Total *    0.00000     16.99379    49.80695    0.19926    67.00000

 Normal termination of Gaussian 16 at Mon Dec 14 18:22:40 2020.
