 Gaussian 16, Revision A.03,

 -----------------------------------------------------------
 # opt freq B3LYP/6-31G(d) empiricaldispersion=gd3bj scf=xqc
 -----------------------------------------------------------

 -------------------------------
 CID_105476680_JID_6756_neutraal
 -------------------------------
 Symbolic Z-matrix:
 Charge =  0 Multiplicity = 1

 SCF Done:  E(RB3LYP) =  -688.335729597     A.U. after   14 cycles
 SCF Done:  E(RB3LYP) =  -688.347799375     A.U. after   12 cycles
 SCF Done:  E(RB3LYP) =  -688.348735973     A.U. after   12 cycles
 SCF Done:  E(RB3LYP) =  -688.349789874     A.U. after   12 cycles
 SCF Done:  E(RB3LYP) =  -688.350281952     A.U. after   11 cycles
 SCF Done:  E(RB3LYP) =  -688.350566988     A.U. after   11 cycles
 SCF Done:  E(RB3LYP) =  -688.350657842     A.U. after   10 cycles
 SCF Done:  E(RB3LYP) =  -688.350762861     A.U. after   10 cycles
 SCF Done:  E(RB3LYP) =  -688.350781262     A.U. after   10 cycles
 SCF Done:  E(RB3LYP) =  -688.350788783     A.U. after    9 cycles
 SCF Done:  E(RB3LYP) =  -688.350793402     A.U. after    8 cycles
 SCF Done:  E(RB3LYP) =  -688.350794616     A.U. after    8 cycles
 SCF Done:  E(RB3LYP) =  -688.350794872     A.U. after    7 cycles
 SCF Done:  E(RB3LYP) =  -688.350794967     A.U. after    7 cycles
 SCF Done:  E(RB3LYP) =  -688.350795005     A.U. after    7 cycles
 Optimization completed.
    -- Stationary point found.
 Normal termination of Gaussian 16 at Thu Dec 10 23:43:38 2020.

 --------------------------------------------------------------------
 #N Geom=AllCheck Guess=TCheck SCRF=Check GenChk RB3LYP/6-31G(d) Freq
 --------------------------------------------------------------------

 Structure from the checkpoint file:  "JID_6756.chk"
 -------------------------------
 CID_105476680_JID_6756_neutraal
 -------------------------------
 Charge =  0 Multiplicity = 1

 SCF Done:  E(RB3LYP) =  -688.350795005     A.U. after    1 cycles

  Exact polarizability: 170.668   4.348 149.291 -11.852  -2.678 111.543
 Approx polarizability: 230.379   5.827 221.996 -27.465  -1.433 172.524

                      1                      2                      3
                      A                      A                      A
 Frequencies --     27.9230                59.5638                99.3623
 Red. masses --      3.7784                 3.8799                 2.7806
 Frc consts  --      0.0017                 0.0081                 0.0162
 IR Inten    --      0.1209                 0.3695                 0.0809

                      4                      5                      6
                      A                      A                      A
 Frequencies --    119.7911               129.5577               163.8198
 Red. masses --      2.5302                 2.3752                 2.3552
 Frc consts  --      0.0214                 0.0235                 0.0372
 IR Inten    --      2.5775                 8.8661                 4.1001

                      7                      8                      9
                      A                      A                      A
 Frequencies --    190.3815               209.0027               231.4334
 Red. masses --      2.2684                 2.7294                 2.2863
 Frc consts  --      0.0484                 0.0702                 0.0722
 IR Inten    --      5.5426                 4.3806                 6.8033

                     10                     11                     12
                      A                      A                      A
 Frequencies --    232.9284               253.9233               283.8089
 Red. masses --      3.7064                 1.7567                 2.0012
 Frc consts  --      0.1185                 0.0667                 0.0950
 IR Inten    --      2.2320                26.6717                12.1668

                     13                     14                     15
                      A                      A                      A
 Frequencies --    310.0385               343.9629               383.2209
 Red. masses --      2.8087                 2.2719                 4.0231
 Frc consts  --      0.1591                 0.1584                 0.3481
 IR Inten    --      0.6051                 2.5389                 5.2182

                     16                     17                     18
                      A                      A                      A
 Frequencies --    403.6038               441.9373               522.0054
 Red. masses --      2.6757                 2.2657                 1.9801
 Frc consts  --      0.2568                 0.2607                 0.3179
 IR Inten    --      0.3247                 2.3925                 0.6587

                     19                     20                     21
                      A                      A                      A
 Frequencies --    533.6435               588.6218               607.2646
 Red. masses --      2.3941                 4.7812                 4.5928
 Frc consts  --      0.4017                 0.9760                 0.9979
 IR Inten    --      1.2380                 7.7809                17.5453

                     22                     23                     24
                      A                      A                      A
 Frequencies --    612.9869               667.0217               677.7399
 Red. masses --      5.8622                 4.8070                 3.4683
 Frc consts  --      1.2978                 1.2601                 0.9386
 IR Inten    --      6.3504                 5.0573                52.8143

                     25                     26                     27
                      A                      A                      A
 Frequencies --    720.3050               746.4998               782.5931
 Red. masses --      1.9298                 2.9389                 1.5838
 Frc consts  --      0.5899                 0.9649                 0.5715
 IR Inten    --      3.8276                 3.9458               156.1935

                     28                     29                     30
                      A                      A                      A
 Frequencies --    790.5881               797.4530               828.2309
 Red. masses --      1.6771                 1.7148                 4.0598
 Frc consts  --      0.6176                 0.6425                 1.6408
 IR Inten    --     23.2672               178.5716                60.0501

                     31                     32                     33
                      A                      A                      A
 Frequencies --    841.4997               847.8891               874.7830
 Red. masses --      2.6068                 2.7491                 1.6369
 Frc consts  --      1.0876                 1.1645                 0.7380
 IR Inten    --      5.7532                 2.8308                 0.3760

                     34                     35                     36
                      A                      A                      A
 Frequencies --    913.1156               925.7555               968.2610
 Red. masses --      2.1770                 3.8552                 2.1850
 Frc consts  --      1.0694                 1.9467                 1.2069
 IR Inten    --      1.2734                 0.1935                 7.7098

                     37                     38                     39
                      A                      A                      A
 Frequencies --    974.1884              1012.3262              1024.5031
 Red. masses --      1.9926                 1.7590                 1.9848
 Frc consts  --      1.1142                 1.0621                 1.2274
 IR Inten    --      4.6622                 2.1657                 1.7377

                     40                     41                     42
                      A                      A                      A
 Frequencies --   1035.1459              1042.9861              1068.3382
 Red. masses --      2.1862                 1.7634                 1.8718
 Frc consts  --      1.3802                 1.1302                 1.2587
 IR Inten    --      0.3528                 0.7728                19.8224

                     43                     44                     45
                      A                      A                      A
 Frequencies --   1077.0249              1078.7272              1106.8619
 Red. masses --      2.1343                 2.3696                 3.2366
 Frc consts  --      1.4587                 1.6246                 2.3363
 IR Inten    --      7.6386                10.9071                11.7842

                     46                     47                     48
                      A                      A                      A
 Frequencies --   1145.7563              1157.2276              1175.8484
 Red. masses --      2.2131                 1.8561                 2.2987
 Frc consts  --      1.7118                 1.4645                 1.8725
 IR Inten    --      2.4617                 6.5148                 3.7618

                     49                     50                     51
                      A                      A                      A
 Frequencies --   1192.7515              1202.5708              1236.7744
 Red. masses --      1.4037                 1.0979                 1.8060
 Frc consts  --      1.1766                 0.9354                 1.6276
 IR Inten    --     11.9340                 0.1798                 3.5015

                     52                     53                     54
                      A                      A                      A
 Frequencies --   1242.1026              1248.7027              1261.6009
 Red. masses --      1.5891                 1.2759                 1.4891
 Frc consts  --      1.4445                 1.1721                 1.3964
 IR Inten    --      3.7701                 2.9130                 5.7508

                     55                     56                     57
                      A                      A                      A
 Frequencies --   1270.0434              1286.3517              1316.5887
 Red. masses --      1.2374                 1.8804                 1.2642
 Frc consts  --      1.1760                 1.8332                 1.2911
 IR Inten    --      3.3214                12.8999                 0.8471

                     58                     59                     60
                      A                      A                      A
 Frequencies --   1328.0890              1337.5409              1363.4080
 Red. masses --      1.1432                 1.4850                 1.6946
 Frc consts  --      1.1880                 1.5653                 1.8560
 IR Inten    --      1.0990                 7.0660                71.4192

                     61                     62                     63
                      A                      A                      A
 Frequencies --   1377.1876              1378.7849              1386.5684
 Red. masses --      1.5737                 1.3077                 1.4462
 Frc consts  --      1.7586                 1.4647                 1.6381
 IR Inten    --      3.2539                 0.9487                10.9023

                     64                     65                     66
                      A                      A                      A
 Frequencies --   1403.2599              1410.9559              1418.2069
 Red. masses --      1.4033                 1.4959                 1.4092
 Frc consts  --      1.6280                 1.7546                 1.6699
 IR Inten    --      3.8802                12.3381                 3.0733

                     67                     68                     69
                      A                      A                      A
 Frequencies --   1421.9627              1428.3551              1469.1713
 Red. masses --      1.3667                 1.4487                 3.4938
 Frc consts  --      1.6282                 1.7415                 4.4432
 IR Inten    --      4.1113                 7.1799                 2.3201

                     70                     71                     72
                      A                      A                      A
 Frequencies --   1490.5587              1507.7108              1515.8891
 Red. masses --      1.1277                 1.0926                 1.0778
 Frc consts  --      1.4762                 1.4633                 1.4593
 IR Inten    --      4.3015                 8.8072                 0.8700

                     73                     74                     75
                      A                      A                      A
 Frequencies --   1517.0863              1523.6089              1530.3380
 Red. masses --      1.1010                 1.1122                 1.8925
 Frc consts  --      1.4929                 1.5212                 2.6113
 IR Inten    --      2.4129                 7.7815                10.9701

                     76                     77                     78
                      A                      A                      A
 Frequencies --   1535.0161              1537.1992              1540.9646
 Red. masses --      1.2417                 1.4304                 1.1237
 Frc consts  --      1.7239                 1.9914                 1.5722
 IR Inten    --     30.9853                 4.1462                 3.4098

                     79                     80                     81
                      A                      A                      A
 Frequencies --   1545.9166              1573.1352              1612.3264
 Red. masses --      1.1191                 5.6705                 5.8186
 Frc consts  --      1.5757                 8.2681                 8.9119
 IR Inten    --      3.9056               158.2970                47.3079

                     82                     83                     84
                      A                      A                      A
 Frequencies --   1681.0623              3012.7542              3015.1939
 Red. masses --      1.2313                 1.0709                 1.0831
 Frc consts  --      2.0502                 5.7269                 5.8016
 IR Inten    --     99.6459                86.2538                28.8364

                     85                     86                     87
                      A                      A                      A
 Frequencies --   3026.7113              3033.4090              3034.0023
 Red. masses --      1.0619                 1.0672                 1.0679
 Frc consts  --      5.7318                 5.7858                 5.7917
 IR Inten    --     15.2167                37.8661                46.3909

                     88                     89                     90
                      A                      A                      A
 Frequencies --   3044.5479              3048.9182              3056.1379
 Red. masses --      1.0665                 1.0704                 1.0709
 Frc consts  --      5.8244                 5.8624                 5.8931
 IR Inten    --     24.2018                 6.9918                68.0515

                     91                     92                     93
                      A                      A                      A
 Frequencies --   3058.6377              3059.8460              3072.7728
 Red. masses --      1.0947                 1.0669                 1.0939
 Frc consts  --      6.0339                 5.8854                 6.0853
 IR Inten    --     18.7878                25.5032                43.0261

                     94                     95                     96
                      A                      A                      A
 Frequencies --   3075.6772              3083.7893              3087.8651
 Red. masses --      1.1000                 1.0974                 1.0998
 Frc consts  --      6.1311                 6.1485                 6.1784
 IR Inten    --     61.4007                10.6633                61.2238

                     97                     98                     99
                      A                      A                      A
 Frequencies --   3101.0841              3103.0570              3129.9691
 Red. masses --      1.0968                 1.0943                 1.0932
 Frc consts  --      6.2143                 6.2081                 6.3101
 IR Inten    --     36.3769                73.9208                14.5078

                    100                    101                    102
                      A                      A                      A
 Frequencies --   3508.4712              3520.0132              3618.0486
 Red. masses --      1.0752                 1.0481                 1.0961
 Frc consts  --      7.7982                 7.6514                 8.4538
 IR Inten    --      0.2310                 4.5308                 7.4320

 - Thermochemistry -
 -------------------
 Temperature   298.150 Kelvin.  Pressure   1.00000 Atm.
 Atom     1 has atomic number  6 and mass  12.00000

 Molecular mass:   220.16880 amu.
 Principal axes and moments of inertia in atomic units:
                           1         2         3
     Eigenvalues --  2115.027224542.004115762.54110
           X            1.00000  -0.00140  -0.00048
           Y            0.00139   0.99986  -0.01653
           Z            0.00050   0.01653   0.99986
 This molecule is an asymmetric top.
 Rotational symmetry number  1.
 Warning -- assumption of classical behavior for rotation
           may cause significant error
 Rotational temperatures (Kelvin)      0.04095     0.01907     0.01503
 Rotational constants (GHZ):           0.85329     0.39734     0.31318
 Zero-point vibrational energy     848225.0 (Joules/Mol)
                                  202.73064 (Kcal/Mol)
 Warning -- explicit consideration of  22 degrees of freedom as
           vibrations may cause significant error
 Vibrational temperatures:     40.17    85.70   142.96   172.35   186.40
          (Kelvin)            235.70   273.92   300.71   332.98   335.13
                              365.34   408.34   446.08   494.89   551.37
                              580.70   635.85   751.05   767.79   846.90
                              873.72   881.95   959.70   975.12  1036.36
                             1074.05  1125.98  1137.48  1147.36  1191.64
                             1210.73  1219.92  1258.62  1313.77  1331.96
                             1393.11  1401.64  1456.51  1474.03  1489.34
                             1500.62  1537.10  1549.60  1552.05  1592.53
                             1648.49  1664.99  1691.78  1716.10  1730.23
                             1779.44  1787.11  1796.60  1815.16  1827.31
                             1850.77  1894.28  1910.82  1924.42  1961.64
                             1981.47  1983.76  1994.96  2018.98  2030.05
                             2040.48  2045.89  2055.08  2113.81  2144.58
                             2169.26  2181.03  2182.75  2192.13  2201.82
                             2208.55  2211.69  2217.10  2224.23  2263.39
                             2319.78  2418.67  4334.68  4338.19  4354.76
                             4364.40  4365.25  4380.43  4386.71  4397.10
                             4400.70  4402.44  4421.03  4425.21  4436.88
                             4442.75  4461.77  4464.61  4503.33  5047.91
                             5064.51  5205.56

 Zero-point correction=                           0.323072 (Hartree/Particle)
 Thermal correction to Energy=                    0.337671
 Thermal correction to Enthalpy=                  0.338616
 Thermal correction to Gibbs Free Energy=         0.281392
 Sum of electronic and zero-point Energies=           -688.027723
 Sum of electronic and thermal Energies=              -688.013124
 Sum of electronic and thermal Enthalpies=            -688.012179
 Sum of electronic and thermal Free Energies=         -688.069403

                     E (Thermal)             CV                S
                      KCal/Mol        Cal/Mol-Kelvin    Cal/Mol-Kelvin
 Total                  211.892             57.738            120.437
 Electronic               0.000              0.000              0.000
 Translational            0.889              2.981             42.071
 Rotational               0.889              2.981             32.382
 Vibrational            210.115             51.776             45.985
 Vibration     1          0.593              1.984              5.972
 Vibration     2          0.597              1.974              4.472
 Vibration     3          0.604              1.950              3.467
 Vibration     4          0.609              1.933              3.104
 Vibration     5          0.612              1.924              2.953
 Vibration     6          0.623              1.887              2.505
 Vibration     7          0.634              1.853              2.224
 Vibration     8          0.642              1.827              2.052
 Vibration     9          0.653              1.793              1.868
 Vibration    10          0.654              1.791              1.856
 Vibration    11          0.665              1.756              1.703
 Vibration    12          0.682              1.704              1.511
 Vibration    13          0.699              1.655              1.362
 Vibration    14          0.723              1.588              1.194
 Vibration    15          0.752              1.506              1.026
 Vibration    16          0.769              1.462              0.949
 Vibration    17          0.802              1.379              0.821
 Vibration    18          0.877              1.201              0.605
 Vibration    19          0.889              1.176              0.579
 Vibration    20          0.946              1.056              0.470
 Vibration    21          0.966              1.016              0.437
 Vibration    22          0.972              1.004              0.428

                           ! Non-Optimized Parameters !
 Normal termination of Gaussian 16 at Thu Dec 10 23:59:04 2020.

 ----------------------------------------------------------------------
 # B3LYP/6-311++G(d,p) empiricaldispersion=gd3bj scf=xqc pop=npa geom=c
 heck
 ----------------------------------------------------------------------

 ---------------------------------------
 CID_105476680_JID_6756_Energie_neutraal
 ---------------------------------------
 Structure from the checkpoint file:  "JID_6756.chk"
 Charge =  0 Multiplicity = 1

 SCF Done:  E(RB3LYP) =  -688.542382258     A.U. after   15 cycles
 Normal termination of Gaussian 16 at Fri Dec 11 00:06:53 2020.

 ----------------------------------------------------------------------
 # B3LYP/6-311++G(d,p) empiricaldispersion=gd3bj scf=xqc pop=npa geom=c
 heck
 ----------------------------------------------------------------------

 -------------------------------------
 CID_105476680_JID_6756_Energie_kation
 -------------------------------------
 Structure from the checkpoint file:  "JID_6756.chk"
 Charge =  1 Multiplicity = 2

 SCF Done:  E(UB3LYP) =  -688.266486910     A.U. after   27 cycles
 Normal termination of Gaussian 16 at Fri Dec 11 00:26:58 2020.
 Gaussian 16:  ES64L-G16RevA.03 25-Dec-2016

 ----------------------------------------------------------------------
 # B3LYP/6-311++G(d,p) empiricaldispersion=gd3bj scf=xqc pop=npa geom=c
 heck
 ----------------------------------------------------------------------

 ------------------------------------
 CID_105476680_JID_6756_Energie_anion
 ------------------------------------
 Structure from the checkpoint file:  "JID_6756.chk"
 Charge = -1 Multiplicity = 2

                         Standard orientation:
 ---------------------------------------------------------------------
 Center     Atomic      Atomic             Coordinates (Angstroms)
 Number     Number       Type             X           Y           Z
 ---------------------------------------------------------------------
      1          6           0       -3.330993    0.520933   -1.259140
      2          6           0       -3.465212   -0.873440   -0.617266
      3          6           0       -2.141511   -1.560678   -0.240795
      4          6           0       -1.617087   -1.151842    1.146300
      5          6           0       -1.036728    0.259408    1.290430
      6          6           0       -1.968621    1.382091    0.792595
      7          6           0       -2.186032    1.400963   -0.729233
      8          7           0        0.270935    0.370105    0.628425
      9          6           0        1.172615   -0.570523    0.244804
     10          6           0        2.308693    0.075087   -0.187241
     11          6           0        3.299637   -0.921707   -0.718622
     12          7           0        2.740751   -2.243900   -0.291736
     13          6           0        1.302267   -2.062561    0.053128
     14          6           0        2.032560    1.451346   -0.020830
     15          7           0        0.809492    1.630529    0.485830
     16          7           0        2.880205    2.541989   -0.242694
     17          1           0       -4.286174    1.047732   -1.133062
     18          1           0       -3.192997    0.406134   -2.342401
     19          1           0       -4.080853   -0.803714    0.289839
     20          1           0       -4.027309   -1.516216   -1.305966
     21          1           0       -1.383720   -1.372336   -1.011147
     22          1           0       -2.296910   -2.646462   -0.225717
     23          1           0       -0.872539   -1.874967    1.494535
     24          1           0       -2.447939   -1.221598    1.860088
     25          1           0       -0.865704    0.429974    2.362798
     26          1           0       -1.521031    2.329135    1.100711
     27          1           0       -2.923730    1.287544    1.325962
     28          1           0       -1.244096    1.117823   -1.210319
     29          1           0       -2.374098    2.433355   -1.047001
     30          1           0        4.318136   -0.809971   -0.329058
     31          1           0        3.372301   -0.891942   -1.815944
     32          1           0        3.219053   -2.499900    0.568403
     33          1           0        0.667143   -2.418144   -0.769623
     34          1           0        1.054952   -2.667272    0.931601
     35          1           0        2.363014    3.415105   -0.213548
     36          1           0        3.395292    2.470203   -1.113694
 ---------------------------------------------------------------------

 SCF Done:  E(UB3LYP) =  -688.530132104     A.U. after   33 cycles
 SCF Done:  E(UB3LYP) =  -688.530132104     a.u. after    1 cycles

 The electronic state is 2-A.
 Alpha  occ. eigenvalues --  -14.27720 -14.21553 -14.21001 -14.20577 -10.12265
 Alpha  occ. eigenvalues --  -10.11865 -10.11037 -10.10318 -10.10057 -10.07550
 Alpha  occ. eigenvalues --  -10.07067 -10.06908 -10.06878 -10.06875 -10.06432
 Alpha  occ. eigenvalues --  -10.05496  -0.93634  -0.82136  -0.81441  -0.74709
 Alpha  occ. eigenvalues --   -0.70244  -0.68272  -0.66469  -0.64666  -0.62047
 Alpha  occ. eigenvalues --   -0.55931  -0.55720  -0.53473  -0.49724  -0.47776
 Alpha  occ. eigenvalues --   -0.45599  -0.45311  -0.40902  -0.40469  -0.39231
 Alpha  occ. eigenvalues --   -0.38252  -0.37422  -0.36404  -0.34668  -0.33345
 Alpha  occ. eigenvalues --   -0.32552  -0.31501  -0.31196  -0.31012  -0.30183
 Alpha  occ. eigenvalues --   -0.28906  -0.28253  -0.28042  -0.26744  -0.25085
 Alpha  occ. eigenvalues --   -0.24394  -0.23891  -0.22541  -0.21812  -0.21596
 Alpha  occ. eigenvalues --   -0.20927  -0.19298  -0.14002  -0.12886  -0.10983
 Alpha  occ. eigenvalues --    0.04115
 Alpha virt. eigenvalues --    0.05792   0.06482   0.07223   0.07778   0.08321
 Alpha virt. eigenvalues --    0.08915   0.09477   0.09896   0.10406   0.10646
 Alpha virt. eigenvalues --    0.11322   0.11568   0.11833   0.12331   0.12854

  Beta  occ. eigenvalues --  -14.27719 -14.21516 -14.20993 -14.20561 -10.12264
  Beta  occ. eigenvalues --  -10.11859 -10.11014 -10.10296 -10.10056 -10.07532
  Beta  occ. eigenvalues --  -10.07052 -10.06892 -10.06868 -10.06866 -10.06425
  Beta  occ. eigenvalues --  -10.05492  -0.93628  -0.82108  -0.81393  -0.74680
  Beta  occ. eigenvalues --   -0.70218  -0.68252  -0.66442  -0.64634  -0.62005
  Beta  occ. eigenvalues --   -0.55895  -0.55688  -0.53427  -0.49687  -0.47742
  Beta  occ. eigenvalues --   -0.45555  -0.45271  -0.40858  -0.40426  -0.39187
  Beta  occ. eigenvalues --   -0.38214  -0.37395  -0.36379  -0.34644  -0.33321
  Beta  occ. eigenvalues --   -0.32529  -0.31471  -0.31165  -0.30979  -0.30161
  Beta  occ. eigenvalues --   -0.28862  -0.28220  -0.28010  -0.26721  -0.25059
  Beta  occ. eigenvalues --   -0.24364  -0.23868  -0.22511  -0.21783  -0.21572
  Beta  occ. eigenvalues --   -0.20897  -0.19265  -0.13982  -0.12869  -0.10962
  Beta virt. eigenvalues --    0.06147   0.06718   0.07225   0.07626   0.08301
  Beta virt. eigenvalues --    0.08764   0.09211   0.09858   0.10219   0.10751
  Beta virt. eigenvalues --    0.10995   0.11508   0.11686   0.12014   0.12550

 Mulliken charges and spin densities:
               1          2
     1  C    0.097302  -0.725869
     2  C    0.432833  -0.829011
     3  C   -0.622514   0.635231
     4  C    1.030011  -1.672974
     5  C   -0.819722   1.200894
     6  C   -0.190486  -0.320868
     7  C   -0.185630   0.079360
     8  N    0.081472   0.084123
     9  C   -0.843400   0.300103
    10  C    2.098250  -0.762458
    11  C    2.269661  -2.929475
    12  N   -0.219292   0.170577
    13  C    1.126950  -1.779951
    14  C   -3.765540   2.862599
    15  N    0.047146  -0.133748
    16  N   -0.407145   0.067272
    17  H    0.012504   0.113209
    18  H   -0.069684   0.216429
    19  H    0.003903   0.128691
    20  H   -0.256278   0.420942
    21  H    0.236195  -0.131609
    22  H   -0.261033   0.457694
    23  H    0.253608  -0.112934
    24  H   -0.360183   0.535432
    25  H   -0.132346   0.378852
    26  H    0.169034   0.028706
    27  H    0.069853   0.075403
    28  H    0.090107   0.079615
    29  H    0.014094   0.156956
    30  H   -0.186964   0.353960
    31  H   -0.049583   0.230668
    32  H    0.008171   0.234687
    33  H    0.008920   0.221894
    34  H   -0.429023   0.607424
    35  H   -0.069827   0.325280
    36  H   -0.181365   0.432893
 Sum of Mulliken charges =  -1.00000   1.00000

 Dipole moment (field-independent basis, Debye):
    X=             -1.8422    Y=              1.7232    Z=              0.1033  Tot=              2.5246
 Quadrupole moment (field-independent basis, Debye-Ang):
   XX=           -170.1485   YY=           -152.6241   ZZ=           -132.8333
   XY=             -7.8882   XZ=              0.8601   YZ=              1.8752

 Summary of Natural Population Analysis:

                                       Natural Population
                Natural  -----------------------------------------------
    Atom  No    Charge         Core      Valence    Rydberg      Total
 -----------------------------------------------------------------------
      C    1   -0.18607      0.99963     2.17903    0.00742     3.18607
      C    2   -0.19091      0.99963     2.18286    0.00842     3.19091
      C    3   -0.19699      0.99962     2.18802    0.00935     3.19699
      C    4   -0.19594      0.99960     2.18614    0.01020     3.19594
      C    5    0.00781      0.99956     1.97966    0.01297     2.99219
      C    6   -0.19632      0.99960     2.18881    0.00791     3.19632
      C    7   -0.19558      0.99962     2.18814    0.00782     3.19558
      N    8   -0.11942      0.99960     2.60658    0.01324     3.61942
      C    9    0.08705      0.99940     1.90202    0.01153     2.91295
      C   10   -0.09563      0.99937     2.08511    0.01115     3.09563
      C   11   -0.08353      0.99961     2.07524    0.00868     3.08353
      N   12   -0.33289      0.99978     2.82132    0.01179     3.83289
      C   13   -0.09798      0.99959     2.08782    0.01057     3.09798
      C   14    0.17145      0.99952     1.81347    0.01556     2.82855
      N   15   -0.19084      0.99969     2.68048    0.01067     3.69084
      N   16   -0.40230      0.99972     2.89260    0.00999     3.90230
      H   17    0.09272      0.00000     0.40610    0.00118     0.40728
      H   18    0.09463      0.00000     0.40418    0.00119     0.40537
      H   19    0.09155      0.00000     0.40703    0.00143     0.40845
      H   20    0.09963      0.00000     0.39924    0.00113     0.40037
      H   21    0.09674      0.00000     0.40157    0.00169     0.40326
      H   22    0.10252      0.00000     0.39615    0.00132     0.39748
      H   23    0.10389      0.00000     0.39426    0.00185     0.39611
      H   24    0.10109      0.00000     0.39763    0.00128     0.39891
      H   25    0.09742      0.00000     0.40090    0.00168     0.40258
      H   26    0.11236      0.00000     0.38591    0.00174     0.38764
      H   27    0.09666      0.00000     0.40229    0.00105     0.40334
      H   28    0.10189      0.00000     0.39623    0.00188     0.39811
      H   29    0.09925      0.00000     0.39976    0.00099     0.40075
      H   30    0.09619      0.00000     0.40205    0.00175     0.40381
      H   31    0.09038      0.00000     0.40788    0.00174     0.40962
      H   32    0.17217      0.00000     0.32473    0.00309     0.32783
      H   33    0.09689      0.00000     0.40136    0.00175     0.40311
      H   34    0.10178      0.00000     0.39634    0.00188     0.39822
      H   35    0.18564      0.00000     0.31235    0.00201     0.31436
      H   36    0.18471      0.00000     0.31249    0.00280     0.31529
 =======================================================================
   * Total *    0.00000     15.99354    43.80575    0.20071    60.00000

 Normal termination of Gaussian 16 at Fri Dec 11 00:51:28 2020.
