 Gaussian 16, Revision A.03,

 -----------------------------------------------------------
 # opt freq B3LYP/6-31G(d) empiricaldispersion=gd3bj scf=xqc
 -----------------------------------------------------------

 ------------------------------
 CID_85834720_JID_3704_neutraal
 ------------------------------
 Symbolic Z-matrix:
 Charge =  0 Multiplicity = 1

 SCF Done:  E(RB3LYP) =  -953.010052791     A.U. after   14 cycles
 SCF Done:  E(RB3LYP) =  -953.014548798     A.U. after   12 cycles
 SCF Done:  E(RB3LYP) =  -953.015214947     A.U. after   12 cycles
 SCF Done:  E(RB3LYP) =  -953.015425720     A.U. after   11 cycles
 SCF Done:  E(RB3LYP) =  -953.015456788     A.U. after   10 cycles
 SCF Done:  E(RB3LYP) =  -953.015478330     A.U. after   10 cycles
 SCF Done:  E(RB3LYP) =  -953.015485325     A.U. after    9 cycles
 SCF Done:  E(RB3LYP) =  -953.015486369     A.U. after    9 cycles
 SCF Done:  E(RB3LYP) =  -953.015486666     A.U. after    8 cycles
 SCF Done:  E(RB3LYP) =  -953.015486909     A.U. after    8 cycles
 SCF Done:  E(RB3LYP) =  -953.015544927     A.U. after   11 cycles
 SCF Done:  E(RB3LYP) =  -953.015505880     A.U. after   12 cycles
 SCF Done:  E(RB3LYP) =  -953.015550793     A.U. after   12 cycles
 SCF Done:  E(RB3LYP) =  -953.015551346     A.U. after   10 cycles
 SCF Done:  E(RB3LYP) =  -953.015551360     A.U. after    8 cycles
 Optimization completed.
    -- Stationary point found.
 Normal termination of Gaussian 16 at Mon Dec 14 16:44:31 2020.

 --------------------------------------------------------------------
 #N Geom=AllCheck Guess=TCheck SCRF=Check GenChk RB3LYP/6-31G(d) Freq
 --------------------------------------------------------------------

 Structure from the checkpoint file:  "JID_3704.chk"
 ------------------------------
 CID_85834720_JID_3704_neutraal
 ------------------------------
 Charge =  0 Multiplicity = 1

 SCF Done:  E(RB3LYP) =  -953.015551360     A.U. after    1 cycles

  Exact polarizability: 204.178 -16.466 126.032  -7.292 -15.227  68.879
 Approx polarizability: 297.194 -38.219 204.790 -15.816 -33.494 106.156

                      1                      2                      3
                      A                      A                      A
 Frequencies --     17.8575                42.2953                84.2876
 Red. masses --      3.9547                 4.6456                 4.6183
 Frc consts  --      0.0007                 0.0049                 0.0193
 IR Inten    --      0.5887                 0.0942                 1.6075

                      4                      5                      6
                      A                      A                      A
 Frequencies --     96.9938               127.9113               176.3438
 Red. masses --      4.9231                 3.5329                 4.7165
 Frc consts  --      0.0273                 0.0341                 0.0864
 IR Inten    --      0.0621                 1.0213                 0.9415

                      7                      8                      9
                      A                      A                      A
 Frequencies --    219.6073               266.1007               279.8630
 Red. masses --      1.3402                 3.5462                 8.6694
 Frc consts  --      0.0381                 0.1479                 0.4001
 IR Inten    --      2.2196                 1.4475                 7.5478

                     10                     11                     12
                      A                      A                      A
 Frequencies --    328.4854               348.7127               373.0919
 Red. masses --      3.1981                 1.0868                 6.4194
 Frc consts  --      0.2033                 0.0779                 0.5265
 IR Inten    --      6.4042               117.8603                 4.6543

                     13                     14                     15
                      A                      A                      A
 Frequencies --    410.7649               422.4941               442.3940
 Red. masses --      3.8132                 3.3176                 3.4389
 Frc consts  --      0.3791                 0.3489                 0.3965
 IR Inten    --      3.0898                 0.1519                 4.8081

                     16                     17                     18
                      A                      A                      A
 Frequencies --    524.4571               546.3538               590.2776
 Red. masses --      2.4333                 5.6041                 4.9802
 Frc consts  --      0.3943                 0.9856                 1.0224
 IR Inten    --     11.4147                16.3252                30.9141

                     19                     20                     21
                      A                      A                      A
 Frequencies --    621.9293               641.6416               658.2232
 Red. masses --      1.9678                 2.2802                 6.9911
 Frc consts  --      0.4485                 0.5531                 1.7846
 IR Inten    --     20.7429                55.8971                 1.4758

                     22                     23                     24
                      A                      A                      A
 Frequencies --    708.1819               759.7179               805.4511
 Red. masses --      4.3507                 3.8626                 3.1489
 Frc consts  --      1.2856                 1.3135                 1.2036
 IR Inten    --      0.1431                 1.4123                 2.4455

                     25                     26                     27
                      A                      A                      A
 Frequencies --    810.6350               818.2073               837.4619
 Red. masses --      1.5168                 1.2072                 1.6628
 Frc consts  --      0.5873                 0.4762                 0.6871
 IR Inten    --      7.0439                 3.3751                51.6805

                     28                     29                     30
                      A                      A                      A
 Frequencies --    880.0850               932.1829               941.3625
 Red. masses --      6.0722                 1.2919                 1.2982
 Frc consts  --      2.7711                 0.6614                 0.6778
 IR Inten    --     11.7066                 1.7028                 0.1294

                     31                     32                     33
                      A                      A                      A
 Frequencies --    956.8506              1034.7068              1085.1689
 Red. masses --      2.4046                 2.6127                 4.9541
 Frc consts  --      1.2971                 1.6481                 3.4372
 IR Inten    --      3.1981                 0.1260                69.8161

                     34                     35                     36
                      A                      A                      A
 Frequencies --   1132.0442              1147.5332              1167.7465
 Red. masses --      1.9804                 1.4074                 2.1375
 Frc consts  --      1.4953                 1.0919                 1.7174
 IR Inten    --     44.6892                49.8881               126.7423

                     37                     38                     39
                      A                      A                      A
 Frequencies --   1207.5896              1213.4651              1233.0919
 Red. masses --      1.2873                 1.2161                 2.2963
 Frc consts  --      1.1060                 1.0551                 2.0572
 IR Inten    --    147.0299                61.1451               182.1923

                     40                     41                     42
                      A                      A                      A
 Frequencies --   1255.3205              1313.2297              1341.1051
 Red. masses --      2.8548                 3.6641                 1.1344
 Frc consts  --      2.6506                 3.7230                 1.2021
 IR Inten    --     42.8758               206.2267                 5.7563

                     43                     44                     45
                      A                      A                      A
 Frequencies --   1356.7736              1380.1726              1401.0086
 Red. masses --      2.0478                 1.9521                 1.9765
 Frc consts  --      2.2210                 2.1909                 2.2857
 IR Inten    --     31.9544               192.4250               125.1334

                     46                     47                     48
                      A                      A                      A
 Frequencies --   1432.2666              1453.8353              1482.2410
 Red. masses --      1.4332                 1.7078                 2.4759
 Frc consts  --      1.7322                 2.1267                 3.2050
 IR Inten    --     99.9563                57.4632                 6.3160

                     49                     50                     51
                      A                      A                      A
 Frequencies --   1514.2942              1519.4407              1537.0419
 Red. masses --      1.0502                 1.1428                 1.0674
 Frc consts  --      1.4188                 1.5545                 1.4857
 IR Inten    --     15.1650                43.4466                15.1459

                     52                     53                     54
                      A                      A                      A
 Frequencies --   1567.5504              1581.1530              1658.8666
 Red. masses --      2.7495                 2.0297                 5.2705
 Frc consts  --      3.9805                 2.9898                 8.5453
 IR Inten    --    327.1425               429.7358                 1.5569

                     55                     56                     57
                      A                      A                      A
 Frequencies --   1682.9488              3062.7770              3095.5313
 Red. masses --      6.0428                 1.0363                 1.0596
 Frc consts  --     10.0839                 5.7278                 5.9824
 IR Inten    --     19.3083                17.1706                28.9863

                     58                     59                     60
                      A                      A                      A
 Frequencies --   3129.2962              3145.4878              3161.8425
 Red. masses --      1.1024                 1.1029                 1.1073
 Frc consts  --      6.3604                 6.4292                 6.5220
 IR Inten    --     22.8166                 5.0203                15.8490

                     61                     62                     63
                      A                      A                      A
 Frequencies --   3173.3715              3184.9378              3223.2213
 Red. masses --      1.0902                 1.0895                 1.0931
 Frc consts  --      6.4682                 6.5116                 6.6910
 IR Inten    --     25.4154                 8.3415                 6.5970

                     64                     65                     66
                      A                      A                      A
 Frequencies --   3274.0956              3616.9419              3753.3632
 Red. masses --      1.0914                 1.0766                 1.0660
 Frc consts  --      6.8930                 8.2983                 8.8477
 IR Inten    --      0.6339                40.5124                54.6638

 - Thermochemistry -
 -------------------
 Temperature   298.150 Kelvin.  Pressure   1.00000 Atm.
 Atom     1 has atomic number  6 and mass  12.00000

 Molecular mass:   197.05105 amu.
 Principal axes and moments of inertia in atomic units:
                           1         2         3
     Eigenvalues --  1164.571815497.979686327.31067
           X            0.99978   0.02029   0.00559
           Y           -0.02025   0.99977  -0.00771
           Z           -0.00575   0.00759   0.99995
 This molecule is an asymmetric top.
 Rotational symmetry number  1.
 Warning -- assumption of classical behavior for rotation
           may cause significant error
 Rotational temperatures (Kelvin)      0.07437     0.01575     0.01369
 Rotational constants (GHZ):           1.54970     0.32826     0.28523
 Zero-point vibrational energy     503566.1 (Joules/Mol)
                                  120.35520 (Kcal/Mol)
 Warning -- explicit consideration of  18 degrees of freedom as
           vibrations may cause significant error
 Vibrational temperatures:     25.69    60.85   121.27   139.55   184.04
          (Kelvin)            253.72   315.97   382.86   402.66   472.62
                              501.72   536.80   591.00   607.87   636.51
                              754.58   786.08   849.28   894.82   923.18
                              947.04  1018.92  1093.06  1158.86  1166.32
                             1177.22  1204.92  1266.25  1341.20  1354.41
                             1376.69  1488.71  1561.32  1628.76  1651.04
                             1680.13  1737.45  1745.91  1774.14  1806.13
                             1889.44  1929.55  1952.09  1985.76  2015.74
                             2060.71  2091.74  2132.61  2178.73  2186.14
                             2211.46  2255.36  2274.93  2386.74  2421.39
                             4406.65  4453.78  4502.36  4525.66  4549.19
                             4565.77  4582.42  4637.50  4710.69  5203.97
                             5400.25

 Zero-point correction=                           0.191798 (Hartree/Particle)
 Thermal correction to Energy=                    0.204495
 Thermal correction to Enthalpy=                  0.205439
 Thermal correction to Gibbs Free Energy=         0.150815
 Sum of electronic and zero-point Energies=           -952.823753
 Sum of electronic and thermal Energies=              -952.811056
 Sum of electronic and thermal Enthalpies=            -952.810112
 Sum of electronic and thermal Free Energies=         -952.864737

                     E (Thermal)             CV                S
                      KCal/Mol        Cal/Mol-Kelvin    Cal/Mol-Kelvin
 Total                  128.323             47.366            114.968
 Electronic               0.000              0.000              0.000
 Translational            0.889              2.981             41.740
 Rotational               0.889              2.981             32.072
 Vibrational            126.545             41.405             41.156
 Vibration     1          0.593              1.986              6.859
 Vibration     2          0.595              1.980              5.149
 Vibration     3          0.601              1.960              3.788
 Vibration     4          0.603              1.951              3.514
 Vibration     5          0.611              1.925              2.977
 Vibration     6          0.628              1.872              2.367
 Vibration     7          0.647              1.811              1.962
 Vibration     8          0.672              1.735              1.621
 Vibration     9          0.680              1.711              1.535
 Vibration    10          0.712              1.619              1.268
 Vibration    11          0.726              1.578              1.172
 Vibration    12          0.745              1.527              1.067
 Vibration    13          0.775              1.447              0.924
 Vibration    14          0.785              1.421              0.884
 Vibration    15          0.802              1.378              0.819
 Vibration    16          0.879              1.196              0.600
 Vibration    17          0.902              1.148              0.552
 Vibration    18          0.948              1.053              0.467

 Optimization completed.
    -- Stationary point found.
 Normal termination of Gaussian 16 at Mon Dec 14 16:49:42 2020.

 ----------------------------------------------------------------------
 # B3LYP/6-311++G(d,p) empiricaldispersion=gd3bj scf=xqc pop=npa geom=c
 heck
 ----------------------------------------------------------------------

 --------------------------------------
 CID_85834720_JID_3704_Energie_neutraal
 --------------------------------------
 Structure from the checkpoint file:  "JID_3704.chk"
 Charge =  0 Multiplicity = 1

 SCF Done:  E(RB3LYP) =  -953.205400527     A.U. after   15 cycles
 Normal termination of Gaussian 16 at Mon Dec 14 16:52:10 2020.

 ----------------------------------------------------------------------
 # B3LYP/6-311++G(d,p) empiricaldispersion=gd3bj scf=xqc pop=npa geom=c
 heck
 ----------------------------------------------------------------------

 ------------------------------------
 CID_85834720_JID_3704_Energie_kation
 ------------------------------------
 Structure from the checkpoint file:  "JID_3704.chk"
 Charge =  1 Multiplicity = 2

 SCF Done:  E(UB3LYP) =  -952.928716602     A.U. after   30 cycles
 Normal termination of Gaussian 16 at Mon Dec 14 16:59:02 2020.
 Gaussian 16:  ES64L-G16RevA.03 25-Dec-2016

 ----------------------------------------------------------------------
 # B3LYP/6-311++G(d,p) empiricaldispersion=gd3bj scf=xqc pop=npa geom=c
 heck
 ----------------------------------------------------------------------

 -----------------------------------
 CID_85834720_JID_3704_Energie_anion
 -----------------------------------
 Structure from the checkpoint file:  "JID_3704.chk"
 Charge = -1 Multiplicity = 2

                         Standard orientation:
 ---------------------------------------------------------------------
 Center     Atomic      Atomic             Coordinates (Angstroms)
 Number     Number       Type             X           Y           Z
 ---------------------------------------------------------------------
      1          6           0        3.273916    1.877637    1.122689
      2          6           0        2.826767    1.575697   -0.296214
      3          8           0        1.619626    0.776427   -0.296291
      4          6           0        1.703563   -0.555239   -0.208758
      5         16           0        3.108616   -1.466575   -0.188432
      6          7           0        0.480470   -1.141211   -0.140741
      7          6           0       -0.825756   -0.595763   -0.085676
      8          6           0       -1.183165    0.649083   -0.615440
      9          6           0       -2.504856    1.084077   -0.539535
     10          6           0       -3.488831    0.284500    0.046038
     11          6           0       -3.139214   -0.966869    0.562207
     12          6           0       -1.820624   -1.395175    0.498204
     13          8           0       -4.798713    0.664479    0.141672
     14          1           0        2.471827    2.364205    1.686692
     15          1           0        4.139596    2.549075    1.099749
     16          1           0        3.564499    0.956883    1.634785
     17          1           0        2.533766    2.483121   -0.829697
     18          1           0        3.596334    1.046496   -0.861634
     19          1           0        0.543791   -2.144202   -0.028102
     20          1           0       -0.438260    1.274746   -1.084481
     21          1           0       -2.769494    2.055549   -0.952269
     22          1           0       -3.906727   -1.585745    1.014368
     23          1           0       -1.553427   -2.364025    0.912883
     24          1           0       -4.901161    1.542649   -0.256335
 ---------------------------------------------------------------------

 SCF Done:  E(UB3LYP) =  -953.198218601     A.U. after   33 cycles
 SCF Done:  E(UB3LYP) =  -953.198218601     a.u. after    1 cycles

 The electronic state is 2-A.
 Alpha  occ. eigenvalues --  -88.68589 -19.06752 -19.04589 -14.25477 -10.18782
 Alpha  occ. eigenvalues --  -10.13289 -10.12736 -10.11446 -10.08104 -10.07405
 Alpha  occ. eigenvalues --  -10.07169 -10.07102 -10.07069  -7.77374  -5.73778
 Alpha  occ. eigenvalues --   -5.73193  -5.72931  -0.99382  -0.95690  -0.85663
 Alpha  occ. eigenvalues --   -0.75203  -0.68319  -0.65655  -0.65351  -0.60801
 Alpha  occ. eigenvalues --   -0.56749  -0.53055  -0.51907  -0.47352  -0.44682
 Alpha  occ. eigenvalues --   -0.44191  -0.42222  -0.38123  -0.37265  -0.35455
 Alpha  occ. eigenvalues --   -0.34500  -0.33120  -0.32452  -0.31855  -0.31157
 Alpha  occ. eigenvalues --   -0.29922  -0.29301  -0.28013  -0.27083  -0.25167
 Alpha  occ. eigenvalues --   -0.24578  -0.22775  -0.20025  -0.16067  -0.14416
 Alpha  occ. eigenvalues --   -0.11688  -0.10155   0.04314
 Alpha virt. eigenvalues --    0.06053   0.06766   0.07537   0.08101   0.08593
 Alpha virt. eigenvalues --    0.09555   0.09796   0.10979   0.11061   0.11258
 Alpha virt. eigenvalues --    0.12890   0.13041   0.13394   0.14596   0.14780

  Beta  occ. eigenvalues --  -88.68580 -19.06701 -19.04519 -14.25493 -10.18457
  Beta  occ. eigenvalues --  -10.13283 -10.12650 -10.11408 -10.08080 -10.07413
  Beta  occ. eigenvalues --  -10.07132 -10.07076 -10.07043  -7.77366  -5.73785
  Beta  occ. eigenvalues --   -5.73153  -5.72926  -0.99199  -0.95540  -0.85562
  Beta  occ. eigenvalues --   -0.75102  -0.68188  -0.65513  -0.65260  -0.60642
  Beta  occ. eigenvalues --   -0.56667  -0.52977  -0.51771  -0.47251  -0.44599
  Beta  occ. eigenvalues --   -0.44078  -0.42158  -0.37902  -0.37158  -0.35218
  Beta  occ. eigenvalues --   -0.34439  -0.33023  -0.32330  -0.31718  -0.30975
  Beta  occ. eigenvalues --   -0.29680  -0.29169  -0.27911  -0.26991  -0.24964
  Beta  occ. eigenvalues --   -0.24392  -0.22680  -0.19843  -0.15905  -0.13975
  Beta  occ. eigenvalues --   -0.11662  -0.09912
  Beta virt. eigenvalues --    0.06809   0.07435   0.07890   0.08168   0.08279
  Beta virt. eigenvalues --    0.08950   0.09671   0.09924   0.11099   0.11512
  Beta virt. eigenvalues --    0.11782   0.13007   0.13236   0.13426   0.14725

 Mulliken charges and spin densities:
               1          2
     1  C    0.179091  -0.500490
     2  C   -0.151791  -0.087299
     3  O    0.016239   0.023041
     4  C    0.093609   0.037044
     5  S   -0.666111  -0.036224
     6  N    0.060831  -0.019050
     7  C    0.175760  -0.186408
     8  C    0.584085  -0.194753
     9  C   -0.668792   0.782294
    10  C    1.509887  -1.900163
    11  C    0.224978  -0.491245
    12  C   -1.098264   0.665801
    13  O   -0.285672   0.038920
    14  H    0.066246   0.078558
    15  H   -0.190696   0.316193
    16  H   -0.003501   0.140947
    17  H   -0.200645   0.344127
    18  H    0.138327  -0.014243
    19  H    0.264199  -0.001221
    20  H    0.403160  -0.203233
    21  H   -1.353027   1.530603
    22  H    0.149523   0.017971
    23  H    0.012442   0.116066
    24  H   -0.259880   0.542765
 Sum of Mulliken charges =  -1.00000   1.00000

 Dipole moment (field-independent basis, Debye):
    X=              3.2184    Y=             -4.2731    Z=              1.3411  Tot=              5.5151
 Quadrupole moment (field-independent basis, Debye-Ang):
   XX=           -176.2529   YY=           -122.3933   ZZ=           -104.7272
   XY=             23.1258   XZ=             -7.9062   YZ=              1.4350

 Summary of Natural Population Analysis:

                                       Natural Population
                Natural  -----------------------------------------------
    Atom  No    Charge         Core      Valence    Rydberg      Total
 -----------------------------------------------------------------------
      C    1   -0.30002      0.99966     2.29600    0.00437     3.30002
      C    2   -0.01446      0.99957     2.00356    0.01133     3.01446
      O    3   -0.27707      0.99984     3.26496    0.01226     4.27707
      C    4    0.26632      0.99966     1.71276    0.02125     2.73368
      S    5   -0.16448      4.99958     3.15157    0.01333     8.16448
      N    6   -0.29986      0.99961     2.78940    0.01085     3.79986
      C    7    0.06440      0.99946     1.92539    0.01076     2.93560
      C    8   -0.09047      0.99953     2.08163    0.00930     3.09047
      C    9   -0.13485      0.99953     2.12437    0.01095     3.13485
      C   10    0.16495      0.99938     1.82163    0.01403     2.83505
      C   11   -0.12726      0.99952     2.11842    0.00931     3.12726
      C   12   -0.10176      0.99954     2.09401    0.00821     3.10176
      O   13   -0.34168      0.99988     3.33459    0.00722     4.34168
      H   14    0.10039      0.00000     0.39830    0.00132     0.39961
      H   15    0.09992      0.00000     0.39873    0.00134     0.40008
      H   16    0.10851      0.00000     0.39019    0.00130     0.39149
      H   17    0.08918      0.00000     0.40957    0.00125     0.41082
      H   18    0.09948      0.00000     0.39919    0.00133     0.40052
      H   19    0.19989      0.00000     0.29801    0.00210     0.30011
      H   20    0.11234      0.00000     0.38603    0.00164     0.38766
      H   21    0.10571      0.00000     0.39051    0.00377     0.39429
      H   22    0.10378      0.00000     0.39538    0.00083     0.39622
      H   23    0.09670      0.00000     0.40240    0.00091     0.40330
      H   24    0.24035      0.00000     0.24695    0.01270     0.25965
 =======================================================================
   * Total *    0.00000     16.99477    34.83357    0.17166    52.00000

 Normal termination of Gaussian 16 at Mon Dec 14 17:06:44 2020.
