 Gaussian 16, Revision A.03,

 -----------------------------------------------------------
 # opt freq B3LYP/6-31G(d) empiricaldispersion=gd3bj scf=xqc
 -----------------------------------------------------------

 -------------------------------
 CID_147218488_JID_1962_neutraal
 -------------------------------
 Symbolic Z-matrix:
 Charge =  0 Multiplicity = 1

 SCF Done:  E(RB3LYP) =  -802.354797692     A.U. after   19 cycles
 SCF Done:  E(RB3LYP) =  -802.395400069     A.U. after   15 cycles
 SCF Done:  E(RB3LYP) =  -802.407052122     A.U. after   15 cycles
 SCF Done:  E(RB3LYP) =  -802.409122133     A.U. after   13 cycles
 SCF Done:  E(RB3LYP) =  -802.409649530     A.U. after   13 cycles
 SCF Done:  E(RB3LYP) =  -802.409993427     A.U. after   13 cycles
 SCF Done:  E(RB3LYP) =  -802.410562565     A.U. after   14 cycles
 SCF Done:  E(RB3LYP) =  -802.379645471     A.U. after   14 cycles
 SCF Done:  E(RB3LYP) =  -802.412188347     A.U. after   14 cycles
 SCF Done:  E(RB3LYP) =  -802.413371578     A.U. after   14 cycles
 SCF Done:  E(RB3LYP) =  -802.415822837     A.U. after   13 cycles
 SCF Done:  E(RB3LYP) =  -802.415934431     A.U. after   12 cycles
 SCF Done:  E(RB3LYP) =  -802.415971702     A.U. after   12 cycles
 SCF Done:  E(RB3LYP) =  -802.415980373     A.U. after   11 cycles
 SCF Done:  E(RB3LYP) =  -802.415981846     A.U. after    9 cycles
 SCF Done:  E(RB3LYP) =  -802.415982288     A.U. after    8 cycles
 Optimization completed.
    -- Stationary point found.
 Normal termination of Gaussian 16 at Tue Dec  8 21:47:00 2020.

 --------------------------------------------------------------------
 #N Geom=AllCheck Guess=TCheck SCRF=Check GenChk RB3LYP/6-31G(d) Freq
 --------------------------------------------------------------------

 Structure from the checkpoint file:  "JID_1962.chk"
 -------------------------------
 CID_147218488_JID_1962_neutraal
 -------------------------------
 Charge =  0 Multiplicity = 1

 SCF Done:  E(RB3LYP) =  -802.415982288     A.U. after    1 cycles

  Exact polarizability: 155.535   1.997  95.577  10.090   0.689 100.685
 Approx polarizability: 229.834   7.095 151.053  24.595   3.223 170.729

                      1                      2                      3
                      A                      A                      A
 Frequencies --     35.7619                45.0755               119.4215
 Red. masses --      4.0055                 5.1120                 4.6319
 Frc consts  --      0.0030                 0.0061                 0.0389
 IR Inten    --      3.5418                 6.4658                 0.6040

                      4                      5                      6
                      A                      A                      A
 Frequencies --    153.1042               155.0752               200.2286
 Red. masses --      2.5868                 5.0907                 1.1933
 Frc consts  --      0.0357                 0.0721                 0.0282
 IR Inten    --      1.3425                 4.6889                 2.0833

                      7                      8                      9
                      A                      A                      A
 Frequencies --    220.2888               246.6339               291.6556
 Red. masses --      3.2430                 3.0956                 2.3993
 Frc consts  --      0.0927                 0.1109                 0.1202
 IR Inten    --      1.7525                 3.0955                 3.8311

                     10                     11                     12
                      A                      A                      A
 Frequencies --    312.6799               349.2633               390.0932
 Red. masses --      3.3769                 3.4968                 5.9964
 Frc consts  --      0.1945                 0.2513                 0.5376
 IR Inten    --      2.3603                14.9554                 7.9589

                     13                     14                     15
                      A                      A                      A
 Frequencies --    445.5614               464.7840               500.9769
 Red. masses --      3.9829                 1.2408                 1.5175
 Frc consts  --      0.4659                 0.1579                 0.2244
 IR Inten    --     55.7521                79.5187               106.6040

                     16                     17                     18
                      A                      A                      A
 Frequencies --    526.9087               582.7535               640.6505
 Red. masses --      3.0906                 3.5379                 4.6758
 Frc consts  --      0.5056                 0.7079                 1.1307
 IR Inten    --     40.7203                15.8187                11.2706

                     19                     20                     21
                      A                      A                      A
 Frequencies --    669.9591               683.5606               758.8429
 Red. masses --      5.8488                 5.0195                 1.8496
 Frc consts  --      1.5467                 1.3819                 0.6275
 IR Inten    --      0.8370                14.4705                12.0584

                     22                     23                     24
                      A                      A                      A
 Frequencies --    796.1270               830.3246               893.4846
 Red. masses --      1.7848                 1.7225                 2.7665
 Frc consts  --      0.6665                 0.6997                 1.3012
 IR Inten    --      2.9654                13.0757                 3.9538

                     25                     26                     27
                      A                      A                      A
 Frequencies --    949.3058               953.7876               961.9804
 Red. masses --      1.2259                 2.8886                 2.4066
 Frc consts  --      0.6509                 1.5482                 1.3121
 IR Inten    --      1.6395                18.7678                19.4386

                     28                     29                     30
                      A                      A                      A
 Frequencies --    977.7278               991.5145              1011.8149
 Red. masses --      2.0935                 2.0278                 1.4532
 Frc consts  --      1.1791                 1.1745                 0.8766
 IR Inten    --      5.1445                 2.9155                20.8614

                     31                     32                     33
                      A                      A                      A
 Frequencies --   1023.5152              1049.4749              1061.3507
 Red. masses --      2.5384                 2.2858                 1.6289
 Frc consts  --      1.5668                 1.4833                 1.0811
 IR Inten    --     17.5415                 2.5980                 7.1318

                     34                     35                     36
                      A                      A                      A
 Frequencies --   1104.3722              1190.7283              1235.3943
 Red. masses --      1.7308                 1.0840                 1.0820
 Frc consts  --      1.2437                 0.9055                 0.9729
 IR Inten    --      2.2002                 2.5227                10.5895

                     37                     38                     39
                      A                      A                      A
 Frequencies --   1280.5557              1331.7508              1338.0434
 Red. masses --      1.6685                 1.3517                 1.4213
 Frc consts  --      1.6121                 1.4125                 1.4992
 IR Inten    --      1.0230                 4.0000                 6.7042

                     40                     41                     42
                      A                      A                      A
 Frequencies --   1371.6136              1381.6797              1427.7722
 Red. masses --      1.1757                 1.4969                 1.6347
 Frc consts  --      1.3032                 1.6837                 1.9634
 IR Inten    --      0.5689                10.2710                 2.0287

                     43                     44                     45
                      A                      A                      A
 Frequencies --   1440.2131              1483.9695              1493.4797
 Red. masses --      1.1166                 1.0536                 1.0904
 Frc consts  --      1.3646                 1.3671                 1.4329
 IR Inten    --      2.2562                13.1131                 3.7201

                     46                     47                     48
                      A                      A                      A
 Frequencies --   1497.4764              1659.1776              1702.5828
 Red. masses --      1.0499                 7.7588                 6.2773
 Frc consts  --      1.3872                12.5844                10.7211
 IR Inten    --      5.8620                 0.9488                 1.5719

                     49                     50                     51
                      A                      A                      A
 Frequencies --   2360.2798              3018.1902              3071.8862
 Red. masses --     12.6521                 1.0705                 1.0838
 Frc consts  --     41.5279                 5.7454                 6.0258
 IR Inten    --      6.1231                24.1381                10.4161

                     52                     53                     54
                      A                      A                      A
 Frequencies --   3074.6525              3110.4447              3151.8663
 Red. masses --      1.0291                 1.0922                 1.0505
 Frc consts  --      5.7320                 6.2257                 6.1487
 IR Inten    --      6.4538                12.2661                 6.4400

                     55                     56                     57
                      A                      A                      A
 Frequencies --   3168.6390              3176.1849              3184.2950
 Red. masses --      1.1062                 1.0869                 1.0905
 Frc consts  --      6.5440                 6.4600                 6.5150
 IR Inten    --      4.1384                 2.8738                 6.5242

                     58                     59                     60
                      A                      A                      A
 Frequencies --   3189.0846              3209.4488              3268.2919
 Red. masses --      1.1076                 1.0953                 1.1162
 Frc consts  --      6.6369                 6.6475                 7.0248
 IR Inten    --      1.8616                12.4110                 6.0455

 - Thermochemistry -
 -------------------
 Temperature   298.150 Kelvin.  Pressure   1.00000 Atm.
 Atom     1 has atomic number  6 and mass  12.00000

 Molecular mass:   165.06122 amu.
 Principal axes and moments of inertia in atomic units:
                           1         2         3
     Eigenvalues --   985.603223056.066403260.47161
           X            0.99952  -0.02794   0.01333
           Y            0.02815   0.99949  -0.01523
           Z           -0.01290   0.01560   0.99980
 This molecule is an asymmetric top.
 Rotational symmetry number  1.
 Warning -- assumption of classical behavior for rotation
           may cause significant error
 Rotational temperatures (Kelvin)      0.08788     0.02834     0.02656
 Rotational constants (GHZ):           1.83110     0.59054     0.55352
 Zero-point vibrational energy     461852.8 (Joules/Mol)
                                  110.38547 (Kcal/Mol)
 Warning -- explicit consideration of  17 degrees of freedom as
           vibrations may cause significant error
 Vibrational temperatures:     51.45    64.85   171.82   220.28   223.12
          (Kelvin)            288.08   316.95   354.85   419.63   449.88
                              502.51   561.26   641.06   668.72   720.79
                              758.10   838.45   921.75   963.92   983.49
                             1091.81  1145.45  1194.65  1285.53  1365.84
                             1372.29  1384.08  1406.73  1426.57  1455.78
                             1472.61  1509.96  1527.05  1588.95  1713.19
                             1777.46  1842.43  1916.09  1925.15  1973.45
                             1987.93  2054.25  2072.15  2135.10  2148.78
                             2154.53  2387.19  2449.64  3395.92  4342.50
                             4419.76  4423.74  4475.24  4534.83  4558.96
                             4569.82  4581.49  4588.38  4617.68  4702.34

 Zero-point correction=                           0.175910 (Hartree/Particle)
 Thermal correction to Energy=                    0.187794
 Thermal correction to Enthalpy=                  0.188738
 Thermal correction to Gibbs Free Energy=         0.137482
 Sum of electronic and zero-point Energies=           -802.240072
 Sum of electronic and thermal Energies=              -802.228189
 Sum of electronic and thermal Enthalpies=            -802.227244
 Sum of electronic and thermal Free Energies=         -802.278500

                     E (Thermal)             CV                S
                      KCal/Mol        Cal/Mol-Kelvin    Cal/Mol-Kelvin
 Total                  117.842             44.126            107.877
 Electronic               0.000              0.000              0.000
 Translational            0.889              2.981             41.212
 Rotational               0.889              2.981             30.663
 Vibrational            116.065             38.164             36.002
 Vibration     1          0.594              1.982              5.481
 Vibration     2          0.595              1.979              5.023
 Vibration     3          0.609              1.933              3.110
 Vibration     4          0.619              1.899              2.633
 Vibration     5          0.620              1.897              2.609
 Vibration     6          0.638              1.840              2.131
 Vibration     7          0.647              1.810              1.957
 Vibration     8          0.661              1.768              1.755
 Vibration     9          0.687              1.689              1.464
 Vibration    10          0.701              1.650              1.348
 Vibration    11          0.727              1.577              1.170
 Vibration    12          0.758              1.491              1.000
 Vibration    13          0.805              1.371              0.809
 Vibration    14          0.822              1.328              0.752
 Vibration    15          0.856              1.248              0.656
 Vibration    16          0.882              1.190              0.594
 Vibration    17          0.940              1.069              0.480

 Optimization completed.
    -- Stationary point found.
 Normal termination of Gaussian 16 at Tue Dec  8 21:51:47 2020.

 ----------------------------------------------------------------------
 # B3LYP/6-311++G(d,p) empiricaldispersion=gd3bj scf=xqc pop=npa geom=c
 heck
 ----------------------------------------------------------------------

 ---------------------------------------
 CID_147218488_JID_1962_Energie_neutraal
 ---------------------------------------
 Structure from the checkpoint file:  "JID_1962.chk"
 Charge =  0 Multiplicity = 1

 SCF Done:  E(RB3LYP) =  -802.558536066     A.U. after   17 cycles
 Normal termination of Gaussian 16 at Tue Dec  8 21:54:16 2020.

 ----------------------------------------------------------------------
 # B3LYP/6-311++G(d,p) empiricaldispersion=gd3bj scf=xqc pop=npa geom=c
 heck
 ----------------------------------------------------------------------

 -------------------------------------
 CID_147218488_JID_1962_Energie_kation
 -------------------------------------
 Structure from the checkpoint file:  "JID_1962.chk"
 Charge =  1 Multiplicity = 2

 SCF Done:  E(UB3LYP) =  -802.296754538     A.U. after   24 cycles
 Normal termination of Gaussian 16 at Tue Dec  8 21:59:19 2020.
 Gaussian 16:  ES64L-G16RevA.03 25-Dec-2016

 ----------------------------------------------------------------------
 # B3LYP/6-311++G(d,p) empiricaldispersion=gd3bj scf=xqc pop=npa geom=c
 heck
 ----------------------------------------------------------------------

 ------------------------------------
 CID_147218488_JID_1962_Energie_anion
 ------------------------------------
 Structure from the checkpoint file:  "JID_1962.chk"
 Charge = -1 Multiplicity = 2

                         Standard orientation:
 ---------------------------------------------------------------------
 Center     Atomic      Atomic             Coordinates (Angstroms)
 Number     Number       Type             X           Y           Z
 ---------------------------------------------------------------------
      1          6           0       -1.982258    1.790862   -0.004058
      2         16           0       -2.200084    0.045318    0.491880
      3          6           0       -3.301568   -0.571752   -0.590581
      4          6           0       -0.414063   -0.420004    0.215425
      5          6           0        0.379122   -0.695494    1.260937
      6          6           0        1.788217   -1.180163    1.017072
      7          6           0        2.373680   -0.578588   -0.282900
      8          6           0        1.367716   -0.669441   -1.424222
      9          6           0        0.056395   -0.589365   -1.155752
     10          6           0        2.753507    0.833864   -0.084117
     11          7           0        3.034532    1.949257    0.072461
     12          1           0       -2.936654    2.292705    0.162780
     13          1           0       -1.715872    1.836061   -1.063298
     14          1           0       -1.186276    2.234261    0.598381
     15          1           0       -3.136297   -0.437810   -1.656516
     16          1           0       -3.781867   -1.481749   -0.251461
     17          1           0        0.019771   -0.606396    2.283434
     18          1           0        1.782971   -2.275841    0.908935
     19          1           0        2.440831   -0.944515    1.862734
     20          1           0        3.287166   -1.124803   -0.544745
     21          1           0        1.747340   -0.738417   -2.438967
     22          1           0       -0.685988   -0.642895   -1.949390
 ---------------------------------------------------------------------

 SCF Done:  E(UB3LYP) =  -802.567440314     A.U. after   28 cycles

 The electronic state is 2-A.
 Alpha  occ. eigenvalues --  -88.77826 -14.16810 -10.07802 -10.07095 -10.06945
 Alpha  occ. eigenvalues --  -10.04664 -10.02412 -10.00989 -10.00551 -10.00372
 Alpha  occ. eigenvalues --  -10.00310  -7.85850  -5.82039  -5.81982  -5.81498
 Alpha  occ. eigenvalues --   -0.76925  -0.72150  -0.69584  -0.61389  -0.59924
 Alpha  occ. eigenvalues --   -0.57312  -0.50873  -0.45868  -0.44373  -0.38645
 Alpha  occ. eigenvalues --   -0.36641  -0.33257  -0.32332  -0.30282  -0.29712
 Alpha  occ. eigenvalues --   -0.29506  -0.27613  -0.27008  -0.26909  -0.25190
 Alpha  occ. eigenvalues --   -0.23177  -0.22142  -0.20968  -0.18498  -0.18307
 Alpha  occ. eigenvalues --   -0.16582  -0.16018  -0.08443  -0.05059   0.05125
 Alpha virt. eigenvalues --    0.08711   0.09517   0.10477   0.10757   0.11701
 Alpha virt. eigenvalues --    0.12102   0.12404   0.13436   0.14265   0.14593
 Alpha virt. eigenvalues --    0.14967   0.15356   0.15833   0.16549   0.16919

  Beta  occ. eigenvalues --  -88.77827 -14.16736 -10.07816 -10.07081 -10.06907
  Beta  occ. eigenvalues --  -10.04678 -10.02293 -10.00850 -10.00339 -10.00118
  Beta  occ. eigenvalues --   -9.99793  -7.85850  -5.82039  -5.81982  -5.81498
  Beta  occ. eigenvalues --   -0.76798  -0.71906  -0.69284  -0.60943  -0.59186
  Beta  occ. eigenvalues --   -0.57258  -0.50674  -0.45434  -0.43617  -0.38233
  Beta  occ. eigenvalues --   -0.36439  -0.33047  -0.32262  -0.30052  -0.29580
  Beta  occ. eigenvalues --   -0.29211  -0.27277  -0.26798  -0.26645  -0.25115
  Beta  occ. eigenvalues --   -0.22969  -0.21867  -0.20688  -0.18355  -0.17856
  Beta  occ. eigenvalues --   -0.16069  -0.14806  -0.06125  -0.04708
  Beta virt. eigenvalues --    0.08696   0.09437   0.10426   0.10739   0.11496
  Beta virt. eigenvalues --    0.11725   0.12150   0.12578   0.13375   0.14244
  Beta virt. eigenvalues --    0.14573   0.15052   0.15420   0.16008   0.16605

 Mulliken charges and spin densities:
               1          2
     1  C   -0.780937  -0.073498
     2  S    0.457933   0.043423
     3  C   -0.838363   0.032949
     4  C    0.098047   0.032909
     5  C   -0.116959   0.417724
     6  C   -0.877317   0.089613
     7  C    1.071632   0.035461
     8  C   -0.922303   0.319509
     9  C    0.108504   0.101489
    10  C   -0.169324  -0.167433
    11  N   -0.427838   0.047214
    12  H    0.136549   0.016734
    13  H    0.167981   0.023941
    14  H    0.148037  -0.004646
    15  H    0.078508  -0.001089
    16  H    0.127558   0.000660
    17  H    0.148267  -0.028532
    18  H    0.115608   0.019468
    19  H    0.137824   0.009403
    20  H    0.101168   0.109952
    21  H    0.113841  -0.022928
    22  H    0.121586  -0.002322
 Sum of Mulliken charges =  -1.00000   1.00000

 Dipole moment (field-independent basis, Debye):
    X=             -0.2505    Y=             -1.1275    Z=              0.7405  Tot=              1.3720
 Quadrupole moment (field-independent basis, Debye-Ang):
   XX=           -120.5109   YY=            -92.9519   ZZ=            -84.1153
   XY=            -13.5362   XZ=             -1.5087   YZ=             -1.1239

 Summary of Natural Population Analysis:

                                       Natural Population
                Natural  -----------------------------------------------
    Atom  No    Charge         Core      Valence    Rydberg      Total
 -----------------------------------------------------------------------
      C    1   -0.35728      0.99963     2.35134    0.00632     3.35728
      S    2    0.41177      4.99922     2.54805    0.04097     7.58823
      C    3   -0.51462      0.99970     2.50015    0.01478     3.51462
      C    4   -0.11212      0.99931     2.09178    0.02104     3.11212
      C    5   -0.00003      0.99944     1.98777    0.01282     3.00003
      C    6   -0.19057      0.99962     2.18136    0.00959     3.19057
      C    7   -0.17220      0.99952     2.16231    0.01038     3.17220
      C    8   -0.02071      0.99953     2.00901    0.01217     3.02071
      C    9   -0.10203      0.99947     2.09328    0.00928     3.10203
      C   10    0.17398      0.99965     1.80353    0.02285     2.82602
      N   11   -0.20480      0.99978     2.69296    0.01206     3.70480
      H   12    0.10096      0.00000     0.39726    0.00178     0.39904
      H   13    0.10684      0.00000     0.39192    0.00124     0.39316
      H   14    0.11006      0.00000     0.38909    0.00085     0.38994
      H   15    0.09029      0.00000     0.40829    0.00143     0.40971
      H   16    0.09790      0.00000     0.40093    0.00117     0.40210
      H   17    0.08592      0.00000     0.41312    0.00096     0.41408
      H   18    0.10310      0.00000     0.39588    0.00102     0.39690
      H   19    0.09876      0.00000     0.40035    0.00089     0.40124
      H   20    0.11400      0.00000     0.38389    0.00212     0.38600
      H   21    0.08559      0.00000     0.41356    0.00085     0.41441
      H   22    0.09521      0.00000     0.40304    0.00176     0.40479
 =======================================================================
   * Total *    0.00000     14.99487    28.81883    0.18630    44.00000

 Normal termination of Gaussian 16 at Tue Dec  8 22:04:45 2020.
