 Gaussian 16, Revision A.03,

 ----------------------------------------------------------------------
 # opt=(cartesian,calcfc) freq B3LYP/6-31G(d) empiricaldispersion=gd3bj
  scf=xqc
 ----------------------------------------------------------------------

 -------------------------------
 CID_133666409_JID_4884_neutraal
 -------------------------------
 Symbolic Z-matrix:
 Charge =  0 Multiplicity = 1

 SCF Done:  E(RB3LYP) =  -613.495702391     A.U. after   14 cycles
 SCF Done:  E(RB3LYP) =  -613.498514876     A.U. after   11 cycles
 SCF Done:  E(RB3LYP) =  -613.500968843     A.U. after   12 cycles
 SCF Done:  E(RB3LYP) =  -613.502210117     A.U. after   12 cycles
 SCF Done:  E(RB3LYP) =  -613.502153735     A.U. after   12 cycles
 SCF Done:  E(RB3LYP) =  -613.502533156     A.U. after   11 cycles
 SCF Done:  E(RB3LYP) =  -613.502811713     A.U. after   11 cycles
 SCF Done:  E(RB3LYP) =  -613.503069755     A.U. after   11 cycles
 SCF Done:  E(RB3LYP) =  -613.503055947     A.U. after   11 cycles
 SCF Done:  E(RB3LYP) =  -613.503180392     A.U. after   10 cycles
 SCF Done:  E(RB3LYP) =  -613.503220288     A.U. after    7 cycles
 SCF Done:  E(RB3LYP) =  -613.503220365     A.U. after    6 cycles
 SCF Done:  E(RB3LYP) =  -613.503220321     A.U. after    7 cycles
 SCF Done:  E(RB3LYP) =  -613.503220367     A.U. after    6 cycles
 SCF Done:  E(RB3LYP) =  -613.503220215     A.U. after    8 cycles
 SCF Done:  E(RB3LYP) =  -613.503220363     A.U. after    6 cycles
 Optimization completed.
    -- Stationary point found.
 Normal termination of Gaussian 16 at Thu Dec 17 20:35:41 2020.

 --------------------------------------------------------------------
 #N Geom=AllCheck Guess=TCheck SCRF=Check GenChk RB3LYP/6-31G(d) Freq
 --------------------------------------------------------------------

 Structure from the checkpoint file:  "JID_4884.chk"
 -------------------------------
 CID_133666409_JID_4884_neutraal
 -------------------------------
 Charge =  0 Multiplicity = 1

 SCF Done:  E(RB3LYP) =  -613.503220363     A.U. after    1 cycles

  Exact polarizability: 138.140  -0.600 106.971   2.312  -5.673 116.986
 Approx polarizability: 195.848  -0.542 145.235   2.160 -17.166 187.914

                      1                      2                      3
                      A                      A                      A
 Frequencies --      5.6398                60.5970                70.6028
 Red. masses --      4.0376                 2.3938                 3.1686
 Frc consts  --      0.0001                 0.0052                 0.0093
 IR Inten    --      4.9958                 0.4819                 0.0206

                      4                      5                      6
                      A                      A                      A
 Frequencies --     78.3755               102.9534               145.7437
 Red. masses --      1.2593                 2.7924                 4.4321
 Frc consts  --      0.0046                 0.0174                 0.0555
 IR Inten    --      0.1510                 0.0103                 1.3795

                      7                      8                      9
                      A                      A                      A
 Frequencies --    159.6989               170.9771               253.3158
 Red. masses --      2.6569                 3.0777                 3.3159
 Frc consts  --      0.0399                 0.0530                 0.1254
 IR Inten    --      2.2915                 0.3949                 0.2254

                     10                     11                     12
                      A                      A                      A
 Frequencies --    262.3453               283.6356               310.1366
 Red. masses --      1.9093                 1.7723                 3.2629
 Frc consts  --      0.0774                 0.0840                 0.1849
 IR Inten    --     63.4619                46.3282                 2.2357

                     13                     14                     15
                      A                      A                      A
 Frequencies --    318.9972               356.9601               384.9508
 Red. masses --      2.6015                 6.1688                 3.5034
 Frc consts  --      0.1560                 0.4631                 0.3059
 IR Inten    --      2.1335                 1.2190                 0.5050

                     16                     17                     18
                      A                      A                      A
 Frequencies --    493.6216               498.1091               531.3809
 Red. masses --      3.4023                 3.1388                 3.7269
 Frc consts  --      0.4884                 0.4588                 0.6200
 IR Inten    --      3.0092                 2.1652                 2.5196

                     19                     20                     21
                      A                      A                      A
 Frequencies --    611.3934               627.7485               687.6866
 Red. masses --      1.1315                 5.9679                 9.4907
 Frc consts  --      0.2492                 1.3856                 2.6444
 IR Inten    --     40.3201                13.2339                 2.8082

                     22                     23                     24
                      A                      A                      A
 Frequencies --    714.8214               747.6429               785.5412
 Red. masses --      2.9968                 5.9746                 1.6234
 Frc consts  --      0.9022                 1.9676                 0.5902
 IR Inten    --      1.4706                 2.5045                 1.1819

                     25                     26                     27
                      A                      A                      A
 Frequencies --    799.4443               810.3142               824.9191
 Red. masses --      1.2767                 1.4114                 2.2195
 Frc consts  --      0.4807                 0.5460                 0.8899
 IR Inten    --      4.0967                 3.9871                 4.5908

                     28                     29                     30
                      A                      A                      A
 Frequencies --    836.3591               861.6037               895.7016
 Red. masses --      1.1516                 1.7938                 2.4350
 Frc consts  --      0.4746                 0.7846                 1.1510
 IR Inten    --      1.0356                13.7013                 2.7847

                     31                     32                     33
                      A                      A                      A
 Frequencies --    918.0510               966.1684              1021.2706
 Red. masses --      3.8205                 3.0048                 3.4327
 Frc consts  --      1.8972                 1.6526                 2.1094
 IR Inten    --      3.9285                11.3406                 3.6294

                     34                     35                     36
                      A                      A                      A
 Frequencies --   1027.4209              1054.5130              1062.2835
 Red. masses --      2.6499                 3.1577                 1.4116
 Frc consts  --      1.6481                 2.0688                 0.9385
 IR Inten    --     23.4864                17.4529                 2.1074

                     37                     38                     39
                      A                      A                      A
 Frequencies --   1070.0945              1077.7099              1093.0116
 Red. masses --      1.3947                 2.1542                 1.3681
 Frc consts  --      0.9409                 1.4741                 0.9629
 IR Inten    --      9.7114                 4.5965                 2.7183

                     40                     41                     42
                      A                      A                      A
 Frequencies --   1102.1435              1118.7579              1149.3354
 Red. masses --      1.3574                 1.3002                 1.1008
 Frc consts  --      0.9715                 0.9588                 0.8567
 IR Inten    --      0.4651                 5.8818                 2.5045

                     43                     44                     45
                      A                      A                      A
 Frequencies --   1152.0227              1155.0096              1168.3028
 Red. masses --      1.1107                 1.2948                 1.7031
 Frc consts  --      0.8685                 1.0177                 1.3696
 IR Inten    --      0.5069                 0.0105                11.6410

                     46                     47                     48
                      A                      A                      A
 Frequencies --   1181.5582              1191.1180              1213.1221
 Red. masses --      1.6429                 1.9684                 1.3848
 Frc consts  --      1.3513                 1.6454                 1.2007
 IR Inten    --     74.9411                15.9532                 0.0474

                     49                     50                     51
                      A                      A                      A
 Frequencies --   1218.7096              1239.2308              1248.6505
 Red. masses --      1.3828                 1.8355                 1.8719
 Frc consts  --      1.2101                 1.6608                 1.7195
 IR Inten    --      1.2691               120.7979                 6.3587

                     52                     53                     54
                      A                      A                      A
 Frequencies --   1263.2692              1323.0474              1356.1777
 Red. masses --      1.9071                 1.3789                 2.2539
 Frc consts  --      1.7932                 1.4221                 2.4425
 IR Inten    --      2.6181                 2.1504                15.9779

                     55                     56                     57
                      A                      A                      A
 Frequencies --   1398.0523              1406.1501              1423.7444
 Red. masses --      3.8482                 1.6731                 1.8461
 Frc consts  --      4.4315                 1.9491                 2.2048
 IR Inten    --     41.7826                 3.5071                32.9433

                     58                     59                     60
                      A                      A                      A
 Frequencies --   1446.9569              1479.5504              1488.7688
 Red. masses --      2.3843                 1.4876                 1.0890
 Frc consts  --      2.9412                 1.9186                 1.4221
 IR Inten    --      8.8615                 7.2922                 0.9695

                     61                     62                     63
                      A                      A                      A
 Frequencies --   1490.9364              1516.0966              1520.5995
 Red. masses --      1.0969                 1.0420                 1.9673
 Frc consts  --      1.4365                 1.4111                 2.6801
 IR Inten    --      8.3698                 8.0517                25.3889

                     64                     65                     66
                      A                      A                      A
 Frequencies --   1530.3696              1535.8955              1544.7206
 Red. masses --      1.3635                 1.4681                 1.5503
 Frc consts  --      1.8814                 2.0405                 2.1795
 IR Inten    --      6.4034                45.1594                 3.4976

                     67                     68                     69
                      A                      A                      A
 Frequencies --   1558.3705              1625.9819              3025.9466
 Red. masses --      2.4813                 7.5664                 1.0811
 Frc consts  --      3.5503                11.7861                 5.8325
 IR Inten    --      1.0170               229.4177                26.6210

                     70                     71                     72
                      A                      A                      A
 Frequencies --   3065.7702              3128.4182              3132.9334
 Red. masses --      1.0344                 1.1063                 1.0850
 Frc consts  --      5.7279                 6.3794                 6.2745
 IR Inten    --     39.4384                13.9353                 5.2491

                     73                     74                     75
                      A                      A                      A
 Frequencies --   3138.5133              3142.2839              3143.8220
 Red. masses --      1.0785                 1.0589                 1.0569
 Frc consts  --      6.2591                 6.1601                 6.1549
 IR Inten    --     41.0534                22.1467                19.0963

                     76                     77                     78
                      A                      A                      A
 Frequencies --   3154.4214              3155.8583              3162.2327
 Red. masses --      1.0590                 1.0600                 1.1026
 Frc consts  --      6.2087                 6.2198                 6.4960
 IR Inten    --      9.0611                41.7486                11.4924

                     79                     80                     81
                      A                      A                      A
 Frequencies --   3218.9290              3221.6329              3246.4134
 Red. masses --      1.1179                 1.1176                 1.1158
 Frc consts  --      6.8243                 6.8345                 6.9283
 IR Inten    --     17.2087                19.4480                 5.1242

                     82                     83                     84
                      A                      A                      A
 Frequencies --   3251.4599              3284.0540              3770.0097
 Red. masses --      1.1146                 1.0976                 1.0659
 Frc consts  --      6.9427                 6.9742                 8.9259
 IR Inten    --      4.8695                 2.8165                43.8287

 - Thermochemistry -
 -------------------
 Temperature   298.150 Kelvin.  Pressure   1.00000 Atm.
 Atom     1 has atomic number  6 and mass  12.00000

 Molecular mass:   192.12626 amu.
 Principal axes and moments of inertia in atomic units:
                           1         2         3
     Eigenvalues --  2206.760453101.447123378.62493
           X            0.99927  -0.01824   0.03366
           Y            0.01808   0.99982   0.00514
           Z           -0.03375  -0.00453   0.99942
 This molecule is an asymmetric top.
 Rotational symmetry number  1.
 Warning -- assumption of classical behavior for rotation
           may cause significant error
 Rotational temperatures (Kelvin)      0.03925     0.02793     0.02564
 Rotational constants (GHZ):           0.81782     0.58190     0.53416
 Zero-point vibrational energy     677511.6 (Joules/Mol)
                                  161.92915 (Kcal/Mol)
 Warning -- explicit consideration of  19 degrees of freedom as
           vibrations may cause significant error
 Vibrational temperatures:      8.11    87.19   101.58   112.76   148.13
          (Kelvin)            209.69   229.77   246.00   364.46   377.46
                              408.09   446.22   458.97   513.59   553.86
                              710.21   716.67   764.54   879.66   903.19
                              989.43  1028.47  1075.69  1130.22  1150.22
                             1165.86  1186.87  1203.33  1239.66  1288.71
                             1320.87  1390.10  1469.38  1478.23  1517.21
                             1528.39  1539.63  1550.58  1572.60  1585.74
                             1609.64  1653.64  1657.50  1661.80  1680.93
                             1700.00  1713.75  1745.41  1753.45  1782.98
                             1796.53  1817.56  1903.57  1951.24  2011.49
                             2023.14  2048.45  2081.85  2128.74  2142.01
                             2145.13  2181.32  2187.80  2201.86  2209.81
                             2222.51  2242.15  2339.43  4353.66  4410.96
                             4501.10  4507.59  4515.62  4521.05  4523.26
                             4538.51  4540.58  4549.75  4631.32  4635.21
                             4670.86  4678.13  4725.02  5424.20

 Zero-point correction=                           0.258051 (Hartree/Particle)
 Thermal correction to Energy=                    0.272080
 Thermal correction to Enthalpy=                  0.273024
 Thermal correction to Gibbs Free Energy=         0.215005
 Sum of electronic and zero-point Energies=           -613.245170
 Sum of electronic and thermal Energies=              -613.231140
 Sum of electronic and thermal Enthalpies=            -613.230196
 Sum of electronic and thermal Free Energies=         -613.288215

                     E (Thermal)             CV                S
                      KCal/Mol        Cal/Mol-Kelvin    Cal/Mol-Kelvin
 Total                  170.733             52.622            122.111
 Electronic               0.000              0.000              0.000
 Translational            0.889              2.981             41.664
 Rotational               0.889              2.981             31.514
 Vibrational            168.955             46.660             48.932
 Vibration     1          0.593              1.987              9.149
 Vibration     2          0.597              1.973              4.438
 Vibration     3          0.598              1.968              4.136
 Vibration     4          0.600              1.964              3.931
 Vibration     5          0.605              1.947              3.398
 Vibration     6          0.617              1.907              2.727
 Vibration     7          0.622              1.892              2.553
 Vibration     8          0.626              1.878              2.425
 Vibration     9          0.664              1.757              1.707
 Vibration    10          0.670              1.742              1.646
 Vibration    11          0.682              1.704              1.512
 Vibration    12          0.699              1.654              1.362
 Vibration    13          0.705              1.637              1.315
 Vibration    14          0.732              1.561              1.135
 Vibration    15          0.754              1.502              1.020
 Vibration    16          0.849              1.264              0.674
 Vibration    17          0.854              1.254              0.663
 Vibration    18          0.886              1.181              0.584
 Vibration    19          0.971              1.008              0.430

 Normal termination of Gaussian 16 at Thu Dec 17 20:45:01 2020.

 ----------------------------------------------------------------------
 # B3LYP/6-311++G(d,p) empiricaldispersion=gd3bj scf=xqc pop=npa geom=c
 heck
 ----------------------------------------------------------------------

 ---------------------------------------
 CID_133666409_JID_4884_Energie_neutraal
 ---------------------------------------
 Structure from the checkpoint file:  "JID_4884.chk"
 Charge =  0 Multiplicity = 1

 SCF Done:  E(RB3LYP) =  -613.677119315     A.U. after   14 cycles
 Normal termination of Gaussian 16 at Thu Dec 17 20:48:23 2020.

 ----------------------------------------------------------------------
 # B3LYP/6-311++G(d,p) empiricaldispersion=gd3bj scf=xqc pop=npa geom=c
 heck
 ----------------------------------------------------------------------

 -------------------------------------
 CID_133666409_JID_4884_Energie_kation
 -------------------------------------
 Structure from the checkpoint file:  "JID_4884.chk"
 Charge =  1 Multiplicity = 2

 SCF Done:  E(UB3LYP) =  -613.392919609     A.U. after   21 cycles
 Normal termination of Gaussian 16 at Thu Dec 17 20:55:04 2020.
 Gaussian 16:  ES64L-G16RevA.03 25-Dec-2016

 ----------------------------------------------------------------------
 # B3LYP/6-311++G(d,p) empiricaldispersion=gd3bj scf=xqc pop=npa geom=c
 heck
 ----------------------------------------------------------------------

 ------------------------------------
 CID_133666409_JID_4884_Energie_anion
 ------------------------------------
 Structure from the checkpoint file:  "JID_4884.chk"
 Charge = -1 Multiplicity = 2

                         Standard orientation:
 ---------------------------------------------------------------------
 Center     Atomic      Atomic             Coordinates (Angstroms)
 Number     Number       Type             X           Y           Z
 ---------------------------------------------------------------------
      1          6           0        1.211041   -0.819204    2.486737
      2          7           0        1.303908   -0.324925    1.123190
      3          6           0        2.493598   -0.088545    0.437971
      4          6           0        2.100144    0.345489   -0.807184
      5          7           0        0.743512    0.379503   -0.907164
      6          6           0        0.276734   -0.026914    0.270546
      7          6           0       -1.168678   -0.184533    0.645517
      8          6           0       -1.987083    1.101931    0.515995
      9          6           0       -1.386158    2.471139    0.710454
     10          6           0       -1.869313    2.040571   -0.654813
     11          6           0       -1.855902   -1.334181   -0.098024
     12          6           0       -1.649990   -1.581934   -1.567508
     13          6           0       -1.104894   -2.560731   -0.553467
     14          8           0        2.842634    0.720984   -1.884022
     15          1           0        0.697043   -0.100068    3.131765
     16          1           0        2.221445   -0.970038    2.870457
     17          1           0        0.678205   -1.774227    2.520851
     18          1           0        3.457655   -0.246116    0.896266
     19          1           0       -1.185882   -0.451537    1.711285
     20          1           0       -2.994156    0.972556    0.910812
     21          1           0       -1.957917    3.210817    1.264424
     22          1           0       -0.310652    2.537445    0.851409
     23          1           0       -1.108942    1.818935   -1.395151
     24          1           0       -2.783990    2.480982   -1.042351
     25          1           0       -2.864831   -1.509824    0.273216
     26          1           0       -2.513156   -1.876536   -2.157892
     27          1           0       -0.931864   -0.951591   -2.080967
     28          1           0       -0.026819   -2.578557   -0.414817
     29          1           0       -1.585447   -3.529363   -0.445674
     30          1           0        3.779306    0.638667   -1.650987
 ---------------------------------------------------------------------

 SCF Done:  E(UB3LYP) =  -613.667551244     A.U. after   30 cycles

 The electronic state is 2-A.
 Alpha  occ. eigenvalues --  -19.04620 -14.26765 -14.18717 -10.13768 -10.12504
 Alpha  occ. eigenvalues --  -10.11039 -10.09321 -10.08510 -10.08250 -10.08226
 Alpha  occ. eigenvalues --  -10.07190 -10.07131 -10.06707 -10.06598  -0.96215
 Alpha  occ. eigenvalues --   -0.91170  -0.78581  -0.77135  -0.75312  -0.67056
 Alpha  occ. eigenvalues --   -0.62923  -0.59764  -0.51424  -0.50438  -0.49881
 Alpha  occ. eigenvalues --   -0.49102  -0.48628  -0.46116  -0.41646  -0.40600
 Alpha  occ. eigenvalues --   -0.39329  -0.38768  -0.37240  -0.36493  -0.35352
 Alpha  occ. eigenvalues --   -0.34570  -0.31454  -0.31347  -0.30752  -0.27824
 Alpha  occ. eigenvalues --   -0.27084  -0.26873  -0.26580  -0.26408  -0.24809
 Alpha  occ. eigenvalues --   -0.20990  -0.19703  -0.18473  -0.18017  -0.17481
 Alpha  occ. eigenvalues --   -0.16441  -0.10439   0.04085
 Alpha virt. eigenvalues --    0.05941   0.06907   0.07251   0.08532   0.09006
 Alpha virt. eigenvalues --    0.09459   0.09705   0.10917   0.11125   0.11698
 Alpha virt. eigenvalues --    0.11989   0.12557   0.12841   0.13675   0.14539

  Beta  occ. eigenvalues --  -19.04583 -14.26761 -14.18712 -10.13768 -10.12502
  Beta  occ. eigenvalues --  -10.10979 -10.09314 -10.08474 -10.08243 -10.08219
  Beta  occ. eigenvalues --  -10.07180 -10.07123 -10.06705 -10.06597  -0.96145
  Beta  occ. eigenvalues --   -0.91150  -0.78562  -0.77121  -0.75302  -0.67033
  Beta  occ. eigenvalues --   -0.62864  -0.59719  -0.51365  -0.50404  -0.49866
  Beta  occ. eigenvalues --   -0.49075  -0.48607  -0.46061  -0.41613  -0.40585
  Beta  occ. eigenvalues --   -0.39290  -0.38711  -0.37211  -0.36459  -0.35328
  Beta  occ. eigenvalues --   -0.34511  -0.31422  -0.31302  -0.30710  -0.27783
  Beta  occ. eigenvalues --   -0.27068  -0.26860  -0.26560  -0.26396  -0.24779
  Beta  occ. eigenvalues --   -0.20979  -0.19693  -0.18459  -0.18006  -0.17468
  Beta  occ. eigenvalues --   -0.16423  -0.10414
  Beta virt. eigenvalues --    0.06333   0.07322   0.07486   0.07934   0.09087
  Beta virt. eigenvalues --    0.09271   0.09653   0.10556   0.10888   0.11171
  Beta virt. eigenvalues --    0.12092   0.12734   0.12945   0.13230   0.13805

 Mulliken charges and spin densities:
               1          2
     1  C    1.364779  -1.663753
     2  N   -0.141930   0.385995
     3  C   -0.195425   0.416876
     4  C    1.203550  -1.157329
     5  N   -0.235255   0.113028
     6  C   -0.012667  -0.929978
     7  C    0.549428  -0.477825
     8  C   -0.040600   0.026451
     9  C   -0.045302  -0.291253
    10  C   -0.446032  -0.123456
    11  C   -0.081865   0.020588
    12  C   -0.450799  -0.106138
    13  C    0.053599  -0.400475
    14  O   -0.272615   0.020649
    15  H   -0.401678   0.590421
    16  H   -0.491794   0.653938
    17  H   -0.403737   0.590901
    18  H   -1.248128   1.439078
    19  H   -0.018327   0.181796
    20  H   -0.102180   0.329224
    21  H   -0.069567   0.214652
    22  H    0.193916  -0.018112
    23  H    0.163372   0.016999
    24  H    0.122208   0.014655
    25  H   -0.114337   0.338854
    26  H    0.114970   0.025554
    27  H    0.150047   0.018044
    28  H    0.214152  -0.034515
    29  H   -0.124518   0.279688
    30  H   -0.233262   0.525444
 Sum of Mulliken charges =  -1.00000   1.00000

 Dipole moment (field-independent basis, Debye):
    X=             -6.3445    Y=              1.1773    Z=             -3.3950  Tot=              7.2914
 Quadrupole moment (field-independent basis, Debye-Ang):
   XX=           -149.8294   YY=           -119.7236   ZZ=           -135.3956
   XY=              0.3131   XZ=             -1.8837   YZ=              7.4037

 Summary of Natural Population Analysis:

                                       Natural Population
                Natural  -----------------------------------------------
    Atom  No    Charge         Core      Valence    Rydberg      Total
 -----------------------------------------------------------------------
      C    1   -0.17523      0.99963     2.16728    0.00833     3.17523
      N    2   -0.20257      0.99962     2.69176    0.01119     3.70257
      C    3   -0.08019      0.99948     2.06784    0.01286     3.08019
      C    4    0.21747      0.99941     1.76563    0.01749     2.78253
      N    5   -0.28125      0.99965     2.77261    0.00899     3.78125
      C    6    0.20206      0.99959     1.77884    0.01951     2.79794
      C    7   -0.13334      0.99952     2.12013    0.01368     3.13334
      C    8   -0.10482      0.99958     2.09347    0.01177     3.10482
      C    9   -0.20061      0.99962     2.19393    0.00706     3.20061
      C   10   -0.20245      0.99961     2.19641    0.00643     3.20245
      C   11   -0.10519      0.99958     2.09392    0.01169     3.10519
      C   12   -0.20229      0.99961     2.19438    0.00831     3.20229
      C   13   -0.20100      0.99962     2.19426    0.00711     3.20100
      O   14   -0.33971      0.99987     3.33306    0.00678     4.33971
      H   15    0.10155      0.00000     0.39661    0.00185     0.39845
      H   16    0.10816      0.00000     0.38936    0.00248     0.39184
      H   17    0.10193      0.00000     0.39615    0.00192     0.39807
      H   18    0.10833      0.00000     0.38771    0.00396     0.39167
      H   19    0.10927      0.00000     0.38822    0.00251     0.39073
      H   20    0.10119      0.00000     0.39772    0.00109     0.39881
      H   21    0.09856      0.00000     0.40066    0.00078     0.40144
      H   22    0.10624      0.00000     0.39285    0.00091     0.39376
      H   23    0.11952      0.00000     0.37929    0.00119     0.38048
      H   24    0.09545      0.00000     0.40375    0.00081     0.40455
      H   25    0.10155      0.00000     0.39730    0.00114     0.39845
      H   26    0.09645      0.00000     0.40284    0.00070     0.40355
      H   27    0.11781      0.00000     0.38104    0.00114     0.38219
      H   28    0.10570      0.00000     0.39331    0.00099     0.39430
      H   29    0.09967      0.00000     0.39950    0.00083     0.40033
      H   30    0.23772      0.00000     0.25710    0.00518     0.26228
 =======================================================================
   * Total *   -0.00000     13.99438    37.82692    0.17870    52.00000

 Normal termination of Gaussian 16 at Thu Dec 17 21:04:35 2020.
