 Gaussian 16, Revision A.03,

 -----------------------------------------------------------
 # opt freq B3LYP/6-31G(d) empiricaldispersion=gd3bj scf=xqc
 -----------------------------------------------------------

 ------------------------------
 CID_84140407_JID_7272_neutraal
 ------------------------------
 Symbolic Z-matrix:
 Charge =  0 Multiplicity = 1

 SCF Done:  E(RB3LYP) =  -714.286912528     A.U. after   13 cycles
 SCF Done:  E(RB3LYP) =  -714.292659933     A.U. after   12 cycles
 SCF Done:  E(RB3LYP) =  -714.293036735     A.U. after   12 cycles
 SCF Done:  E(RB3LYP) =  -714.293098050     A.U. after   10 cycles
 SCF Done:  E(RB3LYP) =  -714.293129556     A.U. after   10 cycles
 SCF Done:  E(RB3LYP) =  -714.293134600     A.U. after    9 cycles
 SCF Done:  E(RB3LYP) =  -714.293136731     A.U. after    8 cycles
 SCF Done:  E(RB3LYP) =  -714.293136918     A.U. after    7 cycles
 SCF Done:  E(RB3LYP) =  -714.293137006     A.U. after    7 cycles
 SCF Done:  E(RB3LYP) =  -714.293137040     A.U. after    6 cycles
 Optimization completed.
    -- Stationary point found.
 Normal termination of Gaussian 16 at Sun Dec 13 16:03:33 2020.

 --------------------------------------------------------------------
 #N Geom=AllCheck Guess=TCheck SCRF=Check GenChk RB3LYP/6-31G(d) Freq
 --------------------------------------------------------------------

 Structure from the checkpoint file:  "JID_7272.chk"
 ------------------------------
 CID_84140407_JID_7272_neutraal
 ------------------------------
 Charge =  0 Multiplicity = 1

 SCF Done:  E(RB3LYP) =  -714.293137040     A.U. after    1 cycles

  Exact polarizability: 213.288  -3.888 160.029  -4.417   6.344 111.802
 Approx polarizability: 277.536  -1.655 252.115  -9.130  13.759 174.162

                      1                      2                      3
                      A                      A                      A
 Frequencies --     25.9743                62.5111                64.4527
 Red. masses --      3.5886                 3.5830                 4.2654
 Frc consts  --      0.0014                 0.0082                 0.0104
 IR Inten    --      0.1112                 0.6224                 0.7294

                      4                      5                      6
                      A                      A                      A
 Frequencies --    134.3106               145.4436               171.7034
 Red. masses --      3.5482                 2.7832                 2.5728
 Frc consts  --      0.0377                 0.0347                 0.0447
 IR Inten    --      0.4905                 0.0744                 0.1196

                      7                      8                      9
                      A                      A                      A
 Frequencies --    189.5621               238.3983               258.6130
 Red. masses --      2.7716                 2.2931                 2.5642
 Frc consts  --      0.0587                 0.0768                 0.1010
 IR Inten    --      0.2494                 1.2368                 3.7201

                     10                     11                     12
                      A                      A                      A
 Frequencies --    267.2253               287.1264               316.6883
 Red. masses --      1.1228                 1.9654                 3.1647
 Frc consts  --      0.0472                 0.0955                 0.1870
 IR Inten    --      0.3086                 0.3380                 1.4261

                     13                     14                     15
                      A                      A                      A
 Frequencies --    343.4960               371.8462               385.2934
 Red. masses --      3.6254                 1.9317                 2.8896
 Frc consts  --      0.2520                 0.1574                 0.2527
 IR Inten    --      0.3620                 7.6584                 1.2629

                     16                     17                     18
                      A                      A                      A
 Frequencies --    435.6296               447.4978               463.7683
 Red. masses --      2.5813                 3.1871                 2.8443
 Frc consts  --      0.2886                 0.3760                 0.3604
 IR Inten    --      2.7638                 2.7991                 0.1368

                     19                     20                     21
                      A                      A                      A
 Frequencies --    473.6762               504.5789               533.6783
 Red. masses --      3.1951                 3.8108                 3.9069
 Frc consts  --      0.4224                 0.5716                 0.6556
 IR Inten    --      3.1833                 5.0518                 2.0182

                     22                     23                     24
                      A                      A                      A
 Frequencies --    578.4693               603.9528               616.3477
 Red. masses --      2.7513                 2.1666                 2.9721
 Frc consts  --      0.5424                 0.4656                 0.6652
 IR Inten    --      3.4977                 0.3842                 5.1423

                     25                     26                     27
                      A                      A                      A
 Frequencies --    639.5474               708.9938               737.1279
 Red. masses --      2.5870                 4.2360                 2.6637
 Frc consts  --      0.6234                 1.2545                 0.8528
 IR Inten    --      0.6556                 1.5855                 3.1897

                     28                     29                     30
                      A                      A                      A
 Frequencies --    771.9069               783.0023               800.8732
 Red. masses --      3.4639                 2.8837                 1.6096
 Frc consts  --      1.2160                 1.0417                 0.6083
 IR Inten    --      8.8067                 9.2669                 2.0801

                     31                     32                     33
                      A                      A                      A
 Frequencies --    817.3048               845.2248               860.6744
 Red. masses --      2.3507                 1.6812                 1.9822
 Frc consts  --      0.9251                 0.7076                 0.8651
 IR Inten    --    129.4035                 9.0689                12.2659

                     34                     35                     36
                      A                      A                      A
 Frequencies --    876.3428               892.6507               904.0904
 Red. masses --      2.5703                 1.9113                 1.7054
 Frc consts  --      1.1630                 0.8973                 0.8213
 IR Inten    --      0.9014                 6.0264                 9.4647

                     37                     38                     39
                      A                      A                      A
 Frequencies --    909.9199               920.3809               925.3380
 Red. masses --      1.5512                 1.7360                 2.1970
 Frc consts  --      0.7567                 0.8665                 1.1084
 IR Inten    --      2.5005                43.6841                 1.1528

                     40                     41                     42
                      A                      A                      A
 Frequencies --    952.3568               974.5120               984.0361
 Red. masses --      1.3255                 2.6732                 1.6009
 Frc consts  --      0.7083                 1.4957                 0.9134
 IR Inten    --      0.5459                23.3990                 4.8073

                     43                     44                     45
                      A                      A                      A
 Frequencies --    996.5180              1018.7327              1021.7927
 Red. masses --      2.3339                 2.1939                 2.2316
 Frc consts  --      1.3655                 1.3415                 1.3727
 IR Inten    --     59.5297                 2.0748                16.9217

                     46                     47                     48
                      A                      A                      A
 Frequencies --   1030.5226              1051.4260              1074.3029
 Red. masses --      1.5914                 1.6157                 1.6864
 Frc consts  --      0.9957                 1.0524                 1.1467
 IR Inten    --      6.4301                26.1141                 3.0782

                     49                     50                     51
                      A                      A                      A
 Frequencies --   1112.3594              1131.2278              1157.6890
 Red. masses --      2.4578                 2.4091                 1.2642
 Frc consts  --      1.7918                 1.8164                 0.9983
 IR Inten    --     11.2488                 6.0611                10.6528

                     52                     53                     54
                      A                      A                      A
 Frequencies --   1172.2059              1175.2614              1186.1357
 Red. masses --      1.4666                 2.4543                 1.4162
 Frc consts  --      1.1874                 1.9973                 1.1740
 IR Inten    --     25.7440                 4.3279                 7.5898

                     55                     56                     57
                      A                      A                      A
 Frequencies --   1196.9212              1207.6858              1223.0620
 Red. masses --      1.5023                 2.1040                 1.8258
 Frc consts  --      1.2680                 1.8080                 1.6092
 IR Inten    --     47.9925                46.4701                 9.7109

                     58                     59                     60
                      A                      A                      A
 Frequencies --   1239.4688              1250.9717              1285.7402
 Red. masses --      1.7322                 1.3421                 2.5646
 Frc consts  --      1.5679                 1.2375                 2.4979
 IR Inten    --     18.2514                27.0956                81.6245

                     61                     62                     63
                      A                      A                      A
 Frequencies --   1298.3107              1306.7932              1314.9471
 Red. masses --      1.4339                 1.6671                 1.8568
 Frc consts  --      1.4240                 1.6773                 1.8916
 IR Inten    --     69.3285                 3.5881                 6.9491

                     64                     65                     66
                      A                      A                      A
 Frequencies --   1316.5286              1334.0675              1358.8526
 Red. masses --      2.0206                 1.3996                 1.3735
 Frc consts  --      2.0635                 1.4676                 1.4942
 IR Inten    --      1.4291                 3.8327                 0.8964

                     67                     68                     69
                      A                      A                      A
 Frequencies --   1362.1132              1369.3504              1376.4910
 Red. masses --      1.4137                 3.0819                 1.4628
 Frc consts  --      1.5454                 3.4048                 1.6330
 IR Inten    --      5.9750                 9.2443                 1.4634

                     70                     71                     72
                      A                      A                      A
 Frequencies --   1383.2387              1412.0798              1421.9121
 Red. masses --      1.3057                 1.4408                 1.3911
 Frc consts  --      1.4720                 1.6927                 1.6571
 IR Inten    --      6.7791                 6.7273                 0.3821

                     73                     74                     75
                      A                      A                      A
 Frequencies --   1436.5121              1470.5550              1492.7375
 Red. masses --      1.2504                 4.1287                 1.0991
 Frc consts  --      1.5203                 5.2604                 1.4429
 IR Inten    --     12.1271                10.0945                 4.6553

                     76                     77                     78
                      A                      A                      A
 Frequencies --   1508.3738              1510.4552              1510.8397
 Red. masses --      1.0829                 1.1522                 1.1283
 Frc consts  --      1.4517                 1.5488                 1.5175
 IR Inten    --      1.9789                 4.6574                12.9530

                     79                     80                     81
                      A                      A                      A
 Frequencies --   1513.3239              1514.4264              1521.4507
 Red. masses --      1.1049                 1.1306                 1.1026
 Frc consts  --      1.4909                 1.5278                 1.5038
 IR Inten    --      2.2249                 5.5922                 6.9831

                     82                     83                     84
                      A                      A                      A
 Frequencies --   1522.8543              1526.3512              1533.3240
 Red. masses --      1.0708                 1.0753                 1.1346
 Frc consts  --      1.4631                 1.4761                 1.5717
 IR Inten    --      1.3956                 2.3760                 3.1134

                     85                     86                     87
                      A                      A                      A
 Frequencies --   1538.8342              1636.7085              1668.3432
 Red. masses --      2.2208                 7.0154                 6.7118
 Frc consts  --      3.0984                11.0725                11.0068
 IR Inten    --     97.8270                13.0843                32.9958

                     88                     89                     90
                      A                      A                      A
 Frequencies --   3022.4295              3024.3617              3033.3967
 Red. masses --      1.0705                 1.0700                 1.0641
 Frc consts  --      5.7618                 5.7662                 5.7687
 IR Inten    --     40.4102                30.4825                10.1722

                     91                     92                     93
                      A                      A                      A
 Frequencies --   3038.9363              3056.0915              3058.1472
 Red. masses --      1.0619                 1.0594                 1.0379
 Frc consts  --      5.7779                 5.8294                 5.7189
 IR Inten    --     30.4014                42.7002                25.2173

                     94                     95                     96
                      A                      A                      A
 Frequencies --   3061.4485              3061.5140              3083.6022
 Red. masses --      1.0649                 1.0637                 1.0962
 Frc consts  --      5.8802                 5.8741                 6.1411
 IR Inten    --     29.6714                24.6206                40.3757

                     97                     98                     99
                      A                      A                      A
 Frequencies --   3085.8639              3086.5091              3089.9149
 Red. masses --      1.0992                 1.0931                 1.0891
 Frc consts  --      6.1669                 6.1354                 6.1266
 IR Inten    --     24.5340                33.9515                47.0160

                    100                    101                    102
                      A                      A                      A
 Frequencies --   3099.4358              3107.3542              3116.3974
 Red. masses --      1.1063                 1.1060                 1.1040
 Frc consts  --      6.2616                 6.2922                 6.3170
 IR Inten    --     42.1749                42.3724                48.3525

                    103                    104                    105
                      A                      A                      A
 Frequencies --   3126.9470              3134.9806              3182.7670
 Red. masses --      1.1023                 1.1022                 1.0891
 Frc consts  --      6.3502                 6.3825                 6.5003
 IR Inten    --     40.2038                26.4793                18.4792

                    106                    107                    108
                      A                      A                      A
 Frequencies --   3215.1480              3216.6590              3455.9363
 Red. masses --      1.0906                 1.0928                 1.0734
 Frc consts  --      6.6420                 6.6619                 7.5532
 IR Inten    --     10.5705                11.5143                 5.0105

 - Thermochemistry -
 -------------------
 Temperature   298.150 Kelvin.  Pressure   1.00000 Atm.
 Atom     1 has atomic number  6 and mass  12.00000

 Molecular mass:   231.16231 amu.
 Principal axes and moments of inertia in atomic units:
                           1         2         3
     Eigenvalues --  1663.632077089.767468011.69849
           X            0.99997  -0.00824   0.00138
           Y            0.00825   0.99995  -0.00593
           Z           -0.00133   0.00594   0.99998
 This molecule is an asymmetric top.
 Rotational symmetry number  1.
 Warning -- assumption of classical behavior for rotation
           may cause significant error
 Rotational temperatures (Kelvin)      0.05206     0.01222     0.01081
 Rotational constants (GHZ):           1.08482     0.25456     0.22526
 Zero-point vibrational energy     886876.5 (Joules/Mol)
                                  211.96856 (Kcal/Mol)
 Warning -- explicit consideration of  24 degrees of freedom as
           vibrations may cause significant error
 Vibrational temperatures:     37.37    89.94    92.73   193.24   209.26
          (Kelvin)            247.04   272.74   343.00   372.09   384.48
                              413.11   455.64   494.21   535.00   554.35
                              626.77   643.85   667.26   681.51   725.98
                              767.84   832.29   868.95   886.79   920.17
                             1020.08  1060.56  1110.60  1126.57  1152.28
                             1175.92  1216.09  1238.32  1260.86  1284.33
                             1300.78  1309.17  1324.22  1331.36  1370.23
                             1402.11  1415.81  1433.77  1465.73  1470.13
                             1482.69  1512.77  1545.68  1600.44  1627.58
                             1665.66  1686.54  1690.94  1706.58  1722.10
                             1737.59  1759.71  1783.32  1799.87  1849.89
                             1867.98  1880.18  1891.92  1894.19  1919.43
                             1955.09  1959.78  1970.19  1980.46  1990.17
                             2031.67  2045.81  2066.82  2115.80  2147.72
                             2170.21  2173.21  2173.76  2177.34  2178.92
                             2189.03  2191.05  2196.08  2206.11  2214.04
                             2354.86  2400.37  4348.60  4351.38  4364.38
                             4372.35  4397.03  4399.99  4404.74  4404.84
                             4436.62  4439.87  4440.80  4445.70  4459.40
                             4470.79  4483.80  4498.98  4510.54  4579.29
                             4625.88  4628.05  4972.32

 Zero-point correction=                           0.337793 (Hartree/Particle)
 Thermal correction to Energy=                    0.352702
 Thermal correction to Enthalpy=                  0.353646
 Thermal correction to Gibbs Free Energy=         0.295763
 Sum of electronic and zero-point Energies=           -713.955344
 Sum of electronic and thermal Energies=              -713.940435
 Sum of electronic and thermal Enthalpies=            -713.939491
 Sum of electronic and thermal Free Energies=         -713.997374

                     E (Thermal)             CV                S
                      KCal/Mol        Cal/Mol-Kelvin    Cal/Mol-Kelvin
 Total                  221.324             61.207            121.825
 Electronic               0.000              0.000              0.000
 Translational            0.889              2.981             42.216
 Rotational               0.889              2.981             32.913
 Vibrational            219.546             55.246             46.696
 Vibration     1          0.593              1.985              6.115
 Vibration     2          0.597              1.972              4.376
 Vibration     3          0.597              1.971              4.316
 Vibration     4          0.613              1.919              2.883
 Vibration     5          0.617              1.908              2.731
 Vibration     6          0.626              1.877              2.417
 Vibration     7          0.633              1.854              2.232
 Vibration     8          0.656              1.782              1.815
 Vibration     9          0.667              1.748              1.671
 Vibration    10          0.672              1.733              1.614
 Vibration    11          0.684              1.698              1.491
 Vibration    12          0.704              1.642              1.327
 Vibration    13          0.722              1.588              1.196
 Vibration    14          0.744              1.530              1.072
 Vibration    15          0.754              1.502              1.018
 Vibration    16          0.796              1.393              0.840
 Vibration    17          0.807              1.366              0.803
 Vibration    18          0.821              1.330              0.755
 Vibration    19          0.830              1.308              0.727
 Vibration    20          0.860              1.240              0.647
 Vibration    21          0.889              1.176              0.579
 Vibration    22          0.935              1.078              0.488
 Vibration    23          0.962              1.023              0.443
 Vibration    24          0.976              0.997              0.422

 Optimization completed.
    -- Stationary point found.
 Normal termination of Gaussian 16 at Sun Dec 13 16:18:39 2020.

 ----------------------------------------------------------------------
 # B3LYP/6-311++G(d,p) empiricaldispersion=gd3bj scf=xqc pop=npa geom=c
 heck
 ----------------------------------------------------------------------

 --------------------------------------
 CID_84140407_JID_7272_Energie_neutraal
 --------------------------------------
 Structure from the checkpoint file:  "JID_7272.chk"
 Charge =  0 Multiplicity = 1

 SCF Done:  E(RB3LYP) =  -714.482118292     A.U. after   15 cycles
 Normal termination of Gaussian 16 at Sun Dec 13 16:26:31 2020.

 ----------------------------------------------------------------------
 # B3LYP/6-311++G(d,p) empiricaldispersion=gd3bj scf=xqc pop=npa geom=c
 heck
 ----------------------------------------------------------------------

 ------------------------------------
 CID_84140407_JID_7272_Energie_kation
 ------------------------------------
 Structure from the checkpoint file:  "JID_7272.chk"
 Charge =  1 Multiplicity = 2

 SCF Done:  E(UB3LYP) =  -714.202539590     A.U. after   21 cycles
 Normal termination of Gaussian 16 at Sun Dec 13 16:42:10 2020.
 Gaussian 16:  ES64L-G16RevA.03 25-Dec-2016

 ----------------------------------------------------------------------
 # B3LYP/6-311++G(d,p) empiricaldispersion=gd3bj scf=xqc pop=npa geom=c
 heck
 ----------------------------------------------------------------------

 -----------------------------------
 CID_84140407_JID_7272_Energie_anion
 -----------------------------------
 Structure from the checkpoint file:  "JID_7272.chk"
 Charge = -1 Multiplicity = 2

                         Standard orientation:
 ---------------------------------------------------------------------
 Center     Atomic      Atomic             Coordinates (Angstroms)
 Number     Number       Type             X           Y           Z
 ---------------------------------------------------------------------
      1          6           0        1.708580   -1.844166    1.319897
      2          6           0        2.049461   -0.667639    0.407919
      3          6           0        3.404092   -0.878655   -0.283911
      4          6           0        3.827379    0.350730   -1.102417
      5          7           0        3.844529    1.596629   -0.329865
      6          6           0        2.554916    1.831314    0.324448
      7          6           0        2.068676    0.657605    1.190183
      8          8           0        1.109299   -0.584924   -0.708137
      9          6           0       -0.244451   -0.569319   -0.447876
     10          6           0       -0.915851    0.640007   -0.227402
     11          6           0       -2.295411    0.623729   -0.044831
     12          6           0       -3.011382   -0.579950   -0.081722
     13          6           0       -4.483764   -0.327473    0.160298
     14          6           0       -4.622521    1.192253   -0.105862
     15          6           0       -3.229262    1.784919    0.220772
     16          6           0       -2.344534   -1.780307   -0.313637
     17          6           0       -0.961092   -1.771382   -0.500638
     18          1           0        1.695940   -2.780890    0.752728
     19          1           0        2.460671   -1.931622    2.110935
     20          1           0        0.730459   -1.712997    1.792306
     21          1           0        4.158467   -1.081836    0.488614
     22          1           0        3.339567   -1.767746   -0.922750
     23          1           0        3.127220    0.485199   -1.934245
     24          1           0        4.822152    0.195416   -1.534992
     25          1           0        4.567568    1.527809    0.387324
     26          1           0        1.823117    2.029123   -0.467360
     27          1           0        2.630214    2.742191    0.929179
     28          1           0        1.073054    0.859574    1.603060
     29          1           0        2.745436    0.536001    2.047416
     30          1           0       -0.359306    1.571206   -0.228342
     31          1           0       -4.747324   -0.566615    1.201237
     32          1           0       -5.138328   -0.931059   -0.478196
     33          1           0       -4.839288    1.351703   -1.168508
     34          1           0       -5.429499    1.655443    0.469666
     35          1           0       -2.994393    2.674040   -0.374682
     36          1           0       -3.170301    2.085392    1.277287
     37          1           0       -2.891386   -2.718829   -0.361811
     38          1           0       -0.419162   -2.688508   -0.706034
 ---------------------------------------------------------------------

 SCF Done:  E(UB3LYP) =  -714.468017818     A.U. after   33 cycles
 SCF Done:  E(UB3LYP) =  -714.468017817     a.u. after    1 cycles

 The electronic state is 2-A.
 Alpha  occ. eigenvalues --  -19.03168 -14.19570 -10.13586 -10.12763 -10.09019
 Alpha  occ. eigenvalues --  -10.09007 -10.08052 -10.07963 -10.07927 -10.07850
 Alpha  occ. eigenvalues --  -10.07832 -10.07693 -10.07413 -10.07292 -10.06650
 Alpha  occ. eigenvalues --  -10.06356 -10.06319  -0.94816  -0.81079  -0.77621
 Alpha  occ. eigenvalues --   -0.72113  -0.69653  -0.66171  -0.65381  -0.61856
 Alpha  occ. eigenvalues --   -0.60460  -0.59776  -0.53303  -0.52682  -0.51249
 Alpha  occ. eigenvalues --   -0.49230  -0.48872  -0.44955  -0.41317  -0.40000
 Alpha  occ. eigenvalues --   -0.38770  -0.37762  -0.36706  -0.36110  -0.35033
 Alpha  occ. eigenvalues --   -0.34836  -0.34094  -0.32347  -0.31926  -0.31317
 Alpha  occ. eigenvalues --   -0.30879  -0.29123  -0.28822  -0.27512  -0.27155
 Alpha  occ. eigenvalues --   -0.26921  -0.26355  -0.25882  -0.25245  -0.24972
 Alpha  occ. eigenvalues --   -0.24592  -0.23742  -0.23060  -0.21317  -0.17445
 Alpha  occ. eigenvalues --   -0.15559  -0.13475  -0.12467   0.04352
 Alpha virt. eigenvalues --    0.05814   0.06924   0.07084   0.07803   0.08056
 Alpha virt. eigenvalues --    0.08162   0.08849   0.09162   0.09546   0.09938
 Alpha virt. eigenvalues --    0.10466   0.10685   0.10920   0.11050   0.11784

  Beta  occ. eigenvalues --  -19.03161 -14.19549 -10.13580 -10.12749 -10.09012
  Beta  occ. eigenvalues --  -10.08999 -10.08049 -10.07946 -10.07911 -10.07815
  Beta  occ. eigenvalues --  -10.07813 -10.07689 -10.07406 -10.07260 -10.06631
  Beta  occ. eigenvalues --  -10.06330 -10.06303  -0.94799  -0.81040  -0.77583
  Beta  occ. eigenvalues --   -0.72074  -0.69618  -0.66119  -0.65349  -0.61818
  Beta  occ. eigenvalues --   -0.60423  -0.59729  -0.53258  -0.52621  -0.51195
  Beta  occ. eigenvalues --   -0.49186  -0.48819  -0.44917  -0.41276  -0.39966
  Beta  occ. eigenvalues --   -0.38734  -0.37720  -0.36671  -0.36078  -0.35000
  Beta  occ. eigenvalues --   -0.34798  -0.34069  -0.32320  -0.31896  -0.31282
  Beta  occ. eigenvalues --   -0.30834  -0.29091  -0.28762  -0.27484  -0.27124
  Beta  occ. eigenvalues --   -0.26883  -0.26318  -0.25850  -0.25215  -0.24936
  Beta  occ. eigenvalues --   -0.24559  -0.23709  -0.23004  -0.21282  -0.17427
  Beta  occ. eigenvalues --   -0.15385  -0.13390  -0.12425
  Beta virt. eigenvalues --    0.06394   0.06889   0.07205   0.07342   0.08195
  Beta virt. eigenvalues --    0.08402   0.08462   0.09079   0.09474   0.09927
  Beta virt. eigenvalues --    0.10172   0.10611   0.10873   0.11209   0.11345

 Mulliken charges and spin densities:
               1          2
     1  C    0.555538  -0.976483
     2  C   -0.786019   0.937989
     3  C    0.050203  -0.321639
     4  C   -0.065516  -0.418584
     5  N   -0.210428   0.162608
     6  C    0.250228  -0.887068
     7  C    0.043345  -0.479699
     8  O    0.021554  -0.003893
     9  C   -0.554391   0.610749
    10  C   -0.871038   1.024978
    11  C    0.225048  -0.191212
    12  C    1.329056  -1.485282
    13  C    0.649853  -1.204167
    14  C   -0.315374  -0.151006
    15  C   -0.197411  -0.167351
    16  C   -0.699921   0.595695
    17  C    0.331518  -0.198031
    18  H   -0.009279   0.154500
    19  H   -0.154084   0.307972
    20  H    0.076526   0.076900
    21  H   -0.252747   0.417300
    22  H    0.109831   0.029793
    23  H    0.189411  -0.021642
    24  H   -0.114234   0.300808
    25  H    0.008676   0.231356
    26  H    0.078639   0.122137
    27  H   -0.189430   0.360861
    28  H    0.037404   0.122409
    29  H   -0.525039   0.726729
    30  H    0.348255  -0.282194
    31  H   -0.210220   0.384201
    32  H    0.098254   0.036587
    33  H    0.128714   0.007347
    34  H   -0.315731   0.480922
    35  H    0.053838   0.082545
    36  H   -0.161893   0.351025
    37  H   -0.067979   0.225602
    38  H    0.114838   0.037237
 Sum of Mulliken charges =  -1.00000   1.00000

 Dipole moment (field-independent basis, Debye):
    X=             -2.3996    Y=             -1.9990    Z=             -4.7847  Tot=              5.7138
 Quadrupole moment (field-independent basis, Debye-Ang):
   XX=           -208.4089   YY=           -138.5296   ZZ=           -142.2277
   XY=             -0.5499   XZ=              2.2217   YZ=             -1.8024

 Summary of Natural Population Analysis:

                                       Natural Population
                Natural  -----------------------------------------------
    Atom  No    Charge         Core      Valence    Rydberg      Total
 -----------------------------------------------------------------------
      C    1   -0.29936      0.99960     2.29293    0.00682     3.29936
      C    2    0.14413      0.99948     1.84052    0.01586     2.85587
      C    3   -0.20536      0.99956     2.19507    0.01073     3.20536
      C    4   -0.08923      0.99962     2.07754    0.01206     3.08923
      N    5   -0.33581      0.99976     2.82371    0.01233     3.83581
      C    6   -0.08918      0.99962     2.07734    0.01223     3.08918
      C    7   -0.21801      0.99956     2.20757    0.01088     3.21801
      O    8   -0.31075      0.99985     3.30059    0.01031     4.31075
      C    9    0.15818      0.99937     1.82865    0.01380     2.84182
      C   10   -0.11494      0.99945     2.10674    0.00875     3.11494
      C   11   -0.00810      0.99947     1.99942    0.00921     3.00810
      C   12   -0.02155      0.99947     2.01257    0.00951     3.02155
      C   13   -0.19640      0.99961     2.18858    0.00821     3.19640
      C   14   -0.18351      0.99965     2.17578    0.00808     3.18351
      C   15   -0.19715      0.99961     2.18928    0.00826     3.19715
      C   16   -0.09158      0.99951     2.08328    0.00878     3.09158
      C   17   -0.11750      0.99951     2.10914    0.00885     3.11750
      H   18    0.10016      0.00000     0.39885    0.00100     0.39984
      H   19    0.10660      0.00000     0.39230    0.00111     0.39340
      H   20    0.10695      0.00000     0.39188    0.00117     0.39305
      H   21    0.10067      0.00000     0.39735    0.00198     0.39933
      H   22    0.10185      0.00000     0.39703    0.00111     0.39815
      H   23    0.09451      0.00000     0.40423    0.00126     0.40549
      H   24    0.09335      0.00000     0.40583    0.00082     0.40665
      H   25    0.17009      0.00000     0.32697    0.00294     0.32991
      H   26    0.09002      0.00000     0.40834    0.00164     0.40998
      H   27    0.09556      0.00000     0.40353    0.00091     0.40444
      H   28    0.10687      0.00000     0.39178    0.00135     0.39313
      H   29    0.10420      0.00000     0.39308    0.00272     0.39580
      H   30    0.10384      0.00000     0.39455    0.00161     0.39616
      H   31    0.10349      0.00000     0.39466    0.00185     0.39651
      H   32    0.09919      0.00000     0.39988    0.00093     0.40081
      H   33    0.09232      0.00000     0.40657    0.00112     0.40768
      H   34    0.10078      0.00000     0.39767    0.00155     0.39922
      H   35    0.10048      0.00000     0.39859    0.00093     0.39952
      H   36    0.10508      0.00000     0.39330    0.00162     0.39492
      H   37    0.09767      0.00000     0.40115    0.00117     0.40233
      H   38    0.10246      0.00000     0.39627    0.00128     0.39754
 =======================================================================
   * Total *   -0.00000     16.99271    45.80254    0.20474    63.00000

 Normal termination of Gaussian 16 at Sun Dec 13 17:07:39 2020.
