 Gaussian 16, Revision A.03,

 -----------------------------------------------------------
 # opt freq B3LYP/6-31G(d) empiricaldispersion=gd3bj scf=xqc
 -----------------------------------------------------------

 -------------------------------
 CID_144358000_JID_9691_neutraal
 -------------------------------
 Symbolic Z-matrix:
 Charge =  0 Multiplicity = 1

 SCF Done:  E(RB3LYP) =  -807.783250016     A.U. after   15 cycles
 SCF Done:  E(RB3LYP) =  -807.789672127     A.U. after   12 cycles
 SCF Done:  E(RB3LYP) =  -807.790395802     A.U. after   12 cycles
 SCF Done:  E(RB3LYP) =  -807.790639690     A.U. after   11 cycles
 SCF Done:  E(RB3LYP) =  -807.790740463     A.U. after   12 cycles
 SCF Done:  E(RB3LYP) =  -807.790811684     A.U. after   12 cycles
 SCF Done:  E(RB3LYP) =  -807.790980428     A.U. after   11 cycles
 SCF Done:  E(RB3LYP) =  -807.791085576     A.U. after   11 cycles
 SCF Done:  E(RB3LYP) =  -807.791124578     A.U. after   10 cycles
 SCF Done:  E(RB3LYP) =  -807.791202439     A.U. after   10 cycles
 SCF Done:  E(RB3LYP) =  -807.791988065     A.U. after   11 cycles
 SCF Done:  E(RB3LYP) =  -807.791998899     A.U. after    9 cycles
 SCF Done:  E(RB3LYP) =  -807.792017740     A.U. after   10 cycles
 SCF Done:  E(RB3LYP) =  -807.792031486     A.U. after    9 cycles
 SCF Done:  E(RB3LYP) =  -807.792050453     A.U. after   10 cycles
 Optimization completed.
    -- Stationary point found.
 Normal termination of Gaussian 16 at Sat Dec 12 10:20:42 2020.

 --------------------------------------------------------------------
 #N Geom=AllCheck Guess=TCheck SCRF=Check GenChk RB3LYP/6-31G(d) Freq
 --------------------------------------------------------------------

 Structure from the checkpoint file:  "JID_9691.chk"
 -------------------------------
 CID_144358000_JID_9691_neutraal
 -------------------------------
 Charge =  0 Multiplicity = 1

 SCF Done:  E(RB3LYP) =  -807.792050453     A.U. after    1 cycles

  Exact polarizability: 215.267  40.728 208.997 -35.562  23.802 139.367
 Approx polarizability: 300.051  83.231 359.651 -59.314  53.982 225.891

                      1                      2                      3
                      A                      A                      A
 Frequencies --      8.2561                17.1244                30.7845
 Red. masses --      4.1991                 3.7148                 5.0055
 Frc consts  --      0.0002                 0.0006                 0.0028
 IR Inten    --      0.1007                 0.1834                 0.8988

                      4                      5                      6
                      A                      A                      A
 Frequencies --     31.7165                36.4196                61.4195
 Red. masses --      4.7923                 2.4425                 2.5340
 Frc consts  --      0.0028                 0.0019                 0.0056
 IR Inten    --      1.2253                 0.1464                 0.0193

                      7                      8                      9
                      A                      A                      A
 Frequencies --     72.8488                78.5687                94.0681
 Red. masses --      3.2283                 4.7528                 2.4576
 Frc consts  --      0.0101                 0.0173                 0.0128
 IR Inten    --      1.5211                 0.2987                 0.5351

                     10                     11                     12
                      A                      A                      A
 Frequencies --     98.9513               129.3313               131.5346
 Red. masses --      2.3339                 3.6106                 1.5987
 Frc consts  --      0.0135                 0.0356                 0.0163
 IR Inten    --      1.9945                 2.4441                 0.1797

                     13                     14                     15
                      A                      A                      A
 Frequencies --    165.7530               175.7682               227.4965
 Red. masses --      1.0507                 4.1601                 4.0205
 Frc consts  --      0.0170                 0.0757                 0.1226
 IR Inten    --      0.3222                 3.6709                 2.1668

                     16                     17                     18
                      A                      A                      A
 Frequencies --    256.7967               304.3933               318.3323
 Red. masses --      3.4277                 1.0980                 3.1510
 Frc consts  --      0.1332                 0.0599                 0.1881
 IR Inten    --      7.0441                25.8973                 2.0830

                     19                     20                     21
                      A                      A                      A
 Frequencies --    336.0405               337.2460               393.8643
 Red. masses --      1.1410                 2.2639                 2.8604
 Frc consts  --      0.0759                 0.1517                 0.2614
 IR Inten    --      0.4372                 1.3026                 1.8240

                     22                     23                     24
                      A                      A                      A
 Frequencies --    418.5209               427.4702               467.9046
 Red. masses --      3.9589                 3.5413                 2.5037
 Frc consts  --      0.4086                 0.3813                 0.3230
 IR Inten    --      1.7712                 2.4849                 5.9474

                     25                     26                     27
                      A                      A                      A
 Frequencies --    479.8308               491.9546               528.7539
 Red. masses --      2.8222                 3.2861                 4.6935
 Frc consts  --      0.3828                 0.4686                 0.7731
 IR Inten    --     12.9915                 5.1754                 1.2050

                     28                     29                     30
                      A                      A                      A
 Frequencies --    535.3428               541.7002               543.1032
 Red. masses --      4.4665                 2.1866                 2.9781
 Frc consts  --      0.7542                 0.3780                 0.5175
 IR Inten    --      2.4465                20.7792                51.8725

                     31                     32                     33
                      A                      A                      A
 Frequencies --    572.9928               590.6163               615.6586
 Red. masses --      2.8260                 2.1707                 1.8960
 Frc consts  --      0.5467                 0.4461                 0.4234
 IR Inten    --      9.4631               224.0199               189.9286

                     34                     35                     36
                      A                      A                      A
 Frequencies --    661.2269               685.4854               721.8967
 Red. masses --      1.5590                 3.4447                 5.0384
 Frc consts  --      0.4016                 0.9537                 1.5470
 IR Inten    --    109.4536                14.5844                 4.6816

                     37                     38                     39
                      A                      A                      A
 Frequencies --    741.5923               763.5646               785.2680
 Red. masses --      4.4128                 1.7456                 2.0021
 Frc consts  --      1.4299                 0.5996                 0.7274
 IR Inten    --      4.0768                 8.1428                 4.5622

                     40                     41                     42
                      A                      A                      A
 Frequencies --    800.2663               837.8033               839.8232
 Red. masses --      2.2446                 1.0562                 1.7277
 Frc consts  --      0.8469                 0.4368                 0.7179
 IR Inten    --      0.4622                 3.5249                62.7065

                     43                     44                     45
                      A                      A                      A
 Frequencies --    844.1593               849.8524               864.6637
 Red. masses --      1.0567                 1.8284                 3.5271
 Frc consts  --      0.4437                 0.7781                 1.5537
 IR Inten    --     12.4149                21.5049                 1.7149

                     46                     47                     48
                      A                      A                      A
 Frequencies --    903.7837               927.5692               932.3177
 Red. masses --      1.7376                 2.0939                 2.3747
 Frc consts  --      0.8362                 1.0614                 1.2162
 IR Inten    --     10.4361                 1.6912                14.2319

                     49                     50                     51
                      A                      A                      A
 Frequencies --    952.9123               962.4130               970.3390
 Red. masses --      1.2970                 2.6519                 1.3003
 Frc consts  --      0.6939                 1.4472                 0.7213
 IR Inten    --      0.3387                 4.1187                 1.4243

                     52                     53                     54
                      A                      A                      A
 Frequencies --   1011.5517              1011.9377              1037.9219
 Red. masses --      2.9522                 2.1307                 1.8591
 Frc consts  --      1.7798                 1.2855                 1.1800
 IR Inten    --      4.9972                12.8370                 6.0378

                     55                     56                     57
                      A                      A                      A
 Frequencies --   1065.8319              1089.6224              1114.0468
 Red. masses --      1.7383                 2.1302                 2.0732
 Frc consts  --      1.1635                 1.4901                 1.5160
 IR Inten    --      6.3603                 5.2617                 5.7010

                     58                     59                     60
                      A                      A                      A
 Frequencies --   1131.9810              1146.2912              1188.0220
 Red. masses --      1.4322                 3.0127                 1.2101
 Frc consts  --      1.0813                 2.3324                 1.0063
 IR Inten    --      0.5011                11.6372                11.7961

                     61                     62                     63
                      A                      A                      A
 Frequencies --   1197.8971              1213.2090              1239.7036
 Red. masses --      1.2337                 1.3109                 1.4573
 Frc consts  --      1.0430                 1.1368                 1.3196
 IR Inten    --      0.8151                 3.5321                 0.0179

                     64                     65                     66
                      A                      A                      A
 Frequencies --   1242.1011              1253.7561              1262.7048
 Red. masses --      1.4555                 1.7218                 2.0050
 Frc consts  --      1.3231                 1.5946                 1.8835
 IR Inten    --      0.3436                14.6678                10.0038

                     67                     68                     69
                      A                      A                      A
 Frequencies --   1281.9921              1300.4055              1327.6864
 Red. masses --      1.3888                 1.7695                 2.5745
 Frc consts  --      1.3448                 1.7630                 2.6739
 IR Inten    --     19.3516                 9.3418                52.9452

                     70                     71                     72
                      A                      A                      A
 Frequencies --   1356.4066              1375.7066              1402.6727
 Red. masses --      1.7742                 1.4858                 2.0477
 Frc consts  --      1.9232                 1.6568                 2.3737
 IR Inten    --    166.2002                 1.6267                 9.7509

                     73                     74                     75
                      A                      A                      A
 Frequencies --   1411.2379              1418.9889              1431.0898
 Red. masses --      1.4391                 4.3044                 1.3994
 Frc consts  --      1.6887                 5.1065                 1.6886
 IR Inten    --      9.9834                 6.3709                48.9407

                     76                     77                     78
                      A                      A                      A
 Frequencies --   1435.6226              1443.0610              1455.6877
 Red. masses --      1.3661                 2.5394                 1.2511
 Frc consts  --      1.6588                 3.1156                 1.5619
 IR Inten    --     26.8347                 9.2104                 3.3267

                     79                     80                     81
                      A                      A                      A
 Frequencies --   1496.4272              1502.7829              1506.1796
 Red. masses --      1.0556                 1.8729                 2.0381
 Frc consts  --      1.3927                 2.4920                 2.7242
 IR Inten    --     13.8497                72.3141                40.0559

                     82                     83                     84
                      A                      A                      A
 Frequencies --   1516.1813              1518.1754              1522.2285
 Red. masses --      1.2891                 1.7888                 1.2607
 Frc consts  --      1.7460                 2.4292                 1.7212
 IR Inten    --      3.5573                18.7118                 8.3358

                     85                     86                     87
                      A                      A                      A
 Frequencies --   1530.4524              1533.5599              1534.7181
 Red. masses --      1.1318                 1.0358                 1.0276
 Frc consts  --      1.5619                 1.4352                 1.4260
 IR Inten    --      2.7592                 3.5315                 3.1029

                     88                     89                     90
                      A                      A                      A
 Frequencies --   1540.3073              1549.7530              1572.9479
 Red. masses --      1.0578                 1.0501                 3.5061
 Frc consts  --      1.4787                 1.4860                 5.1110
 IR Inten    --      5.9881                 8.2048                48.1028

                     91                     92                     93
                      A                      A                      A
 Frequencies --   1636.4738              1664.4123              1684.6652
 Red. masses --      6.9201                 4.6109                 2.0407
 Frc consts  --     10.9189                 7.5260                 3.4123
 IR Inten    --      2.0520                10.1038                22.5141

                     94                     95                     96
                      A                      A                      A
 Frequencies --   1699.6735              1788.4242              3043.1251
 Red. masses --      1.9110                 7.6250                 1.0389
 Frc consts  --      3.2526                14.3692                 5.6686
 IR Inten    --    214.3724               331.9598                28.4431

                     97                     98                     99
                      A                      A                      A
 Frequencies --   3045.8028              3052.4281              3060.7066
 Red. masses --      1.0363                 1.0602                 1.0391
 Frc consts  --      5.6643                 5.8203                 5.7355
 IR Inten    --     30.1703                27.1489                 5.4111

                    100                    101                    102
                      A                      A                      A
 Frequencies --   3076.8152              3091.7946              3095.4647
 Red. masses --      1.0701                 1.1001                 1.0952
 Frc consts  --      5.9686                 6.1960                 6.1829
 IR Inten    --      9.0982                15.5229                30.4117

                    103                    104                    105
                      A                      A                      A
 Frequencies --   3102.8604              3120.7554              3122.4296
 Red. masses --      1.1006                 1.1021                 1.1011
 Frc consts  --      6.2433                 6.3240                 6.3251
 IR Inten    --     21.5299                71.1436                11.1954

                    106                    107                    108
                      A                      A                      A
 Frequencies --   3131.6511              3136.9084              3175.4716
 Red. masses --      1.1027                 1.1015                 1.0863
 Frc consts  --      6.3719                 6.3864                 6.4539
 IR Inten    --     34.3359                30.1948                 6.3956

                    109                    110                    111
                      A                      A                      A
 Frequencies --   3179.6800              3179.7469              3185.3896
 Red. masses --      1.0882                 1.0985                 1.0905
 Frc consts  --      6.4824                 6.5439                 6.5192
 IR Inten    --      7.8996                 4.7275                17.7504

                    112                    113                    114
                      A                      A                      A
 Frequencies --   3193.3142              3195.6789              3209.7868
 Red. masses --      1.0923                 1.0911                 1.0959
 Frc consts  --      6.5629                 6.5653                 6.6523
 IR Inten    --     41.4305                12.0761                24.0133

                    115                    116                    117
                      A                      A                      A
 Frequencies --   3554.1052              3589.4824              3653.8162
 Red. masses --      1.0477                 1.0755                 1.0984
 Frc consts  --      7.7975                 8.1645                 8.6400
 IR Inten    --     17.6228                16.5048                 8.5329

 - Thermochemistry -
 -------------------
 Temperature   298.150 Kelvin.  Pressure   1.00000 Atm.
 Atom     1 has atomic number  6 and mass  12.00000

 Molecular mass:   258.17321 amu.
 Principal axes and moments of inertia in atomic units:
                           1         2         3
     Eigenvalues --  3220.16096********************
           X            0.99991  -0.01354  -0.00047
           Y            0.01353   0.99983  -0.01230
           Z            0.00064   0.01229   0.99992
 This molecule is an asymmetric top.
 Rotational symmetry number  1.
 Warning -- assumption of classical behavior for rotation
           may cause significant error
 Rotational temperatures (Kelvin)      0.02690     0.00859     0.00758
 Rotational constants (GHZ):           0.56045     0.17899     0.15785
 Zero-point vibrational energy     929541.6 (Joules/Mol)
                                  222.16576 (Kcal/Mol)
 Warning -- explicit consideration of  33 degrees of freedom as
           vibrations may cause significant error
 Vibrational temperatures:     11.88    24.64    44.29    45.63    52.40
          (Kelvin)             88.37   104.81   113.04   135.34   142.37
                              186.08   189.25   238.48   252.89   327.32
                              369.47   437.95   458.01   483.49   485.22
                              566.68   602.16   615.03   673.21   690.37
                              707.81   760.76   770.24   779.39   781.40
                              824.41   849.77   885.80   951.36   986.26
                             1038.65  1066.99  1098.60  1129.83  1151.40
                             1205.41  1208.32  1214.56  1222.75  1244.06
                             1300.34  1334.57  1341.40  1371.03  1384.70
                             1396.10  1455.40  1455.95  1493.34  1533.49
                             1567.72  1602.86  1628.67  1649.26  1709.30
                             1723.51  1745.54  1783.66  1787.11  1803.88
                             1816.75  1844.50  1870.99  1910.24  1951.57
                             1979.33  2018.13  2030.46  2041.61  2059.02
                             2065.54  2076.24  2094.41  2153.03  2162.17
                             2167.06  2181.45  2184.32  2190.15  2201.98
                             2206.45  2208.12  2216.16  2229.75  2263.12
                             2354.52  2394.72  2423.86  2445.45  2573.14
                             4378.38  4382.23  4391.76  4403.67  4426.85
                             4448.40  4453.68  4464.32  4490.07  4492.48
                             4505.75  4513.31  4568.80  4574.85  4574.95
                             4583.07  4594.47  4597.87  4618.17  5113.56
                             5164.46  5257.03

 Zero-point correction=                           0.354044 (Hartree/Particle)
 Thermal correction to Energy=                    0.375001
 Thermal correction to Enthalpy=                  0.375945
 Thermal correction to Gibbs Free Energy=         0.299324
 Sum of electronic and zero-point Energies=           -807.438007
 Sum of electronic and thermal Energies=              -807.417049
 Sum of electronic and thermal Enthalpies=            -807.416105
 Sum of electronic and thermal Free Energies=         -807.492726

                     E (Thermal)             CV                S
                      KCal/Mol        Cal/Mol-Kelvin    Cal/Mol-Kelvin
 Total                  235.317             76.377            161.263
 Electronic               0.000              0.000              0.000
 Translational            0.889              2.981             42.545
 Rotational               0.889              2.981             34.273
 Vibrational            233.539             70.416             84.445
 Vibration     1          0.593              1.987              8.392
 Vibration     2          0.593              1.986              6.942
 Vibration     3          0.594              1.984              5.778
 Vibration     4          0.594              1.983              5.719
 Vibration     5          0.594              1.982              5.445
 Vibration     6          0.597              1.973              4.411
 Vibration     7          0.599              1.967              4.075
 Vibration     8          0.600              1.964              3.926
 Vibration     9          0.603              1.953              3.574
 Vibration    10          0.604              1.950              3.475
 Vibration    11          0.612              1.924              2.956
 Vibration    12          0.612              1.922              2.923
 Vibration    13          0.624              1.885              2.483
 Vibration    14          0.628              1.872              2.373
 Vibration    15          0.651              1.799              1.899
 Vibration    16          0.666              1.751              1.683
 Vibration    17          0.695              1.665              1.393
 Vibration    18          0.705              1.639              1.319
 Vibration    19          0.717              1.604              1.231
 Vibration    20          0.718              1.601              1.225
 Vibration    21          0.761              1.483              0.985
 Vibration    22          0.781              1.430              0.897
 Vibration    23          0.789              1.410              0.867
 Vibration    24          0.825              1.321              0.743
 Vibration    25          0.836              1.295              0.711
 Vibration    26          0.848              1.268              0.679
 Vibration    27          0.884              1.186              0.590
 Vibration    28          0.890              1.172              0.575
 Vibration    29          0.897              1.158              0.562
 Vibration    30          0.898              1.155              0.559
 Vibration    31          0.929              1.090              0.499
 Vibration    32          0.948              1.052              0.466
 Vibration    33          0.975              0.999              0.423

                           ! Non-Optimized Parameters !
 Normal termination of Gaussian 16 at Sat Dec 12 10:38:08 2020.

 ----------------------------------------------------------------------
 # B3LYP/6-311++G(d,p) empiricaldispersion=gd3bj scf=xqc pop=npa geom=c
 heck
 ----------------------------------------------------------------------

 ---------------------------------------
 CID_144358000_JID_9691_Energie_neutraal
 ---------------------------------------
 Structure from the checkpoint file:  "JID_9691.chk"
 Charge =  0 Multiplicity = 1

 SCF Done:  E(RB3LYP) =  -808.021315469     A.U. after   15 cycles
 Normal termination of Gaussian 16 at Sat Dec 12 10:45:43 2020.

 ----------------------------------------------------------------------
 # B3LYP/6-311++G(d,p) empiricaldispersion=gd3bj scf=xqc pop=npa geom=c
 heck
 ----------------------------------------------------------------------

 -------------------------------------
 CID_144358000_JID_9691_Energie_kation
 -------------------------------------
 Structure from the checkpoint file:  "JID_9691.chk"
 Charge =  1 Multiplicity = 2

 SCF Done:  E(UB3LYP) =  -807.751643315     A.U. after   26 cycles
 Normal termination of Gaussian 16 at Sat Dec 12 11:03:04 2020.
 Gaussian 16:  ES64L-G16RevA.03 25-Dec-2016

 ----------------------------------------------------------------------
 # B3LYP/6-311++G(d,p) empiricaldispersion=gd3bj scf=xqc pop=npa geom=c
 heck
 ----------------------------------------------------------------------

 ------------------------------------
 CID_144358000_JID_9691_Energie_anion
 ------------------------------------
 Structure from the checkpoint file:  "JID_9691.chk"
 Charge = -1 Multiplicity = 2

                         Standard orientation:
 ---------------------------------------------------------------------
 Center     Atomic      Atomic             Coordinates (Angstroms)
 Number     Number       Type             X           Y           Z
 ---------------------------------------------------------------------
      1          6           0       -5.624376    1.358760   -1.027840
      2          6           0       -4.448223    1.989810   -1.776583
      3          6           0       -3.784078   -0.400425    1.610787
      4          6           0       -3.083282   -0.722598    0.299840
      5          8           0       -3.568386   -1.486914   -0.525847
      6          7           0       -1.896718   -0.078258    0.057039
      7          6           0       -1.077378    0.639773    1.018080
      8          6           0       -0.076211   -0.275087    1.759028
      9          6           0        0.884071   -0.947773    0.807804
     10          6           0        0.624096   -2.233954    0.373844
     11          6           0        1.448672   -2.886729   -0.570007
     12          6           0        2.545142   -2.234664   -1.082581
     13          6           0        2.855075   -0.914163   -0.673070
     14          6           0        2.020099   -0.247127    0.283960
     15          6           0        2.348821    1.079525    0.663284
     16          6           0        3.454900    1.733159    0.143347
     17          6           0        4.277688    1.059595   -0.802564
     18          6           0        3.979747   -0.220281   -1.192546
     19          7           0        3.815712    3.012491    0.566719
     20          1           0       -6.563418    1.498053   -1.576335
     21          1           0       -5.756705    1.810219   -0.036338
     22          1           0       -5.468164    0.283895   -0.894055
     23          1           0       -4.321880    1.529909   -2.763294
     24          1           0       -4.597461    3.065984   -1.926884
     25          1           0       -3.506151    1.853039   -1.233926
     26          1           0       -4.692792   -1.000650    1.658905
     27          1           0       -4.056473    0.659782    1.657601
     28          1           0       -3.155626   -0.627004    2.479135
     29          1           0       -1.434139   -0.405408   -0.783218
     30          1           0       -0.533208    1.421431    0.478787
     31          1           0       -1.731861    1.141308    1.735149
     32          1           0        0.456140    0.317394    2.512861
     33          1           0       -0.643914   -1.038839    2.302659
     34          1           0       -0.243939   -2.756211    0.768237
     35          1           0        1.208881   -3.897777   -0.884878
     36          1           0        3.190594   -2.720043   -1.810571
     37          1           0        1.731943    1.601222    1.388372
     38          1           0        5.150087    1.569725   -1.203695
     39          1           0        4.612951   -0.726959   -1.916633
     40          1           0        3.070284    3.549751    0.991336
     41          1           0        4.330395    3.559933   -0.111454
 ---------------------------------------------------------------------

 SCF Done:  E(UB3LYP) =  -808.021439753     A.U. after   33 cycles
 SCF Done:  E(UB3LYP) =  -808.021439753     a.u. after    1 cycles

 The electronic state is 2-A.
 Alpha  occ. eigenvalues --  -18.99011 -14.23379 -14.21489 -10.17744 -10.10770
 Alpha  occ. eigenvalues --  -10.09783 -10.08159 -10.07132 -10.07091 -10.06666
 Alpha  occ. eigenvalues --  -10.06434 -10.05703 -10.05155 -10.05061 -10.04970
 Alpha  occ. eigenvalues --  -10.04950 -10.04492 -10.04423 -10.04270  -0.94069
 Alpha  occ. eigenvalues --   -0.82448  -0.81445  -0.74947  -0.69710  -0.67543
 Alpha  occ. eigenvalues --   -0.66624  -0.64776  -0.63315  -0.61451  -0.59588
 Alpha  occ. eigenvalues --   -0.53949  -0.52949  -0.51100  -0.49522  -0.48297
 Alpha  occ. eigenvalues --   -0.45906  -0.41604  -0.41028  -0.40049  -0.38871
 Alpha  occ. eigenvalues --   -0.38261  -0.36531  -0.36389  -0.34931  -0.34519
 Alpha  occ. eigenvalues --   -0.34046  -0.32802  -0.32150  -0.31320  -0.30876
 Alpha  occ. eigenvalues --   -0.30541  -0.30238  -0.29407  -0.28266  -0.27974
 Alpha  occ. eigenvalues --   -0.27445  -0.27096  -0.25894  -0.25790  -0.25604
 Alpha  occ. eigenvalues --   -0.25277  -0.23972  -0.22330  -0.20830  -0.18423
 Alpha  occ. eigenvalues --   -0.16651  -0.16018  -0.15314  -0.11701  -0.08813
 Alpha  occ. eigenvalues --    0.03922
 Alpha virt. eigenvalues --    0.05977   0.06177   0.07137   0.07853   0.08335
 Alpha virt. eigenvalues --    0.08714   0.09216   0.09328   0.10057   0.10370
 Alpha virt. eigenvalues --    0.10552   0.10925   0.11323   0.11540   0.12002

  Beta  occ. eigenvalues --  -18.99008 -14.23380 -14.21459 -10.17741 -10.10744
  Beta  occ. eigenvalues --  -10.09763 -10.08136 -10.07127 -10.07084 -10.06666
  Beta  occ. eigenvalues --  -10.06459 -10.05750 -10.05018 -10.04980 -10.04963
  Beta  occ. eigenvalues --  -10.04788 -10.04376 -10.04211 -10.04163  -0.94064
  Beta  occ. eigenvalues --   -0.82439  -0.81348  -0.74774  -0.69468  -0.67367
  Beta  occ. eigenvalues --   -0.66612  -0.64721  -0.63145  -0.61256  -0.59384
  Beta  occ. eigenvalues --   -0.53826  -0.52929  -0.50760  -0.49470  -0.48238
  Beta  occ. eigenvalues --   -0.45767  -0.41486  -0.40938  -0.39943  -0.38834
  Beta  occ. eigenvalues --   -0.38168  -0.36490  -0.36293  -0.34921  -0.34468
  Beta  occ. eigenvalues --   -0.33992  -0.32691  -0.32060  -0.31258  -0.30841
  Beta  occ. eigenvalues --   -0.30484  -0.30162  -0.29307  -0.28249  -0.27648
  Beta  occ. eigenvalues --   -0.27355  -0.27008  -0.25869  -0.25767  -0.25558
  Beta  occ. eigenvalues --   -0.25185  -0.23599  -0.22218  -0.20759  -0.17755
  Beta  occ. eigenvalues --   -0.16490  -0.15767  -0.15082  -0.10923  -0.08118
  Beta virt. eigenvalues --    0.06103   0.06480   0.07296   0.07968   0.08066
  Beta virt. eigenvalues --    0.08337   0.08882   0.09282   0.09500   0.09998
  Beta virt. eigenvalues --    0.10454   0.10626   0.11034   0.11409   0.11755

 Mulliken charges and spin densities:
               1          2
     1  C   -0.295517  -0.113289
     2  C   -0.312295  -0.090962
     3  C    0.258568  -0.651673
     4  C   -0.490349   0.314453
     5  O   -0.296812  -0.000829
     6  N   -0.018071  -0.004678
     7  C   -0.027868  -0.552042
     8  C    0.042349  -0.441224
     9  C    0.439798   0.248857
    10  C   -0.350807   0.108094
    11  C   -0.429272  -0.116033
    12  C   -0.204571   0.066110
    13  C    0.376522  -0.027811
    14  C    0.248410   0.184599
    15  C   -0.585727   0.069712
    16  C    0.098954  -0.352005
    17  C   -0.114221   0.048079
    18  C   -0.173669   0.078639
    19  N   -0.314759  -0.013489
    20  H    0.112620   0.014377
    21  H    0.007285   0.105928
    22  H    0.164409   0.003337
    23  H    0.093685   0.017633
    24  H    0.056089   0.056092
    25  H    0.148828   0.048428
    26  H    0.137432   0.041477
    27  H    0.004534   0.170317
    28  H   -0.053299   0.211050
    29  H    0.303303   0.001809
    30  H    0.164935  -0.001591
    31  H   -0.417768   0.574226
    32  H   -0.188025   0.375587
    33  H    0.121751   0.043048
    34  H    0.085730   0.041927
    35  H    0.136700  -0.000762
    36  H    0.088890  -0.011106
    37  H   -0.079815   0.160392
    38  H    0.019495   0.091645
    39  H    0.092358  -0.010153
    40  H    0.062299   0.163773
    41  H    0.087902   0.148060
 Sum of Mulliken charges =  -1.00000   1.00000

 Dipole moment (field-independent basis, Debye):
    X=             -0.8797    Y=              0.3675    Z=             -1.9763  Tot=              2.1943
 Quadrupole moment (field-independent basis, Debye-Ang):
   XX=           -188.9292   YY=           -149.3102   ZZ=           -145.5498
   XY=             -4.5531   XZ=             -6.6021   YZ=             -6.8701

 Summary of Natural Population Analysis:

                                       Natural Population
                Natural  -----------------------------------------------
    Atom  No    Charge         Core      Valence    Rydberg      Total
 -----------------------------------------------------------------------
      C    1   -0.29095      0.99968     2.28713    0.00415     3.29095
      C    2   -0.28792      0.99968     2.28404    0.00420     3.28792
      C    3   -0.33686      0.99962     2.33220    0.00504     3.33686
      C    4    0.33955      0.99970     1.63722    0.02354     2.66045
      O    5   -0.32725      0.99988     3.32170    0.00568     4.32725
      N    6   -0.31996      0.99967     2.81152    0.00877     3.81996
      C    7   -0.08719      0.99961     2.07642    0.01116     3.08719
      C    8   -0.20310      0.99960     2.19369    0.00981     3.20310
      C    9   -0.00268      0.99948     1.99344    0.00977     3.00268
      C   10   -0.08236      0.99951     2.07315    0.00970     3.08236
      C   11   -0.12099      0.99957     2.11267    0.00875     3.12099
      C   12   -0.05281      0.99953     2.04529    0.00799     3.05281
      C   13   -0.04737      0.99949     2.04006    0.00782     3.04737
      C   14   -0.01989      0.99947     2.01176    0.00867     3.01989
      C   15   -0.11866      0.99949     2.11045    0.00872     3.11866
      C   16    0.08881      0.99949     1.90096    0.01073     2.91119
      C   17   -0.11129      0.99953     2.10167    0.01010     3.11129
      C   18   -0.04805      0.99954     2.04069    0.00781     3.04805
      N   19   -0.39822      0.99971     2.88880    0.00971     3.89822
      H   20    0.09015      0.00000     0.40892    0.00092     0.40985
      H   21    0.09266      0.00000     0.40617    0.00117     0.40734
      H   22    0.10751      0.00000     0.39120    0.00129     0.39249
      H   23    0.09486      0.00000     0.40416    0.00098     0.40514
      H   24    0.09026      0.00000     0.40868    0.00106     0.40974
      H   25    0.10245      0.00000     0.39637    0.00118     0.39755
      H   26    0.11039      0.00000     0.38882    0.00079     0.38961
      H   27    0.11038      0.00000     0.38834    0.00127     0.38962
      H   28    0.10929      0.00000     0.38974    0.00097     0.39071
      H   29    0.19919      0.00000     0.29897    0.00184     0.30081
      H   30    0.09927      0.00000     0.39939    0.00134     0.40073
      H   31    0.09911      0.00000     0.39881    0.00207     0.40089
      H   32    0.10605      0.00000     0.39242    0.00153     0.39395
      H   33    0.09887      0.00000     0.39999    0.00114     0.40113
      H   34    0.09414      0.00000     0.40463    0.00122     0.40586
      H   35    0.09337      0.00000     0.40536    0.00127     0.40663
      H   36    0.08916      0.00000     0.40954    0.00131     0.41084
      H   37    0.09410      0.00000     0.40419    0.00171     0.40590
      H   38    0.09188      0.00000     0.40724    0.00088     0.40812
      H   39    0.08980      0.00000     0.40878    0.00141     0.41020
      H   40    0.18298      0.00000     0.31561    0.00141     0.31702
      H   41    0.18132      0.00000     0.31721    0.00147     0.31868
 =======================================================================
   * Total *    0.00000     18.99226    50.80739    0.20035    70.00000

 Normal termination of Gaussian 16 at Sat Dec 12 11:24:52 2020.
