 Gaussian 16, Revision A.03,

 -----------------------------------------------------------
 # opt freq B3LYP/6-31G(d) empiricaldispersion=gd3bj scf=xqc
 -----------------------------------------------------------

 ------------------------------
 CID_84294323_JID_9298_neutraal
 ------------------------------
 Symbolic Z-matrix:
 Charge =  0 Multiplicity = 1

 SCF Done:  E(RB3LYP) =  -822.614207280     A.U. after   15 cycles
 SCF Done:  E(RB3LYP) =  -822.622587383     A.U. after   13 cycles
 SCF Done:  E(RB3LYP) =  -822.621995369     A.U. after   13 cycles
 SCF Done:  E(RB3LYP) =  -822.624765632     A.U. after   12 cycles
 SCF Done:  E(RB3LYP) =  -822.625358309     A.U. after   13 cycles
 SCF Done:  E(RB3LYP) =  -822.626197301     A.U. after   12 cycles
 SCF Done:  E(RB3LYP) =  -822.627118206     A.U. after   13 cycles
 SCF Done:  E(RB3LYP) =  -822.627487855     A.U. after   12 cycles
 SCF Done:  E(RB3LYP) =  -822.627618390     A.U. after   11 cycles
 SCF Done:  E(RB3LYP) =  -822.627657164     A.U. after   11 cycles
 SCF Done:  E(RB3LYP) =  -822.627684580     A.U. after   10 cycles
 SCF Done:  E(RB3LYP) =  -822.627696403     A.U. after   10 cycles
 SCF Done:  E(RB3LYP) =  -822.627698675     A.U. after    8 cycles
 SCF Done:  E(RB3LYP) =  -822.627699171     A.U. after    8 cycles
 SCF Done:  E(RB3LYP) =  -822.627699219     A.U. after    7 cycles
 Optimization completed.
    -- Stationary point found.
 Normal termination of Gaussian 16 at Sat Dec 12 09:31:59 2020.

 --------------------------------------------------------------------
 #N Geom=AllCheck Guess=TCheck SCRF=Check GenChk RB3LYP/6-31G(d) Freq
 --------------------------------------------------------------------

 Structure from the checkpoint file:  "JID_9298.chk"
 ------------------------------
 CID_84294323_JID_9298_neutraal
 ------------------------------
 Charge =  0 Multiplicity = 1

 SCF Done:  E(RB3LYP) =  -822.627699219     A.U. after    1 cycles

  Exact polarizability: 244.447 -14.623 191.810  10.583   9.505 112.417
 Approx polarizability: 331.911 -25.299 322.521  24.507  30.085 176.460

                      1                      2                      3
                      A                      A                      A
 Frequencies --     38.0024                53.0978                65.3364
 Red. masses --      3.9126                 2.7886                 3.3218
 Frc consts  --      0.0033                 0.0046                 0.0084
 IR Inten    --      0.6800                 0.1407                 1.0420

                      4                      5                      6
                      A                      A                      A
 Frequencies --     80.1411                89.2922               110.4851
 Red. masses --      3.0114                 3.5554                 1.0944
 Frc consts  --      0.0114                 0.0167                 0.0079
 IR Inten    --      1.2370                 3.1140                 0.8501

                      7                      8                      9
                      A                      A                      A
 Frequencies --    128.9718               144.4874               169.4862
 Red. masses --      2.9369                 4.1868                 2.2368
 Frc consts  --      0.0288                 0.0515                 0.0379
 IR Inten    --      0.1933                 0.0626                 1.8023

                     10                     11                     12
                      A                      A                      A
 Frequencies --    181.1557               213.6180               235.4923
 Red. masses --      3.6162                 2.3787                 1.9283
 Frc consts  --      0.0699                 0.0640                 0.0630
 IR Inten    --      3.1165                 1.9828                 1.9480

                     13                     14                     15
                      A                      A                      A
 Frequencies --    246.6804               263.7508               277.2026
 Red. masses --      3.1279                 2.6250                 2.3109
 Frc consts  --      0.1121                 0.1076                 0.1046
 IR Inten    --      5.7056                 4.7683                 6.6830

                     16                     17                     18
                      A                      A                      A
 Frequencies --    285.4319               305.9323               347.4462
 Red. masses --      2.8633                 3.5193                 3.8524
 Frc consts  --      0.1374                 0.1941                 0.2740
 IR Inten    --      1.2287                 1.6351                 6.7439

                     19                     20                     21
                      A                      A                      A
 Frequencies --    408.8960               434.6267               508.4439
 Red. masses --      4.6937                 5.4350                 4.9424
 Frc consts  --      0.4624                 0.6049                 0.7528
 IR Inten    --      6.5516                 1.7739                 1.3223

                     22                     23                     24
                      A                      A                      A
 Frequencies --    529.5189               544.7053               575.1274
 Red. masses --      4.0818                 5.1489                 3.4359
 Frc consts  --      0.6743                 0.9001                 0.6696
 IR Inten    --      1.4500                 2.9893                 0.6780

                     25                     26                     27
                      A                      A                      A
 Frequencies --    582.2068               586.2465               619.0204
 Red. masses --      2.0651                 4.0506                 4.7489
 Frc consts  --      0.4124                 0.8202                 1.0721
 IR Inten    --      1.9597                 0.6109                 2.3007

                     28                     29                     30
                      A                      A                      A
 Frequencies --    647.1417               720.6517               751.2081
 Red. masses --      5.3888                 4.1917                 3.7529
 Frc consts  --      1.3297                 1.2826                 1.2478
 IR Inten    --      7.8536                 1.8106                21.2713

                     31                     32                     33
                      A                      A                      A
 Frequencies --    751.9341               767.4397               789.2781
 Red. masses --      6.5893                 2.7277                 1.8203
 Frc consts  --      2.1951                 0.9465                 0.6681
 IR Inten    --      3.3524                18.8108                21.3750

                     34                     35                     36
                      A                      A                      A
 Frequencies --    810.2514               828.6152               867.4557
 Red. masses --      3.0111                 1.4413                 1.8418
 Frc consts  --      1.1647                 0.5830                 0.8165
 IR Inten    --      9.8089                 5.9128                 9.6590

                     37                     38                     39
                      A                      A                      A
 Frequencies --    896.0811               903.9300               905.0518
 Red. masses --      1.9639                 1.3564                 4.3247
 Frc consts  --      0.9291                 0.6530                 2.0871
 IR Inten    --     10.5935                 0.5681                 0.2260

                     40                     41                     42
                      A                      A                      A
 Frequencies --    921.0139               934.2771               951.5186
 Red. masses --      3.4343                 2.1977                 1.2794
 Frc consts  --      1.7164                 1.1303                 0.6825
 IR Inten    --      5.6264                 3.5342                 1.8027

                     43                     44                     45
                      A                      A                      A
 Frequencies --    954.2631               981.6441               988.5031
 Red. masses --      1.5739                 1.9556                 1.9531
 Frc consts  --      0.8444                 1.1103                 1.1245
 IR Inten    --     11.6112                 0.8351                 2.6738

                     46                     47                     48
                      A                      A                      A
 Frequencies --   1020.7722              1048.6858              1074.2507
 Red. masses --      1.8623                 1.9360                 2.7575
 Frc consts  --      1.1433                 1.2544                 1.8749
 IR Inten    --      5.5317                11.7833                 3.2647

                     49                     50                     51
                      A                      A                      A
 Frequencies --   1080.0173              1096.2778              1109.4707
 Red. masses --      1.4913                 2.1031                 1.6717
 Frc consts  --      1.0249                 1.4892                 1.2124
 IR Inten    --      3.0357                24.1258                12.8823

                     52                     53                     54
                      A                      A                      A
 Frequencies --   1124.3122              1149.3737              1167.1130
 Red. masses --      1.6756                 1.7694                 2.0504
 Frc consts  --      1.2480                 1.3772                 1.6456
 IR Inten    --      4.4351                35.0499                25.5487

                     55                     56                     57
                      A                      A                      A
 Frequencies --   1187.3522              1196.9073              1208.0046
 Red. masses --      2.9303                 1.3818                 1.5190
 Frc consts  --      2.4340                 1.1663                 1.3060
 IR Inten    --     11.9764                 1.6034                 3.7635

                     58                     59                     60
                      A                      A                      A
 Frequencies --   1232.8816              1264.5354              1279.6847
 Red. masses --      2.2466                 1.2811                 1.6755
 Frc consts  --      2.0120                 1.2070                 1.6166
 IR Inten    --     15.2254                10.8983                16.7898

                     61                     62                     63
                      A                      A                      A
 Frequencies --   1288.5681              1294.7144              1319.7848
 Red. masses --      1.8604                 1.7958                 1.6898
 Frc consts  --      1.8200                 1.7736                 1.7342
 IR Inten    --     14.9189                14.6519                23.1759

                     64                     65                     66
                      A                      A                      A
 Frequencies --   1336.1872              1357.3252              1366.2677
 Red. masses --      1.3624                 2.1679                 1.3540
 Frc consts  --      1.4331                 2.3532                 1.4892
 IR Inten    --      1.6656                 5.5472                 5.1197

                     67                     68                     69
                      A                      A                      A
 Frequencies --   1379.0866              1380.6959              1383.6960
 Red. masses --      1.7225                 3.2807                 1.7872
 Frc consts  --      1.9302                 3.6848                 2.0161
 IR Inten    --      6.5731               145.2314                 5.9980

                     70                     71                     72
                      A                      A                      A
 Frequencies --   1395.6906              1406.3316              1435.3551
 Red. masses --      1.4511                 3.7003                 1.3359
 Frc consts  --      1.6655                 4.3118                 1.6216
 IR Inten    --     41.0006                21.2653                36.9773

                     73                     74                     75
                      A                      A                      A
 Frequencies --   1445.5128              1453.3796              1482.9448
 Red. masses --      1.3187                 5.0410                 2.2779
 Frc consts  --      1.6234                 6.2738                 2.9514
 IR Inten    --     32.5252               468.0107                 5.2459

                     76                     77                     78
                      A                      A                      A
 Frequencies --   1502.7219              1515.1967              1517.8152
 Red. masses --      1.0437                 1.1696                 1.2761
 Frc consts  --      1.3886                 1.5820                 1.7321
 IR Inten    --      6.1722                 8.0183                 1.3273

                     79                     80                     81
                      A                      A                      A
 Frequencies --   1519.3157              1523.1510              1526.9880
 Red. masses --      1.0913                 1.0486                 1.1070
 Frc consts  --      1.4842                 1.4334                 1.5207
 IR Inten    --      3.2877                 9.8287                 4.0082

                     82                     83                     84
                      A                      A                      A
 Frequencies --   1535.3965              1546.9940              1551.5090
 Red. masses --      1.2037                 1.0944                 2.9114
 Frc consts  --      1.6720                 1.5431                 4.1291
 IR Inten    --     31.8506                 2.5274                30.2574

                     85                     86                     87
                      A                      A                      A
 Frequencies --   1553.3748              1561.8126              1614.3338
 Red. masses --      2.0330                 1.5502                 6.1219
 Frc consts  --      2.8903                 2.2279                 9.3999
 IR Inten    --     40.6008                29.9968                 2.2667

                     88                     89                     90
                      A                      A                      A
 Frequencies --   1686.1545              1698.7639              3029.3455
 Red. masses --      6.2011                10.7882                 1.0691
 Frc consts  --     10.3875                18.3427                 5.7803
 IR Inten    --      8.7668               232.8173                21.8602

                     91                     92                     93
                      A                      A                      A
 Frequencies --   3054.9088              3055.4082              3059.0997
 Red. masses --      1.0363                 1.0684                 1.0394
 Frc consts  --      5.6982                 5.8764                 5.7306
 IR Inten    --     20.1617                43.8146                40.7951

                     94                     95                     96
                      A                      A                      A
 Frequencies --   3059.9014              3066.0235              3068.6213
 Red. masses --      1.0672                 1.0625                 1.0602
 Frc consts  --      5.8874                 5.8845                 5.8822
 IR Inten    --     19.1704                27.7453                16.0766

                     97                     98                     99
                      A                      A                      A
 Frequencies --   3100.7232              3107.6901              3110.5402
 Red. masses --      1.0922                 1.1020                 1.1003
 Frc consts  --      6.1869                 6.2707                 6.2724
 IR Inten    --     10.3588                28.7502                11.5057

                    100                    101                    102
                      A                      A                      A
 Frequencies --   3119.4182              3123.0496              3125.9933
 Red. masses --      1.0978                 1.1032                 1.1013
 Frc consts  --      6.2940                 6.3395                 6.3405
 IR Inten    --     30.8070                39.1863                29.3689

                    103                    104                    105
                      A                      A                      A
 Frequencies --   3133.0361              3137.2111              3152.0377
 Red. masses --      1.1021                 1.1036                 1.1012
 Frc consts  --      6.3738                 6.3994                 6.4462
 IR Inten    --     30.3064                18.9438                19.3821

                    106                    107                    108
                      A                      A                      A
 Frequencies --   3196.9891              3226.7021              3283.7027
 Red. masses --      1.0895                 1.0923                 1.0950
 Frc consts  --      6.5611                 6.7004                 6.9564
 IR Inten    --     13.3546                 9.5245                 8.4643

 - Thermochemistry -
 -------------------
 Temperature   298.150 Kelvin.  Pressure   1.00000 Atm.
 Atom     1 has atomic number  6 and mass  12.00000

 Molecular mass:   257.15281 amu.
 Principal axes and moments of inertia in atomic units:
                           1         2         3
     Eigenvalues --  2773.749457133.021688834.50471
           X            0.99999   0.00309  -0.00324
           Y           -0.00313   0.99988  -0.01518
           Z            0.00320   0.01519   0.99988
 This molecule is an asymmetric top.
 Rotational symmetry number  1.
 Warning -- assumption of classical behavior for rotation
           may cause significant error
 Rotational temperatures (Kelvin)      0.03123     0.01214     0.00980
 Rotational constants (GHZ):           0.65065     0.25301     0.20428
 Zero-point vibrational energy     851885.7 (Joules/Mol)
                                  203.60557 (Kcal/Mol)
 Warning -- explicit consideration of  27 degrees of freedom as
           vibrations may cause significant error
 Vibrational temperatures:     54.68    76.40    94.00   115.31   128.47
          (Kelvin)            158.96   185.56   207.89   243.85   260.64
                              307.35   338.82   354.92   379.48   398.83
                              410.67   440.17   499.90   588.31   625.33
                              731.54   761.86   783.71   827.48   837.67
                              843.48   890.63   931.09  1036.86  1080.82
                             1081.87  1104.17  1135.60  1165.77  1192.19
                             1248.08  1289.26  1300.55  1302.17  1325.13
                             1344.22  1369.02  1372.97  1412.37  1422.24
                             1468.66  1508.82  1545.61  1553.90  1577.30
                             1596.28  1617.63  1653.69  1679.22  1708.34
                             1722.08  1738.05  1773.84  1819.38  1841.18
                             1853.96  1862.81  1898.88  1922.48  1952.89
                             1965.75  1984.20  1986.51  1990.83  2008.09
                             2023.40  2065.16  2079.77  2091.09  2133.63
                             2162.08  2180.03  2183.80  2185.96  2191.47
                             2197.00  2209.09  2225.78  2232.28  2234.96
                             2247.10  2322.67  2426.00  2444.14  4358.55
                             4395.33  4396.05  4401.36  4402.52  4411.32
                             4415.06  4461.25  4471.27  4475.37  4488.15
                             4493.37  4497.61  4507.74  4513.75  4535.08
                             4599.75  4642.50  4724.52

 Zero-point correction=                           0.324466 (Hartree/Particle)
 Thermal correction to Energy=                    0.341821
 Thermal correction to Enthalpy=                  0.342766
 Thermal correction to Gibbs Free Energy=         0.278887
 Sum of electronic and zero-point Energies=           -822.303233
 Sum of electronic and thermal Energies=              -822.285878
 Sum of electronic and thermal Enthalpies=            -822.284934
 Sum of electronic and thermal Free Energies=         -822.348812

                     E (Thermal)             CV                S
                      KCal/Mol        Cal/Mol-Kelvin    Cal/Mol-Kelvin
 Total                  214.496             66.420            134.444
 Electronic               0.000              0.000              0.000
 Translational            0.889              2.981             42.533
 Rotational               0.889              2.981             33.524
 Vibrational            212.719             60.459             58.386
 Vibration     1          0.594              1.982              5.361
 Vibration     2          0.596              1.976              4.699
 Vibration     3          0.597              1.971              4.289
 Vibration     4          0.600              1.963              3.887
 Vibration     5          0.602              1.957              3.676
 Vibration     6          0.606              1.941              3.260
 Vibration     7          0.611              1.924              2.961
 Vibration     8          0.616              1.909              2.744
 Vibration     9          0.625              1.880              2.441
 Vibration    10          0.630              1.865              2.316
 Vibration    11          0.644              1.820              2.013
 Vibration    12          0.655              1.786              1.837
 Vibration    13          0.661              1.768              1.754
 Vibration    14          0.670              1.739              1.637
 Vibration    15          0.678              1.716              1.551
 Vibration    16          0.683              1.701              1.501
 Vibration    17          0.696              1.662              1.384
 Vibration    18          0.725              1.580              1.178
 Vibration    19          0.773              1.451              0.931
 Vibration    20          0.795              1.395              0.844
 Vibration    21          0.864              1.231              0.637
 Vibration    22          0.884              1.185              0.588
 Vibration    23          0.900              1.151              0.555
 Vibration    24          0.931              1.085              0.494
 Vibration    25          0.939              1.070              0.481
 Vibration    26          0.943              1.061              0.474
 Vibration    27          0.979              0.992              0.418

                           ! Non-Optimized Parameters !
 Normal termination of Gaussian 16 at Sat Dec 12 09:52:08 2020.

 ----------------------------------------------------------------------
 # B3LYP/6-311++G(d,p) empiricaldispersion=gd3bj scf=xqc pop=npa geom=c
 heck
 ----------------------------------------------------------------------

 --------------------------------------
 CID_84294323_JID_9298_Energie_neutraal
 --------------------------------------
 Structure from the checkpoint file:  "JID_9298.chk"
 Charge =  0 Multiplicity = 1

 SCF Done:  E(RB3LYP) =  -822.841404591     A.U. after   16 cycles
 Normal termination of Gaussian 16 at Sat Dec 12 10:01:18 2020.

 ----------------------------------------------------------------------
 # B3LYP/6-311++G(d,p) empiricaldispersion=gd3bj scf=xqc pop=npa geom=c
 heck
 ----------------------------------------------------------------------

 ------------------------------------
 CID_84294323_JID_9298_Energie_kation
 ------------------------------------
 Structure from the checkpoint file:  "JID_9298.chk"
 Charge =  1 Multiplicity = 2

 SCF Done:  E(UB3LYP) =  -822.566123197     A.U. after   27 cycles
 Normal termination of Gaussian 16 at Sat Dec 12 10:21:48 2020.
 Gaussian 16:  ES64L-G16RevA.03 25-Dec-2016

 ----------------------------------------------------------------------
 # B3LYP/6-311++G(d,p) empiricaldispersion=gd3bj scf=xqc pop=npa geom=c
 heck
 ----------------------------------------------------------------------

 -----------------------------------
 CID_84294323_JID_9298_Energie_anion
 -----------------------------------
 Structure from the checkpoint file:  "JID_9298.chk"
 Charge = -1 Multiplicity = 2

                         Standard orientation:
 ---------------------------------------------------------------------
 Center     Atomic      Atomic             Coordinates (Angstroms)
 Number     Number       Type             X           Y           Z
 ---------------------------------------------------------------------
      1          6           0        0.167279    3.636409   -1.040634
      2          6           0       -0.522427    2.521160   -0.243778
      3          6           0        0.353373    1.311284   -0.088845
      4          6           0        0.017082   -0.030250   -0.297234
      5          7           0        1.218749   -0.728122   -0.160574
      6          6           0        1.507000   -2.063638   -0.292070
      7          6           0        2.788245   -2.478388   -0.059257
      8          6           0        3.799811   -1.547673    0.298783
      9          6           0        3.525333   -0.202654    0.414163
     10          6           0        2.193865    0.218426    0.168849
     11          7           0        1.675943    1.449969    0.201541
     12          6           0        4.549487    0.834320    0.776321
     13          6           0       -1.212041   -0.731109   -0.702960
     14          8           0       -1.174521   -1.708658   -1.461298
     15          7           0       -2.406376   -0.259600   -0.218530
     16          6           0       -2.593339    0.441970    1.064460
     17          6           0       -3.835227   -0.230963    1.660519
     18          6           0       -4.677104   -0.529615    0.411328
     19          6           0       -3.628802   -0.986795   -0.610931
     20          1           0        1.108789    3.919098   -0.563587
     21          1           0       -0.477784    4.519379   -1.104986
     22          1           0        0.394813    3.301817   -2.058391
     23          1           0       -0.794818    2.904462    0.749797
     24          1           0       -1.454939    2.228044   -0.735874
     25          1           0        0.686569   -2.694234   -0.602027
     26          1           0        3.024527   -3.531124   -0.165311
     27          1           0        4.811035   -1.902369    0.476306
     28          1           0        4.631396    1.591031   -0.011930
     29          1           0        4.259337    1.367033    1.688987
     30          1           0        5.531447    0.378278    0.931335
     31          1           0       -2.783244    1.509166    0.901577
     32          1           0       -1.697764    0.351009    1.682819
     33          1           0       -3.552942   -1.166010    2.159004
     34          1           0       -4.344979    0.404868    2.390253
     35          1           0       -5.448402   -1.286822    0.577274
     36          1           0       -5.173705    0.385917    0.068053
     37          1           0       -3.438860   -2.064438   -0.556101
     38          1           0       -3.897729   -0.756486   -1.646151
 ---------------------------------------------------------------------

 SCF Done:  E(UB3LYP) =  -822.834153513     A.U. after   33 cycles
 SCF Done:  E(UB3LYP) =  -822.834153513     a.u. after    1 cycles

 The electronic state is 2-A.
 Alpha  occ. eigenvalues --  -18.97493 -14.26572 -14.23335 -14.17736 -10.16389
 Alpha  occ. eigenvalues --  -10.11690 -10.10506 -10.09996 -10.09523 -10.09074
 Alpha  occ. eigenvalues --  -10.08926 -10.07634 -10.07577 -10.07081 -10.06648
 Alpha  occ. eigenvalues --  -10.06614 -10.06556 -10.05984 -10.05926  -0.93210
 Alpha  occ. eigenvalues --   -0.91050  -0.83733  -0.79419  -0.72587  -0.69540
 Alpha  occ. eigenvalues --   -0.68089  -0.65409  -0.64040  -0.62477  -0.59138
 Alpha  occ. eigenvalues --   -0.55567  -0.54206  -0.51015  -0.50793  -0.48983
 Alpha  occ. eigenvalues --   -0.46705  -0.45007  -0.41772  -0.40480  -0.39170
 Alpha  occ. eigenvalues --   -0.38065  -0.36353  -0.35448  -0.34857  -0.33746
 Alpha  occ. eigenvalues --   -0.33203  -0.33060  -0.32003  -0.31820  -0.30961
 Alpha  occ. eigenvalues --   -0.30319  -0.29864  -0.28830  -0.27834  -0.26486
 Alpha  occ. eigenvalues --   -0.26348  -0.25674  -0.25537  -0.25452  -0.25131
 Alpha  occ. eigenvalues --   -0.24747  -0.23797  -0.22326  -0.19674  -0.17108
 Alpha  occ. eigenvalues --   -0.15020  -0.14087  -0.12913  -0.10250   0.04372
 Alpha virt. eigenvalues --    0.05816   0.07159   0.07407   0.07996   0.08129
 Alpha virt. eigenvalues --    0.08541   0.08880   0.09573   0.10346   0.10466
 Alpha virt. eigenvalues --    0.10990   0.11347   0.11789   0.12280   0.12429

  Beta  occ. eigenvalues --  -18.97444 -14.26371 -14.23336 -14.17699 -10.16352
  Beta  occ. eigenvalues --  -10.11704 -10.10500 -10.09989 -10.09528 -10.09091
  Beta  occ. eigenvalues --  -10.08698 -10.07606 -10.07549 -10.07071 -10.06719
  Beta  occ. eigenvalues --  -10.06625 -10.06389 -10.05977 -10.05749  -0.93100
  Beta  occ. eigenvalues --   -0.90846  -0.83701  -0.79244  -0.72322  -0.69478
  Beta  occ. eigenvalues --   -0.68028  -0.65237  -0.63989  -0.62390  -0.58924
  Beta  occ. eigenvalues --   -0.55488  -0.54117  -0.50908  -0.50712  -0.48848
  Beta  occ. eigenvalues --   -0.46597  -0.44942  -0.41634  -0.40430  -0.39051
  Beta  occ. eigenvalues --   -0.37948  -0.36215  -0.35188  -0.34795  -0.33531
  Beta  occ. eigenvalues --   -0.33149  -0.32959  -0.31904  -0.31775  -0.30769
  Beta  occ. eigenvalues --   -0.30226  -0.29803  -0.28781  -0.27725  -0.26384
  Beta  occ. eigenvalues --   -0.26287  -0.25577  -0.25486  -0.25387  -0.25053
  Beta  occ. eigenvalues --   -0.24687  -0.23755  -0.21885  -0.18890  -0.17021
  Beta  occ. eigenvalues --   -0.14942  -0.13988  -0.12516  -0.09525
  Beta virt. eigenvalues --    0.06639   0.07212   0.07566   0.07955   0.08492
  Beta virt. eigenvalues --    0.08540   0.08855   0.09096   0.09703   0.10417
  Beta virt. eigenvalues --    0.10551   0.11125   0.11473   0.11999   0.12380

 Mulliken charges and spin densities:
               1          2
     1  C   -0.415288  -0.291087
     2  C   -0.275070  -0.204568
     3  C    0.264148   0.091932
     4  C    0.126477   0.072040
     5  N    0.228447   0.047034
     6  C    0.075460   0.204039
     7  C   -0.450337  -0.071419
     8  C   -0.596053   0.174296
     9  C    0.398829   0.053610
    10  C   -0.302969   0.017760
    11  N    0.041092   0.039492
    12  C   -0.715097  -0.016471
    13  C   -0.216405   0.056593
    14  O   -0.329107   0.014416
    15  N    0.088831   0.112661
    16  C   -0.223203   0.083650
    17  C    0.399521  -0.956255
    18  C    0.197667  -0.584617
    19  C    0.048503  -0.207054
    20  H    0.156634   0.006867
    21  H   -0.036992   0.160546
    22  H    0.118419   0.025800
    23  H   -0.009597   0.186846
    24  H    0.019502   0.171487
    25  H    0.185915  -0.002750
    26  H    0.139038   0.004627
    27  H    0.113785  -0.010416
    28  H    0.156384   0.001382
    29  H    0.130314   0.032388
    30  H    0.114827   0.001628
    31  H    0.054304   0.102718
    32  H    0.172556   0.022321
    33  H    0.192206  -0.057611
    34  H   -0.652558   0.841730
    35  H   -0.207657   0.369924
    36  H   -0.222787   0.375776
    37  H    0.150551   0.017590
    38  H    0.079712   0.113096
 Sum of Mulliken charges =  -1.00000   1.00000

 Dipole moment (field-independent basis, Debye):
    X=              4.8327    Y=             -1.7660    Z=             -0.3454  Tot=              5.1568
 Quadrupole moment (field-independent basis, Debye-Ang):
   XX=           -191.6224   YY=           -148.0935   ZZ=           -142.2719
   XY=              5.9167   XZ=              8.0557   YZ=             -7.7027

 Summary of Natural Population Analysis:

                                       Natural Population
                Natural  -----------------------------------------------
    Atom  No    Charge         Core      Valence    Rydberg      Total
 -----------------------------------------------------------------------
      C    1   -0.28032      0.99967     2.27633    0.00433     3.28032
      C    2   -0.20852      0.99960     2.19932    0.00960     3.20852
      C    3    0.09121      0.99952     1.89467    0.01460     2.90879
      C    4   -0.00853      0.99943     1.99729    0.01180     3.00853
      N    5   -0.14885      0.99959     2.64112    0.00814     3.64885
      C    6    0.05786      0.99957     1.93244    0.01013     2.94214
      C    7   -0.14551      0.99958     2.13717    0.00875     3.14551
      C    8   -0.06981      0.99953     2.06099    0.00929     3.06981
      C    9   -0.00880      0.99948     2.00101    0.00831     3.00880
      C   10    0.18858      0.99955     1.79760    0.01427     2.81142
      N   11   -0.27251      0.99968     2.76389    0.00894     3.77251
      C   12   -0.28911      0.99965     2.28502    0.00444     3.28911
      C   13    0.33184      0.99958     1.64801    0.02056     2.66816
      O   14   -0.33006      0.99989     3.32509    0.00509     4.33006
      N   15   -0.25625      0.99966     2.74728    0.00932     3.75625
      C   16   -0.08426      0.99962     2.07444    0.01020     3.08426
      C   17   -0.19298      0.99964     2.18485    0.00849     3.19298
      C   18   -0.19687      0.99964     2.18891    0.00832     3.19687
      C   19   -0.08394      0.99963     2.07295    0.01136     3.08394
      H   20    0.10487      0.00000     0.39390    0.00123     0.39513
      H   21    0.09344      0.00000     0.40567    0.00089     0.40656
      H   22    0.09594      0.00000     0.40311    0.00095     0.40406
      H   23    0.10239      0.00000     0.39615    0.00147     0.39761
      H   24    0.10373      0.00000     0.39467    0.00160     0.39627
      H   25    0.11248      0.00000     0.38644    0.00108     0.38752
      H   26    0.09908      0.00000     0.40003    0.00089     0.40092
      H   27    0.09173      0.00000     0.40739    0.00089     0.40827
      H   28    0.10538      0.00000     0.39359    0.00103     0.39462
      H   29    0.10540      0.00000     0.39336    0.00124     0.39460
      H   30    0.09396      0.00000     0.40524    0.00080     0.40604
      H   31    0.09450      0.00000     0.40361    0.00189     0.40550
      H   32    0.10423      0.00000     0.39444    0.00133     0.39577
      H   33    0.09368      0.00000     0.40520    0.00112     0.40632
      H   34    0.10662      0.00000     0.39106    0.00232     0.39338
      H   35    0.10153      0.00000     0.39756    0.00091     0.39847
      H   36    0.09941      0.00000     0.39857    0.00202     0.40059
      H   37    0.09916      0.00000     0.39961    0.00123     0.40084
      H   38    0.09932      0.00000     0.39968    0.00100     0.40068
 =======================================================================
   * Total *   -0.00000     18.99249    49.79768    0.20983    69.00000

 Normal termination of Gaussian 16 at Sat Dec 12 10:47:00 2020.
