 Gaussian 16, Revision A.03,

 -----------------------------------------------------------
 # opt freq B3LYP/6-31G(d) empiricaldispersion=gd3bj scf=xqc
 -----------------------------------------------------------

 ------------------------------
 CID_10703585_JID_4442_neutraal
 ------------------------------
 Symbolic Z-matrix:
 Charge =  0 Multiplicity = 1

 SCF Done:  E(RB3LYP) =  -975.071779116     A.U. after   15 cycles
 SCF Done:  E(RB3LYP) =  -975.073399098     A.U. after   13 cycles
 SCF Done:  E(RB3LYP) =  -975.071305455     A.U. after   14 cycles
 SCF Done:  E(RB3LYP) =  -975.074546308     A.U. after   12 cycles
 SCF Done:  E(RB3LYP) =  -975.074865108     A.U. after   13 cycles
 SCF Done:  E(RB3LYP) =  -975.075047048     A.U. after   11 cycles
 SCF Done:  E(RB3LYP) =  -975.075018275     A.U. after   13 cycles
 SCF Done:  E(RB3LYP) =  -975.075047135     A.U. after   12 cycles
 SCF Done:  E(RB3LYP) =  -975.075091197     A.U. after   11 cycles
 SCF Done:  E(RB3LYP) =  -975.075094743     A.U. after    9 cycles
 SCF Done:  E(RB3LYP) =  -975.075097423     A.U. after   10 cycles
 SCF Done:  E(RB3LYP) =  -975.075098435     A.U. after   10 cycles
 SCF Done:  E(RB3LYP) =  -975.075098843     A.U. after    9 cycles
 SCF Done:  E(RB3LYP) =  -975.075098886     A.U. after    8 cycles
 SCF Done:  E(RB3LYP) =  -975.075098899     A.U. after    7 cycles
 Optimization completed.
    -- Stationary point found.
 Normal termination of Gaussian 16 at Thu Dec 10 09:50:06 2020.

 --------------------------------------------------------------------
 #N Geom=AllCheck Guess=TCheck SCRF=Check GenChk RB3LYP/6-31G(d) Freq
 --------------------------------------------------------------------

 Structure from the checkpoint file:  "JID_4442.chk"
 ------------------------------
 CID_10703585_JID_4442_neutraal
 ------------------------------
 Charge =  0 Multiplicity = 1

 SCF Done:  E(RB3LYP) =  -975.075098899     A.U. after    1 cycles

  Exact polarizability: 141.688 -23.528 126.324  -6.366  -2.006 119.458
 Approx polarizability: 196.602 -49.519 206.386 -11.468   0.669 209.635

                      1                      2                      3
                      A                      A                      A
 Frequencies --     22.3585                29.2618                44.4238
 Red. masses --      4.0993                 4.6145                 4.6819
 Frc consts  --      0.0012                 0.0023                 0.0054
 IR Inten    --      1.4111                 5.0277                 0.2814

                      4                      5                      6
                      A                      A                      A
 Frequencies --     58.2259                85.1781                99.6618
 Red. masses --      4.4557                 8.2242                 5.1158
 Frc consts  --      0.0089                 0.0352                 0.0299
 IR Inten    --      0.6730                 4.2243                 2.0566

                      7                      8                      9
                      A                      A                      A
 Frequencies --    146.1353               165.7053               205.2080
 Red. masses --      4.2505                 1.0537                 5.5118
 Frc consts  --      0.0535                 0.0170                 0.1368
 IR Inten    --      7.7822                 0.4805                 0.5478

                     10                     11                     12
                      A                      A                      A
 Frequencies --    258.3844               282.5518               306.3091
 Red. masses --      3.3330                 3.8413                 5.7634
 Frc consts  --      0.1311                 0.1807                 0.3186
 IR Inten    --      2.6302                10.2557                 1.6422

                     13                     14                     15
                      A                      A                      A
 Frequencies --    367.6206               379.2039               416.0413
 Red. masses --      3.3056                 4.0015                 4.6586
 Frc consts  --      0.2632                 0.3390                 0.4751
 IR Inten    --      3.9178                 2.3244                 2.2152

                     16                     17                     18
                      A                      A                      A
 Frequencies --    421.4220               484.7120               514.9575
 Red. masses --      3.8689                 2.2082                 3.8165
 Frc consts  --      0.4048                 0.3057                 0.5963
 IR Inten    --      1.1521                 3.8033                 4.9176

                     19                     20                     21
                      A                      A                      A
 Frequencies --    572.2547               631.0315               632.9592
 Red. masses --      4.7339                 4.0893                 5.0899
 Frc consts  --      0.9134                 0.9594                 1.2015
 IR Inten    --     16.4390                 3.4528                 1.9368

                     22                     23                     24
                      A                      A                      A
 Frequencies --    707.8720               714.6675               743.0183
 Red. masses --      2.2000                 5.8993                 3.3496
 Frc consts  --      0.6495                 1.7752                 1.0895
 IR Inten    --     21.4658                 3.2490                 0.7777

                     25                     26                     27
                      A                      A                      A
 Frequencies --    764.8337               832.6823               857.3019
 Red. masses --      1.6089                 2.7673                 1.2432
 Frc consts  --      0.5545                 1.1305                 0.5383
 IR Inten    --     32.2594                11.7486                 0.1290

                     28                     29                     30
                      A                      A                      A
 Frequencies --    881.7851               905.8775               932.6492
 Red. masses --      2.6531                 1.7279                 1.3419
 Frc consts  --      1.2154                 0.8354                 0.6877
 IR Inten    --     11.5190                 1.3346                 1.9393

                     31                     32                     33
                      A                      A                      A
 Frequencies --    972.2524               974.3405              1002.6341
 Red. masses --      1.6981                 1.3818                 1.2662
 Frc consts  --      0.9457                 0.7729                 0.7500
 IR Inten    --      9.5190                 0.5946                 0.0666

                     34                     35                     36
                      A                      A                      A
 Frequencies --   1018.0343              1021.2808              1053.9105
 Red. masses --      1.8284                 6.0351                 3.0445
 Frc consts  --      1.1164                 3.7087                 1.9924
 IR Inten    --      4.6347                 4.1559                 3.3082

                     37                     38                     39
                      A                      A                      A
 Frequencies --   1074.8108              1108.5966              1114.9548
 Red. masses --      1.9602                 1.5930                 2.6351
 Frc consts  --      1.3342                 1.1535                 1.9301
 IR Inten    --      2.6439                 3.0468                 0.1533

                     40                     41                     42
                      A                      A                      A
 Frequencies --   1130.8502              1179.9136              1195.4733
 Red. masses --      2.4728                 1.3897                 1.0970
 Frc consts  --      1.8631                 1.1399                 0.9237
 IR Inten    --     11.5082                13.4705                 0.0491

                     43                     44                     45
                      A                      A                      A
 Frequencies --   1214.0065              1220.0763              1229.2629
 Red. masses --      1.1379                 1.8974                 1.4135
 Frc consts  --      0.9881                 1.6641                 1.2585
 IR Inten    --      2.2616                71.2958                 2.5226

                     46                     47                     48
                      A                      A                      A
 Frequencies --   1330.3547              1333.0170              1359.0070
 Red. masses --      1.6079                 2.3752                 2.0820
 Frc consts  --      1.6767                 2.4867                 2.2655
 IR Inten    --     26.4101                 2.0239                 2.8048

                     49                     50                     51
                      A                      A                      A
 Frequencies --   1390.7499              1410.5858              1425.5700
 Red. masses --      1.4306                 1.4059                 1.2202
 Frc consts  --      1.6303                 1.6482                 1.4610
 IR Inten    --     31.3648                52.7244                16.6604

                     52                     53                     54
                      A                      A                      A
 Frequencies --   1485.9011              1488.4465              1495.0411
 Red. masses --      1.2207                 1.7666                 1.0557
 Frc consts  --      1.5879                 2.3060                 1.3903
 IR Inten    --     15.2856                 5.7719                 7.4932

                     55                     56                     57
                      A                      A                      A
 Frequencies --   1503.8395              1528.2501              1637.2038
 Red. masses --      1.0537                 2.0724                 5.4727
 Frc consts  --      1.4041                 2.8517                 8.6428
 IR Inten    --      9.5219                 9.9312                 1.1602

                     58                     59                     60
                      A                      A                      A
 Frequencies --   1646.4874              1810.6533              1817.6191
 Red. masses --      5.4553                 9.9331                10.1004
 Frc consts  --      8.7133                19.1870                19.6604
 IR Inten    --      1.2413               141.0887               119.1853

                     61                     62                     63
                      A                      A                      A
 Frequencies --   2953.9885              3050.2933              3062.4737
 Red. masses --      1.0864                 1.0376                 1.0666
 Frc consts  --      5.5852                 5.6881                 5.8940
 IR Inten    --     87.2990                 1.2662                 5.2807

                     64                     65                     66
                      A                      A                      A
 Frequencies --   3094.8583              3111.0175              3134.7966
 Red. masses --      1.0837                 1.0995                 1.0948
 Frc consts  --      6.1155                 6.2698                 6.3386
 IR Inten    --      1.5114                 7.7075                 3.9156

                     67                     68                     69
                      A                      A                      A
 Frequencies --   3168.3181              3188.6772              3198.3322
 Red. masses --      1.1025                 1.0854                 1.0887
 Frc consts  --      6.5206                 6.5020                 6.5614
 IR Inten    --     12.6186                 0.4087                 7.5934

                     70                     71                     72
                      A                      A                      A
 Frequencies --   3208.6587              3215.7519              3222.4375
 Red. masses --      1.0925                 1.0950                 1.0959
 Frc consts  --      6.6268                 6.6718                 6.7048
 IR Inten    --     19.8608                16.3771                 5.4632

 - Thermochemistry -
 -------------------
 Temperature   298.150 Kelvin.  Pressure   1.00000 Atm.
 Atom     1 has atomic number  6 and mass  12.00000

 Molecular mass:   208.05580 amu.
 Principal axes and moments of inertia in atomic units:
                           1         2         3
     Eigenvalues --  1819.800714628.861354981.41707
           X            0.99997   0.00413  -0.00714
           Y           -0.00462   0.99751  -0.07044
           Z            0.00683   0.07047   0.99749
 This molecule is an asymmetric top.
 Rotational symmetry number  1.
 Warning -- assumption of classical behavior for rotation
           may cause significant error
 Rotational temperatures (Kelvin)      0.04760     0.01871     0.01739
 Rotational constants (GHZ):           0.99172     0.38989     0.36229
 Zero-point vibrational energy     539797.1 (Joules/Mol)
                                  129.01459 (Kcal/Mol)
 Warning -- explicit consideration of  19 degrees of freedom as
           vibrations may cause significant error
 Vibrational temperatures:     32.17    42.10    63.92    83.77   122.55
          (Kelvin)            143.39   210.26   238.41   295.25   371.76
                              406.53   440.71   528.92   545.59   598.59
                              606.33   697.39   740.91   823.35   907.91
                              910.69  1018.47  1028.25  1069.04  1100.43
                             1198.04  1233.47  1268.69  1303.36  1341.87
                             1398.85  1401.86  1442.57  1464.72  1469.40
                             1516.34  1546.41  1595.02  1604.17  1627.04
                             1697.63  1720.02  1746.68  1755.42  1768.64
                             1914.08  1917.91  1955.31  2000.98  2029.52
                             2051.08  2137.88  2141.54  2151.03  2163.69
                             2198.81  2355.57  2368.93  2605.13  2615.15
                             4250.13  4388.69  4406.22  4452.81  4476.06
                             4510.27  4558.50  4587.80  4601.69  4616.54
                             4626.75  4636.37

 Zero-point correction=                           0.205598 (Hartree/Particle)
 Thermal correction to Energy=                    0.219853
 Thermal correction to Enthalpy=                  0.220797
 Thermal correction to Gibbs Free Energy=         0.161628
 Sum of electronic and zero-point Energies=           -974.869501
 Sum of electronic and thermal Energies=              -974.855246
 Sum of electronic and thermal Enthalpies=            -974.854302
 Sum of electronic and thermal Free Energies=         -974.913471

                     E (Thermal)             CV                S
                      KCal/Mol        Cal/Mol-Kelvin    Cal/Mol-Kelvin
 Total                  137.960             51.209            124.532
 Electronic               0.000              0.000              0.000
 Translational            0.889              2.981             41.902
 Rotational               0.889              2.981             32.106
 Vibrational            136.182             45.247             50.524
 Vibration     1          0.593              1.985              6.413
 Vibration     2          0.593              1.984              5.879
 Vibration     3          0.595              1.980              5.051
 Vibration     4          0.596              1.974              4.516
 Vibration     5          0.601              1.959              3.768
 Vibration     6          0.604              1.949              3.461
 Vibration     7          0.617              1.907              2.722
 Vibration     8          0.624              1.885              2.484
 Vibration     9          0.640              1.832              2.086
 Vibration    10          0.667              1.749              1.673
 Vibration    11          0.682              1.706              1.518
 Vibration    12          0.697              1.662              1.382
 Vibration    13          0.740              1.539              1.090
 Vibration    14          0.749              1.514              1.042
 Vibration    15          0.779              1.435              0.906
 Vibration    16          0.784              1.424              0.887
 Vibration    17          0.841              1.284              0.697
 Vibration    18          0.870              1.217              0.622
 Vibration    19          0.928              1.091              0.500

                           ! Non-Optimized Parameters !
 Normal termination of Gaussian 16 at Thu Dec 10 09:57:34 2020.

 ----------------------------------------------------------------------
 # B3LYP/6-311++G(d,p) empiricaldispersion=gd3bj scf=xqc pop=npa geom=c
 heck
 ----------------------------------------------------------------------

 --------------------------------------
 CID_10703585_JID_4442_Energie_neutraal
 --------------------------------------
 Structure from the checkpoint file:  "JID_4442.chk"
 Charge =  0 Multiplicity = 1

 SCF Done:  E(RB3LYP) =  -975.265462860     A.U. after   16 cycles
 Normal termination of Gaussian 16 at Thu Dec 10 10:01:14 2020.

 ----------------------------------------------------------------------
 # B3LYP/6-311++G(d,p) empiricaldispersion=gd3bj scf=xqc pop=npa geom=c
 heck
 ----------------------------------------------------------------------

 ------------------------------------
 CID_10703585_JID_4442_Energie_kation
 ------------------------------------
 Structure from the checkpoint file:  "JID_4442.chk"
 Charge =  1 Multiplicity = 2

 SCF Done:  E(UB3LYP) =  -974.949675309     A.U. after   31 cycles
 Normal termination of Gaussian 16 at Thu Dec 10 10:11:47 2020.
 Gaussian 16:  ES64L-G16RevA.03 25-Dec-2016

 ----------------------------------------------------------------------
 # B3LYP/6-311++G(d,p) empiricaldispersion=gd3bj scf=xqc pop=npa geom=c
 heck
 ----------------------------------------------------------------------

 -----------------------------------
 CID_10703585_JID_4442_Energie_anion
 -----------------------------------
 Structure from the checkpoint file:  "JID_4442.chk"
 Charge = -1 Multiplicity = 2

                         Standard orientation:
 ---------------------------------------------------------------------
 Center     Atomic      Atomic             Coordinates (Angstroms)
 Number     Number       Type             X           Y           Z
 ---------------------------------------------------------------------
      1          6           0        3.035842    2.250065    0.037029
      2          6           0        2.854365    0.782944   -0.274912
      3          8           0        3.760080   -0.024602   -0.186116
      4          6           0        1.454822    0.350551   -0.712334
      5          6           0        1.172367   -1.079077   -0.278460
      6          6           0        1.142011   -1.211186    1.230149
      7          8           0        1.161429   -0.263619    1.986081
      8         16           0       -0.414234   -1.783646   -0.932018
      9          6           0       -1.590731   -0.542470   -0.388578
     10          6           0       -2.104186   -0.563028    0.913832
     11          6           0       -3.023601    0.405279    1.315248
     12          6           0       -3.444280    1.388160    0.417938
     13          6           0       -2.943647    1.403230   -0.884733
     14          6           0       -2.017095    0.442077   -1.288656
     15          1           0        4.094835    2.484587    0.159731
     16          1           0        2.501454    2.468213    0.970475
     17          1           0        2.593818    2.879761   -0.744274
     18          1           0        0.702688    1.030778   -0.305445
     19          1           0        1.405280    0.425072   -1.806335
     20          1           0        1.938471   -1.757991   -0.668652
     21          1           0        1.057747   -2.251270    1.606033
     22          1           0       -1.784112   -1.333862    1.606575
     23          1           0       -3.413650    0.388634    2.328700
     24          1           0       -4.163580    2.138770    0.732517
     25          1           0       -3.272085    2.164059   -1.587052
     26          1           0       -1.620388    0.448055   -2.298844
 ---------------------------------------------------------------------

 SCF Done:  E(UB3LYP) =  -975.264049797     A.U. after   33 cycles
 SCF Done:  E(UB3LYP) =  -975.264049797     a.u. after    1 cycles

 The electronic state is 2-A.
 Alpha  occ. eigenvalues --  -88.71659 -18.99817 -18.96592 -10.14691 -10.09777
 Alpha  occ. eigenvalues --  -10.07796 -10.07290 -10.06535 -10.06017 -10.05904
 Alpha  occ. eigenvalues --  -10.05778 -10.05603 -10.05255 -10.05169  -7.80247
 Alpha  occ. eigenvalues --   -5.76630  -5.76282  -5.75637  -0.93156  -0.90123
 Alpha  occ. eigenvalues --   -0.74286  -0.69634  -0.65381  -0.63169  -0.63029
 Alpha  occ. eigenvalues --   -0.58121  -0.53156  -0.48957  -0.46698  -0.43759
 Alpha  occ. eigenvalues --   -0.40841  -0.39277  -0.37426  -0.35779  -0.34124
 Alpha  occ. eigenvalues --   -0.33650  -0.33064  -0.32834  -0.30840  -0.30300
 Alpha  occ. eigenvalues --   -0.29403  -0.27974  -0.27482  -0.26771  -0.25488
 Alpha  occ. eigenvalues --   -0.24469  -0.23588  -0.23199  -0.21893  -0.20099
 Alpha  occ. eigenvalues --   -0.14437  -0.14160  -0.13887  -0.12182  -0.10592
 Alpha  occ. eigenvalues --    0.04967
 Alpha virt. eigenvalues --    0.07147   0.07851   0.08570   0.09014   0.09142
 Alpha virt. eigenvalues --    0.09884   0.10197   0.10717   0.11009   0.11491
 Alpha virt. eigenvalues --    0.12574   0.12877   0.13145   0.13808   0.14913

  Beta  occ. eigenvalues --  -88.71619 -18.99806 -18.96236 -10.14625 -10.09487
  Beta  occ. eigenvalues --  -10.07720 -10.07169 -10.06525 -10.06016 -10.05947
  Beta  occ. eigenvalues --  -10.05762 -10.05569 -10.05080 -10.05047  -7.80203
  Beta  occ. eigenvalues --   -5.76537  -5.76255  -5.75607  -0.93106  -0.89463
  Beta  occ. eigenvalues --   -0.74073  -0.69417  -0.65209  -0.62993  -0.62837
  Beta  occ. eigenvalues --   -0.57932  -0.52681  -0.48885  -0.46362  -0.43432
  Beta  occ. eigenvalues --   -0.40617  -0.39113  -0.37271  -0.35653  -0.33979
  Beta  occ. eigenvalues --   -0.33527  -0.32960  -0.32687  -0.30756  -0.30016
  Beta  occ. eigenvalues --   -0.29101  -0.27843  -0.27280  -0.26238  -0.25119
  Beta  occ. eigenvalues --   -0.23925  -0.23333  -0.23100  -0.20866  -0.19809
  Beta  occ. eigenvalues --   -0.14306  -0.13681  -0.13335  -0.11802  -0.10358
  Beta virt. eigenvalues --    0.07375   0.08109   0.08848   0.09227   0.09340
  Beta virt. eigenvalues --    0.09882   0.10085   0.10748   0.11088   0.11282
  Beta virt. eigenvalues --    0.11932   0.12749   0.12872   0.13218   0.14057

 Mulliken charges and spin densities:
               1          2
     1  C   -0.291290  -0.353513
     2  C   -0.068170   0.161301
     3  O   -0.279735   0.005380
     4  C   -0.269190  -0.282217
     5  C    0.268393   0.238914
     6  C   -0.494251   0.220925
     7  O   -0.247745   0.101296
     8  S   -0.048220  -0.197132
     9  C    1.068451  -0.071761
    10  C   -0.588877   0.282300
    11  C   -0.403134   0.115538
    12  C   -0.058206  -0.169356
    13  C   -0.202517  -0.083511
    14  C   -0.207924  -0.086573
    15  H    0.072178   0.072497
    16  H    0.140019   0.044091
    17  H   -0.172423   0.321825
    18  H    0.342839  -0.131238
    19  H   -0.043242   0.223658
    20  H    0.286575  -0.004285
    21  H    0.056721  -0.005865
    22  H    0.180922  -0.010177
    23  H    0.120957   0.021927
    24  H    0.074897   0.034725
    25  H   -0.192179   0.339197
    26  H   -0.044850   0.212055
 Sum of Mulliken charges =  -1.00000   1.00000

 Dipole moment (field-independent basis, Debye):
    X=             -1.3075    Y=             -0.0824    Z=              0.0909  Tot=              1.3132
 Quadrupole moment (field-independent basis, Debye-Ang):
   XX=           -138.3154   YY=           -112.7736   ZZ=           -112.3187
   XY=              1.1236   XZ=             -6.2964   YZ=              1.8820

 Summary of Natural Population Analysis:

                                       Natural Population
                Natural  -----------------------------------------------
    Atom  No    Charge         Core      Valence    Rydberg      Total
 -----------------------------------------------------------------------
      C    1   -0.33599      0.99961     2.33138    0.00499     3.33599
      C    2    0.31112      0.99969     1.66688    0.02231     2.68888
      O    3   -0.29610      0.99987     3.28970    0.00653     4.29610
      C    4   -0.24962      0.99955     2.23858    0.01150     3.24962
      C    5   -0.19643      0.99954     2.18283    0.01405     3.19643
      C    6    0.25046      0.99970     1.72853    0.02132     2.74954
      O    7   -0.25858      0.99988     3.25166    0.00704     4.25858
      S    8    0.11301      4.99955     2.86791    0.01953     7.88699
      C    9   -0.07865      0.99940     2.06531    0.01394     3.07865
      C   10   -0.07497      0.99949     2.06586    0.00962     3.07497
      C   11   -0.11328      0.99956     2.10457    0.00914     3.11328
      C   12   -0.07587      0.99957     2.06530    0.01100     3.07587
      C   13   -0.10549      0.99956     2.09572    0.01021     3.10549
      C   14   -0.10019      0.99949     2.08935    0.01135     3.10019
      H   15    0.10437      0.00000     0.39452    0.00112     0.39563
      H   16    0.11838      0.00000     0.38078    0.00084     0.38162
      H   17    0.10701      0.00000     0.39166    0.00133     0.39299
      H   18    0.11630      0.00000     0.38191    0.00178     0.38370
      H   19    0.11387      0.00000     0.38486    0.00127     0.38613
      H   20    0.11751      0.00000     0.38157    0.00092     0.38249
      H   21    0.04280      0.00000     0.45507    0.00212     0.45720
      H   22    0.10258      0.00000     0.39635    0.00108     0.39742
      H   23    0.09576      0.00000     0.40337    0.00087     0.40424
      H   24    0.09307      0.00000     0.40619    0.00074     0.40693
      H   25    0.09654      0.00000     0.40258    0.00087     0.40346
      H   26    0.10237      0.00000     0.39634    0.00129     0.39763
 =======================================================================
   * Total *   -0.00000     17.99447    36.81877    0.18677    55.00000

 Normal termination of Gaussian 16 at Thu Dec 10 10:22:49 2020.
