 Gaussian 16, Revision A.03,

 -----------------------------------------------------------
 # opt freq B3LYP/6-31G(d) empiricaldispersion=gd3bj scf=xqc
 -----------------------------------------------------------

 ------------------------------
 CID_82302177_JID_9543_neutraal
 ------------------------------
 Symbolic Z-matrix:
 Charge =  0 Multiplicity = 1

 SCF Done:  E(RB3LYP) =  -894.422295326     A.U. after   15 cycles
 SCF Done:  E(RB3LYP) =  -894.427277300     A.U. after   13 cycles
 SCF Done:  E(RB3LYP) =  -894.425021850     A.U. after   13 cycles
 SCF Done:  E(RB3LYP) =  -894.428523968     A.U. after   13 cycles
 SCF Done:  E(RB3LYP) =  -894.429929539     A.U. after   14 cycles
 SCF Done:  E(RB3LYP) =  -894.431079639     A.U. after   12 cycles
 SCF Done:  E(RB3LYP) =  -894.430848925     A.U. after   13 cycles
 SCF Done:  E(RB3LYP) =  -894.432205600     A.U. after   12 cycles
 SCF Done:  E(RB3LYP) =  -894.432963548     A.U. after   13 cycles
 SCF Done:  E(RB3LYP) =  -894.433102885     A.U. after   12 cycles
 SCF Done:  E(RB3LYP) =  -894.433151261     A.U. after   11 cycles
 SCF Done:  E(RB3LYP) =  -894.433160260     A.U. after    9 cycles
 SCF Done:  E(RB3LYP) =  -894.433163368     A.U. after    9 cycles
 SCF Done:  E(RB3LYP) =  -894.433163695     A.U. after    8 cycles
 SCF Done:  E(RB3LYP) =  -894.433163814     A.U. after    8 cycles
 Optimization completed.
    -- Stationary point found.
 Normal termination of Gaussian 16 at Mon Dec 14 16:53:38 2020.

 --------------------------------------------------------------------
 #N Geom=AllCheck Guess=TCheck SCRF=Check GenChk RB3LYP/6-31G(d) Freq
 --------------------------------------------------------------------

 Structure from the checkpoint file:  "JID_9543.chk"
 ------------------------------
 CID_82302177_JID_9543_neutraal
 ------------------------------
 Charge =  0 Multiplicity = 1

 SCF Done:  E(RB3LYP) =  -894.433163814     A.U. after    1 cycles

  Exact polarizability: 181.322  24.239 143.546 -13.949  13.904 144.032
 Approx polarizability: 259.273  49.084 224.914 -33.243  25.397 249.335

                      1                      2                      3
                      A                      A                      A
 Frequencies --     30.2777                34.3539                50.9827
 Red. masses --      5.8767                 6.4919                 5.7932
 Frc consts  --      0.0032                 0.0045                 0.0089
 IR Inten    --      1.6761                 1.1905                 2.2520

                      4                      5                      6
                      A                      A                      A
 Frequencies --     88.2738                88.4953               135.2104
 Red. masses --      5.5761                 7.7466                 2.8987
 Frc consts  --      0.0256                 0.0357                 0.0312
 IR Inten    --      1.5854                 0.8216                 0.0991

                      7                      8                      9
                      A                      A                      A
 Frequencies --    138.8427               171.8690               240.8246
 Red. masses --      3.9549                 3.3322                 4.5793
 Frc consts  --      0.0449                 0.0580                 0.1565
 IR Inten    --      0.1285                15.7459                 0.9864

                     10                     11                     12
                      A                      A                      A
 Frequencies --    272.2879               284.5619               311.0272
 Red. masses --      3.8123                 3.6887                 3.5952
 Frc consts  --      0.1665                 0.1760                 0.2049
 IR Inten    --      1.0532                 4.7481                13.6291

                     13                     14                     15
                      A                      A                      A
 Frequencies --    329.3923               354.0494               383.7004
 Red. masses --      2.5017                 1.2035                 4.4198
 Frc consts  --      0.1599                 0.0889                 0.3834
 IR Inten    --     16.2153                17.8110                 2.5465

                     16                     17                     18
                      A                      A                      A
 Frequencies --    402.6392               416.5198               469.6786
 Red. masses --      5.0854                 4.6659                 5.1146
 Frc consts  --      0.4857                 0.4769                 0.6648
 IR Inten    --      3.8845                10.1296                 3.9165

                     19                     20                     21
                      A                      A                      A
 Frequencies --    475.8101               510.1393               518.8370
 Red. masses --      3.7564                 2.0897                 1.8234
 Frc consts  --      0.5011                 0.3204                 0.2892
 IR Inten    --      4.9900                 9.1193                49.2850

                     22                     23                     24
                      A                      A                      A
 Frequencies --    523.5811               552.7616               565.7239
 Red. masses --      5.3823                 4.2537                 2.6002
 Frc consts  --      0.8693                 0.7658                 0.4903
 IR Inten    --      5.8752                 4.1521                22.1414

                     25                     26                     27
                      A                      A                      A
 Frequencies --    593.2711               604.9067               627.0288
 Red. masses --      2.0270                 4.0348                 2.9924
 Frc consts  --      0.4204                 0.8699                 0.6932
 IR Inten    --    163.6176                 5.5266                17.8157

                     28                     29                     30
                      A                      A                      A
 Frequencies --    643.5768               668.7855               678.7414
 Red. masses --      2.2484                 3.1770                 5.0730
 Frc consts  --      0.5487                 0.8372                 1.3770
 IR Inten    --    208.3630                42.2774                 4.6125

                     31                     32                     33
                      A                      A                      A
 Frequencies --    699.8291               715.6501               774.5106
 Red. masses --      4.1518                 3.7398                 1.4912
 Frc consts  --      1.1980                 1.1285                 0.5270
 IR Inten    --     12.0757                 8.0290                52.1967

                     34                     35                     36
                      A                      A                      A
 Frequencies --    805.0809               826.8885               833.6942
 Red. masses --      4.1328                 2.5891                 5.0065
 Frc consts  --      1.5782                 1.0430                 2.0502
 IR Inten    --     13.9463                 0.6115                 2.7603

                     37                     38                     39
                      A                      A                      A
 Frequencies --    866.3856               881.5853               906.3705
 Red. masses --      1.4277                 3.5614                 2.7489
 Frc consts  --      0.6314                 1.6308                 1.3305
 IR Inten    --      1.4576                13.8788                 2.6705

                     40                     41                     42
                      A                      A                      A
 Frequencies --    914.0703               932.3626               942.1808
 Red. masses --      3.0809                 2.4075                 1.2470
 Frc consts  --      1.5166                 1.2330                 0.6522
 IR Inten    --      7.5759                 8.2771                 0.4180

                     43                     44                     45
                      A                      A                      A
 Frequencies --    963.7843              1005.5092              1029.9097
 Red. masses --      2.2590                 2.3615                 2.5858
 Frc consts  --      1.2363                 1.4067                 1.6160
 IR Inten    --      4.8290                13.4046                 5.0783

                     46                     47                     48
                      A                      A                      A
 Frequencies --   1068.4947              1072.8792              1092.7254
 Red. masses --      1.9704                 3.3308                 2.3665
 Frc consts  --      1.3254                 2.2589                 1.6649
 IR Inten    --      1.9865                34.5478                71.8583

                     49                     50                     51
                      A                      A                      A
 Frequencies --   1111.5703              1121.1603              1138.2794
 Red. masses --      1.9841                 1.9303                 1.8717
 Frc consts  --      1.4444                 1.4296                 1.4289
 IR Inten    --     16.3054                 8.7998                30.6293

                     52                     53                     54
                      A                      A                      A
 Frequencies --   1182.3214              1187.7366              1214.2242
 Red. masses --      1.2550                 1.2975                 1.6602
 Frc consts  --      1.0336                 1.0784                 1.4422
 IR Inten    --     13.5622                 5.7182                 7.9794

                     55                     56                     57
                      A                      A                      A
 Frequencies --   1223.0497              1244.5428              1259.3443
 Red. masses --      1.4561                 1.7954                 3.4799
 Frc consts  --      1.2833                 1.6384                 3.2517
 IR Inten    --     32.3235               204.1537               111.8481

                     58                     59                     60
                      A                      A                      A
 Frequencies --   1265.2144              1287.2530              1308.0829
 Red. masses --      1.9490                 1.2994                 1.4675
 Frc consts  --      1.8382                 1.2686                 1.4795
 IR Inten    --     65.7170                29.7726                 5.9796

                     61                     62                     63
                      A                      A                      A
 Frequencies --   1317.0122              1328.2003              1347.4959
 Red. masses --      1.5294                 1.9124                 2.1159
 Frc consts  --      1.5630                 1.9877                 2.2636
 IR Inten    --     19.0165                35.9543               121.7148

                     64                     65                     66
                      A                      A                      A
 Frequencies --   1373.5972              1381.1780              1388.8872
 Red. masses --      2.3747                 1.8724                 2.0748
 Frc consts  --      2.6398                 2.1045                 2.3581
 IR Inten    --     27.8294                 0.5479                38.9485

                     67                     68                     69
                      A                      A                      A
 Frequencies --   1391.0597              1413.7172              1429.4520
 Red. masses --      1.5295                 2.7108                 1.4738
 Frc consts  --      1.7438                 3.1921                 1.7742
 IR Inten    --      1.3557                82.0481                49.3215

                     70                     71                     72
                      A                      A                      A
 Frequencies --   1439.0466              1494.6603              1508.7939
 Red. masses --      2.0794                 1.0846                 1.1103
 Frc consts  --      2.5371                 1.4276                 1.4891
 IR Inten    --     51.8816                 4.7309                15.2775

                     73                     74                     75
                      A                      A                      A
 Frequencies --   1514.7041              1529.7282              1531.4177
 Red. masses --      1.1149                 2.2210                 1.4832
 Frc consts  --      1.5071                 3.0622                 2.0494
 IR Inten    --     27.6934                39.3948                35.8625

                     76                     77                     78
                      A                      A                      A
 Frequencies --   1549.8388              1645.7112              1656.4715
 Red. masses --      2.6854                 3.0994                 5.7573
 Frc consts  --      3.8004                 4.9458                 9.3075
 IR Inten    --     95.2700                23.7257                21.2319

                     79                     80                     81
                      A                      A                      A
 Frequencies --   1686.1230              1755.2598              1834.5883
 Red. masses --      1.4876                10.9218                10.7588
 Frc consts  --      2.4918                19.8257                21.3350
 IR Inten    --    174.1446               284.5088               395.8374

                     82                     83                     84
                      A                      A                      A
 Frequencies --   3052.6153              3080.5044              3087.8672
 Red. masses --      1.0662                 1.0671                 1.0678
 Frc consts  --      5.8535                 5.9662                 5.9988
 IR Inten    --     37.6916                 7.0811                24.7824

                     85                     86                     87
                      A                      A                      A
 Frequencies --   3093.3973              3120.3792              3126.2240
 Red. masses --      1.0676                 1.0846                 1.1014
 Frc consts  --      6.0192                 6.2219                 6.3421
 IR Inten    --     20.8094                24.0390                41.1023

                     88                     89                     90
                      A                      A                      A
 Frequencies --   3140.3134              3172.5767              3183.2980
 Red. masses --      1.0991                 1.0983                 1.0989
 Frc consts  --      6.3863                 6.5129                 6.5608
 IR Inten    --     14.6661                 5.0213                 1.5970

                     91                     92                     93
                      A                      A                      A
 Frequencies --   3188.1888              3207.1952              3226.4788
 Red. masses --      1.0877                 1.0910                 1.0943
 Frc consts  --      6.5142                 6.6120                 6.7120
 IR Inten    --      9.7059                15.7031                 8.2886

                     94                     95                     96
                      A                      A                      A
 Frequencies --   3561.3623              3628.1813              3665.9331
 Red. masses --      1.0471                 1.0776                 1.0992
 Frc consts  --      7.8245                 8.3575                 8.7038
 IR Inten    --     23.7768                44.4627                18.8893

 - Thermochemistry -
 -------------------
 Temperature   298.150 Kelvin.  Pressure   1.00000 Atm.
 Atom     1 has atomic number  6 and mass  12.00000

 Molecular mass:   261.11134 amu.
 Principal axes and moments of inertia in atomic units:
                           1         2         3
     Eigenvalues --  3020.792296016.923416506.63791
           X            0.99993   0.00667  -0.00951
           Y           -0.00564   0.99448   0.10476
           Z            0.01015  -0.10470   0.99445
 This molecule is an asymmetric top.
 Rotational symmetry number  1.
 Warning -- assumption of classical behavior for rotation
           may cause significant error
 Rotational temperatures (Kelvin)      0.02867     0.01440     0.01331
 Rotational constants (GHZ):           0.59744     0.29994     0.27737
 Zero-point vibrational energy     730274.1 (Joules/Mol)
                                  174.53970 (Kcal/Mol)
 Warning -- explicit consideration of  26 degrees of freedom as
           vibrations may cause significant error
 Vibrational temperatures:     43.56    49.43    73.35   127.01   127.32
          (Kelvin)            194.54   199.76   247.28   346.49   391.76
                              409.42   447.50   473.92   509.40   552.06
                              579.31   599.28   675.76   684.58   733.98
                              746.49   753.32   795.30   813.95   853.58
                              870.33   902.15   925.96   962.23   976.56
                             1006.90  1029.66  1114.35  1158.33  1189.71
                             1199.50  1246.54  1268.40  1304.07  1315.14
                             1341.46  1355.59  1386.67  1446.70  1481.81
                             1537.33  1543.63  1572.19  1599.30  1613.10
                             1637.73  1701.10  1708.89  1747.00  1759.70
                             1790.62  1811.92  1820.36  1852.07  1882.04
                             1894.89  1910.98  1938.75  1976.30  1987.21
                             1998.30  2001.42  2034.02  2056.66  2070.47
                             2150.48  2170.82  2179.32  2200.94  2203.37
                             2229.87  2367.81  2383.29  2425.95  2525.43
                             2639.56  4392.03  4432.16  4442.75  4450.71
                             4489.53  4497.94  4518.21  4564.63  4580.06
                             4587.09  4614.44  4642.18  5124.01  5220.14
                             5274.46

 Zero-point correction=                           0.278147 (Hartree/Particle)
 Thermal correction to Energy=                    0.294171
 Thermal correction to Enthalpy=                  0.295116
 Thermal correction to Gibbs Free Energy=         0.233778
 Sum of electronic and zero-point Energies=           -894.155017
 Sum of electronic and thermal Energies=              -894.138992
 Sum of electronic and thermal Enthalpies=            -894.138048
 Sum of electronic and thermal Free Energies=         -894.199386

                     E (Thermal)             CV                S
                      KCal/Mol        Cal/Mol-Kelvin    Cal/Mol-Kelvin
 Total                  184.595             63.507            129.096
 Electronic               0.000              0.000              0.000
 Translational            0.889              2.981             42.579
 Rotational               0.889              2.981             33.136
 Vibrational            182.818             57.545             53.381
 Vibration     1          0.594              1.984              5.811
 Vibration     2          0.594              1.983              5.561
 Vibration     3          0.595              1.977              4.779
 Vibration     4          0.601              1.957              3.698
 Vibration     5          0.601              1.957              3.693
 Vibration     6          0.613              1.918              2.871
 Vibration     7          0.614              1.915              2.820
 Vibration     8          0.626              1.877              2.415
 Vibration     9          0.658              1.778              1.797
 Vibration    10          0.675              1.724              1.582
 Vibration    11          0.683              1.702              1.506
 Vibration    12          0.700              1.653              1.357
 Vibration    13          0.712              1.617              1.263
 Vibration    14          0.730              1.567              1.148
 Vibration    15          0.753              1.505              1.025
 Vibration    16          0.768              1.464              0.953
 Vibration    17          0.780              1.434              0.904
 Vibration    18          0.827              1.317              0.738
 Vibration    19          0.832              1.304              0.721
 Vibration    20          0.865              1.228              0.633
 Vibration    21          0.874              1.208              0.613
 Vibration    22          0.879              1.198              0.602
 Vibration    23          0.908              1.134              0.538
 Vibration    24          0.922              1.105              0.513
 Vibration    25          0.951              1.046              0.461
 Vibration    26          0.963              1.021              0.441

                           ! Non-Optimized Parameters !
 Normal termination of Gaussian 16 at Mon Dec 14 17:14:03 2020.

 ----------------------------------------------------------------------
 # B3LYP/6-311++G(d,p) empiricaldispersion=gd3bj scf=xqc pop=npa geom=c
 heck
 ----------------------------------------------------------------------

 --------------------------------------
 CID_82302177_JID_9543_Energie_neutraal
 --------------------------------------
 Structure from the checkpoint file:  "JID_9543.chk"
 Charge =  0 Multiplicity = 1

 SCF Done:  E(RB3LYP) =  -894.690244469     A.U. after   16 cycles
 Normal termination of Gaussian 16 at Mon Dec 14 17:22:50 2020.

 ----------------------------------------------------------------------
 # B3LYP/6-311++G(d,p) empiricaldispersion=gd3bj scf=xqc pop=npa geom=c
 heck
 ----------------------------------------------------------------------

 ------------------------------------
 CID_82302177_JID_9543_Energie_kation
 ------------------------------------
 Structure from the checkpoint file:  "JID_9543.chk"
 Charge =  1 Multiplicity = 2

 SCF Done:  E(UB3LYP) =  -894.406127074     A.U. after   29 cycles
 Normal termination of Gaussian 16 at Mon Dec 14 17:46:05 2020.
 Gaussian 16:  ES64L-G16RevA.03 25-Dec-2016

 ----------------------------------------------------------------------
 # B3LYP/6-311++G(d,p) empiricaldispersion=gd3bj scf=xqc pop=npa geom=c
 heck
 ----------------------------------------------------------------------

 -----------------------------------
 CID_82302177_JID_9543_Energie_anion
 -----------------------------------
 Structure from the checkpoint file:  "JID_9543.chk"
 Charge = -1 Multiplicity = 2

                         Standard orientation:
 ---------------------------------------------------------------------
 Center     Atomic      Atomic             Coordinates (Angstroms)
 Number     Number       Type             X           Y           Z
 ---------------------------------------------------------------------
      1          6           0        3.406492   -0.516796   -0.825749
      2          6           0        3.618853   -0.682235    0.686445
      3          6           0        2.317496   -1.313536    1.186533
      4          8           0        2.093926   -1.804699    2.278091
      5          7           0        1.410000   -1.213756    0.156429
      6          6           0        1.872548   -0.416892   -0.973856
      7          6           0        1.398061    1.047835   -0.825909
      8          8           0        2.200705    1.957052   -0.653713
      9          7           0        0.032823    1.293056   -0.807466
     10          6           0       -0.411318    2.528829   -0.157493
     11          6           0       -0.832190    2.172184    1.261879
     12          8           0       -1.878937    1.192212    1.262689
     13          6           0       -1.894146    0.283876    0.235167
     14          6           0       -2.925962   -0.677181    0.290190
     15          6           0       -3.009513   -1.624877   -0.736331
     16          6           0       -2.120318   -1.591366   -1.811213
     17          6           0       -1.119445   -0.627766   -1.874802
     18          6           0       -0.978458    0.289542   -0.824221
     19          7           0       -3.841313   -0.617048    1.334142
     20          1           0        3.901919    0.360210   -1.240434
     21          1           0        3.748942   -1.409255   -1.358439
     22          1           0        3.737982    0.288368    1.181127
     23          1           0        4.474068   -1.304979    0.958346
     24          1           0        0.436003   -1.442361    0.302610
     25          1           0        1.529574   -0.844233   -1.917503
     26          1           0       -1.249941    2.948720   -0.721116
     27          1           0        0.419522    3.232781   -0.153399
     28          1           0        0.031211    1.776330    1.811710
     29          1           0       -1.231846    3.035564    1.800343
     30          1           0       -3.795539   -2.374096   -0.697829
     31          1           0       -2.222351   -2.315438   -2.613390
     32          1           0       -0.457720   -0.564631   -2.730558
     33          1           0       -4.281349   -1.496730    1.570359
     34          1           0       -3.509200   -0.112244    2.146065
 ---------------------------------------------------------------------

 SCF Done:  E(UB3LYP) =  -894.680122589     A.U. after   33 cycles
 SCF Done:  E(UB3LYP) =  -894.680122589     a.u. after    1 cycles

 The electronic state is 2-A.
 Alpha  occ. eigenvalues --  -19.06263 -18.98931 -18.98847 -14.25260 -14.23374
 Alpha  occ. eigenvalues --  -14.21367 -10.17047 -10.16220 -10.14368 -10.12867
 Alpha  occ. eigenvalues --  -10.11973 -10.11883 -10.11077 -10.10881 -10.07922
 Alpha  occ. eigenvalues --  -10.07520 -10.07105 -10.06638 -10.06216  -0.98138
 Alpha  occ. eigenvalues --   -0.94500  -0.93694  -0.85113  -0.83752  -0.81812
 Alpha  occ. eigenvalues --   -0.73957  -0.68363  -0.68267  -0.64456  -0.63305
 Alpha  occ. eigenvalues --   -0.61486  -0.57045  -0.54264  -0.51059  -0.49515
 Alpha  occ. eigenvalues --   -0.48888  -0.45760  -0.44269  -0.43338  -0.42727
 Alpha  occ. eigenvalues --   -0.40328  -0.39741  -0.37721  -0.37195  -0.36128
 Alpha  occ. eigenvalues --   -0.35354  -0.35081  -0.34593  -0.33025  -0.32626
 Alpha  occ. eigenvalues --   -0.31601  -0.30876  -0.30408  -0.29957  -0.28929
 Alpha  occ. eigenvalues --   -0.28251  -0.27902  -0.26393  -0.26229  -0.24663
 Alpha  occ. eigenvalues --   -0.24001  -0.23216  -0.22093  -0.18858  -0.17594
 Alpha  occ. eigenvalues --   -0.15593  -0.14459  -0.12239  -0.10405   0.04602
 Alpha virt. eigenvalues --    0.05999   0.07159   0.07490   0.08068   0.09082
 Alpha virt. eigenvalues --    0.09238   0.09727   0.10002   0.10448   0.10592
 Alpha virt. eigenvalues --    0.11022   0.11451   0.11687   0.12227   0.12948

  Beta  occ. eigenvalues --  -19.06252 -18.98932 -18.98677 -14.25309 -14.23357
  Beta  occ. eigenvalues --  -14.21316 -10.17048 -10.16018 -10.14366 -10.12839
  Beta  occ. eigenvalues --  -10.11979 -10.11863 -10.11053 -10.10770 -10.07920
  Beta  occ. eigenvalues --  -10.07497 -10.07111 -10.06618 -10.06115  -0.98103
  Beta  occ. eigenvalues --   -0.94261  -0.93628  -0.85013  -0.83721  -0.81727
  Beta  occ. eigenvalues --   -0.73860  -0.68322  -0.68202  -0.64316  -0.63132
  Beta  occ. eigenvalues --   -0.61436  -0.56982  -0.54078  -0.50987  -0.49444
  Beta  occ. eigenvalues --   -0.48865  -0.45639  -0.44177  -0.43284  -0.42621
  Beta  occ. eigenvalues --   -0.40194  -0.39661  -0.37620  -0.37146  -0.36046
  Beta  occ. eigenvalues --   -0.35242  -0.35002  -0.34511  -0.32938  -0.32520
  Beta  occ. eigenvalues --   -0.31520  -0.30759  -0.30248  -0.29916  -0.28857
  Beta  occ. eigenvalues --   -0.28182  -0.27549  -0.26310  -0.26120  -0.24526
  Beta  occ. eigenvalues --   -0.23902  -0.23095  -0.21849  -0.18743  -0.17357
  Beta  occ. eigenvalues --   -0.15581  -0.14346  -0.11868  -0.10146
  Beta virt. eigenvalues --    0.06771   0.07334   0.07627   0.08241   0.08694
  Beta virt. eigenvalues --    0.09220   0.09522   0.09795   0.10159   0.10608
  Beta virt. eigenvalues --    0.11164   0.11211   0.11809   0.12025   0.12371

 Mulliken charges and spin densities:
               1          2
     1  C    0.510216  -1.158550
     2  C   -0.404607   0.009436
     3  C    0.194793  -0.112927
     4  O   -0.359192   0.003738
     5  N   -0.079867  -0.030566
     6  C   -0.120645   0.620778
     7  C   -0.080068  -0.353696
     8  O   -0.337195   0.058334
     9  N    0.317110  -0.027537
    10  C   -0.080693  -0.043664
    11  C   -0.022011  -0.126559
    12  O   -0.135212  -0.006170
    13  C    0.179594  -0.838657
    14  C    0.005647  -0.129326
    15  C   -0.318601   0.467872
    16  C   -0.282716  -0.054767
    17  C    0.168455  -0.130885
    18  C   -0.087258   0.077805
    19  N   -0.354927  -0.023525
    20  H    0.108502   0.087333
    21  H   -0.404317   0.578830
    22  H    0.162699   0.010877
    23  H    0.142047   0.030680
    24  H    0.389798  -0.002446
    25  H   -0.428490   0.696555
    26  H    0.155392   0.001725
    27  H    0.194665   0.007658
    28  H    0.180060   0.007008
    29  H    0.111207   0.077053
    30  H   -0.076680   0.214526
    31  H   -0.011161   0.170289
    32  H    0.018899   0.137910
    33  H   -0.331321   0.594427
    34  H    0.075875   0.186444
 Sum of Mulliken charges =  -1.00000   1.00000

 Dipole moment (field-independent basis, Debye):
    X=              0.5248    Y=              5.4285    Z=             -1.2134  Tot=              5.5871
 Quadrupole moment (field-independent basis, Debye-Ang):
   XX=           -180.5530   YY=           -143.4019   ZZ=           -152.3072
   XY=             -3.7558   XZ=             14.9183   YZ=              7.1946

 Summary of Natural Population Analysis:

                                       Natural Population
                Natural  -----------------------------------------------
    Atom  No    Charge         Core      Valence    Rydberg      Total
 -----------------------------------------------------------------------
      C    1   -0.19029      0.99963     2.18120    0.00945     3.19029
      C    2   -0.23493      0.99960     2.22785    0.00749     3.23493
      C    3    0.34366      0.99968     1.63202    0.02465     2.65634
      O    4   -0.32087      0.99987     3.31527    0.00573     4.32087
      N    5   -0.31977      0.99967     2.81082    0.00929     3.81977
      C    6   -0.04856      0.99957     2.03552    0.01347     3.04856
      C    7    0.37314      0.99963     1.60409    0.02314     2.62686
      O    8   -0.31086      0.99988     3.30584    0.00514     4.31086
      N    9   -0.25968      0.99962     2.74970    0.01036     3.75968
      C   10   -0.10142      0.99962     2.09279    0.00901     3.10142
      C   11   -0.01247      0.99957     2.00220    0.01070     3.01247
      O   12   -0.28058      0.99986     3.27196    0.00876     4.28058
      C   13    0.13100      0.99930     1.85668    0.01302     2.86900
      C   14    0.07463      0.99946     1.91418    0.01173     2.92537
      C   15   -0.11154      0.99953     2.10254    0.00947     3.11154
      C   16   -0.10372      0.99957     2.09495    0.00920     3.10372
      C   17   -0.12751      0.99953     2.11798    0.01000     3.12751
      C   18    0.05805      0.99944     1.93137    0.01114     2.94195
      N   19   -0.39592      0.99971     2.88552    0.01069     3.89592
      H   20    0.11361      0.00000     0.38541    0.00098     0.38639
      H   21    0.10186      0.00000     0.39623    0.00191     0.39814
      H   22    0.11274      0.00000     0.38631    0.00095     0.38726
      H   23    0.10749      0.00000     0.39153    0.00098     0.39251
      H   24    0.20747      0.00000     0.29077    0.00176     0.29253
      H   25    0.11388      0.00000     0.38272    0.00340     0.38612
      H   26    0.09639      0.00000     0.40281    0.00080     0.40361
      H   27    0.12028      0.00000     0.37871    0.00101     0.37972
      H   28    0.08914      0.00000     0.40983    0.00102     0.41086
      H   29    0.09059      0.00000     0.40838    0.00102     0.40941
      H   30    0.09877      0.00000     0.40048    0.00075     0.40123
      H   31    0.09904      0.00000     0.40014    0.00082     0.40096
      H   32    0.10435      0.00000     0.39419    0.00146     0.39565
      H   33    0.18911      0.00000     0.30494    0.00595     0.31089
      H   34    0.19293      0.00000     0.30477    0.00230     0.30707
 =======================================================================
   * Total *   -0.00000     18.99274    49.76970    0.23756    69.00000

 Normal termination of Gaussian 16 at Mon Dec 14 18:13:53 2020.
