 Gaussian 16, Revision A.03,

 -----------------------------------------------------------
 # opt freq B3LYP/6-31G(d) empiricaldispersion=gd3bj scf=xqc
 -----------------------------------------------------------

 ------------------------------
 CID_89265011_JID_6789_neutraal
 ------------------------------
 Symbolic Z-matrix:
 Charge =  0 Multiplicity = 1

 SCF Done:  E(RB3LYP) =  -697.197774639     A.U. after   13 cycles
 SCF Done:  E(RB3LYP) =  -697.202506407     A.U. after   11 cycles
 SCF Done:  E(RB3LYP) =  -697.202931206     A.U. after   11 cycles
 SCF Done:  E(RB3LYP) =  -697.203063228     A.U. after   11 cycles
 SCF Done:  E(RB3LYP) =  -697.203094166     A.U. after   10 cycles
 SCF Done:  E(RB3LYP) =  -697.203111320     A.U. after   10 cycles
 SCF Done:  E(RB3LYP) =  -697.203114256     A.U. after    8 cycles
 SCF Done:  E(RB3LYP) =  -697.203114824     A.U. after    7 cycles
 SCF Done:  E(RB3LYP) =  -697.203115047     A.U. after    8 cycles
 SCF Done:  E(RB3LYP) =  -697.203115407     A.U. after    8 cycles
 SCF Done:  E(RB3LYP) =  -697.203115503     A.U. after    7 cycles
 SCF Done:  E(RB3LYP) =  -697.203115524     A.U. after    6 cycles
 Optimization completed.
    -- Stationary point found.
 Normal termination of Gaussian 16 at Fri Dec 11 00:30:17 2020.

 --------------------------------------------------------------------
 #N Geom=AllCheck Guess=TCheck SCRF=Check GenChk RB3LYP/6-31G(d) Freq
 --------------------------------------------------------------------

 Structure from the checkpoint file:  "JID_6789.chk"
 ------------------------------
 CID_89265011_JID_6789_neutraal
 ------------------------------
 Charge =  0 Multiplicity = 1

 SCF Done:  E(RB3LYP) =  -697.203115524     A.U. after    1 cycles

  Exact polarizability: 182.396  -3.596 132.319   1.865  -2.076 129.591
 Approx polarizability: 230.519  -4.225 192.135   0.364  -8.901 193.451

                      1                      2                      3
                      A                      A                      A
 Frequencies --     10.9861                21.9473                40.1450
 Red. masses --      3.5141                 3.2083                 5.1839
 Frc consts  --      0.0002                 0.0009                 0.0049
 IR Inten    --      0.9978                 0.2291                 1.1004

                      4                      5                      6
                      A                      A                      A
 Frequencies --     82.9253               114.0788               128.0639
 Red. masses --      3.9611                 4.0943                 3.9811
 Frc consts  --      0.0160                 0.0314                 0.0385
 IR Inten    --      0.4346                 0.1160                 1.9425

                      7                      8                      9
                      A                      A                      A
 Frequencies --    206.3319               223.1469               241.1748
 Red. masses --      2.4530                 1.7323                 2.8932
 Frc consts  --      0.0615                 0.0508                 0.0991
 IR Inten    --      1.3613                 5.3849                 1.9603

                     10                     11                     12
                      A                      A                      A
 Frequencies --    279.2230               304.2649               323.1957
 Red. masses --      1.4736                 1.8016                 3.0592
 Frc consts  --      0.0677                 0.0983                 0.1883
 IR Inten    --     35.8408                31.0054                 0.6122

                     13                     14                     15
                      A                      A                      A
 Frequencies --    352.3381               357.4826               363.3764
 Red. masses --      3.8460                 2.3367                 3.3817
 Frc consts  --      0.2813                 0.1759                 0.2631
 IR Inten    --      3.3250                 1.3460                39.8128

                     16                     17                     18
                      A                      A                      A
 Frequencies --    393.4994               431.0779               454.0417
 Red. masses --      2.0186                 3.3745                 2.4657
 Frc consts  --      0.1842                 0.3695                 0.2995
 IR Inten    --      8.2492                 1.2801                 0.1534

                     19                     20                     21
                      A                      A                      A
 Frequencies --    469.7806               470.6827               543.6516
 Red. masses --      3.3169                 2.0507                 3.3871
 Frc consts  --      0.4313                 0.2677                 0.5898
 IR Inten    --      2.9801                 1.8708                 1.6429

                     22                     23                     24
                      A                      A                      A
 Frequencies --    566.5300               587.6330               617.8629
 Red. masses --      3.4556                 2.8050                 3.6230
 Frc consts  --      0.6535                 0.5707                 0.8149
 IR Inten    --      2.9251                 0.2848                 5.4465

                     25                     26                     27
                      A                      A                      A
 Frequencies --    674.3424               773.1793               790.3103
 Red. masses --      2.4360                 2.0288                 2.2250
 Frc consts  --      0.6527                 0.7146                 0.8188
 IR Inten    --      1.2083                22.0569                 5.1742

                     28                     29                     30
                      A                      A                      A
 Frequencies --    799.8111               802.4587               809.2461
 Red. masses --      2.6114                 1.4496                 2.7426
 Frc consts  --      0.9842                 0.5500                 1.0582
 IR Inten    --      5.8208                 0.0200                10.8099

                     31                     32                     33
                      A                      A                      A
 Frequencies --    846.9307               891.4455               908.2853
 Red. masses --      1.8911                 2.1750                 2.1961
 Frc consts  --      0.7992                 1.0184                 1.0674
 IR Inten    --      8.6503                 1.5763                 7.1924

                     34                     35                     36
                      A                      A                      A
 Frequencies --    917.4159               922.4752               950.0950
 Red. masses --      2.5634                 1.4309                 2.6134
 Frc consts  --      1.2711                 0.7174                 1.3899
 IR Inten    --      1.8181                11.8118                16.5981

                     37                     38                     39
                      A                      A                      A
 Frequencies --    966.6236               979.0672              1017.7764
 Red. masses --      2.0133                 1.9277                 1.2748
 Frc consts  --      1.1083                 1.0887                 0.7780
 IR Inten    --      5.8043                 5.0795                 0.0108

                     40                     41                     42
                      A                      A                      A
 Frequencies --   1021.3626              1024.7084              1048.6785
 Red. masses --      2.1980                 2.4239                 1.8891
 Frc consts  --      1.3509                 1.4996                 1.2240
 IR Inten    --      4.9762                12.4292                 0.7689

                     43                     44                     45
                      A                      A                      A
 Frequencies --   1058.9392              1061.6090              1076.3291
 Red. masses --      1.8397                 1.6720                 1.2448
 Frc consts  --      1.2155                 1.1102                 0.8497
 IR Inten    --     15.3198                 8.8925                 0.4283

                     46                     47                     48
                      A                      A                      A
 Frequencies --   1081.9209              1093.4231              1099.2827
 Red. masses --      1.9419                 2.8540                 1.9228
 Frc consts  --      1.3393                 2.0104                 1.3690
 IR Inten    --      6.8239               127.2446                 7.7781

                     49                     50                     51
                      A                      A                      A
 Frequencies --   1103.2716              1138.8871              1150.8392
 Red. masses --      2.6602                 1.8753                 1.9315
 Frc consts  --      1.9078                 1.4332                 1.5072
 IR Inten    --      3.0080                 5.2571                 1.3409

                     52                     53                     54
                      A                      A                      A
 Frequencies --   1167.0755              1172.4060              1208.5811
 Red. masses --      1.9489                 1.7651                 1.3670
 Frc consts  --      1.5640                 1.4295                 1.1764
 IR Inten    --      2.1351                 2.0967                 3.3452

                     55                     56                     57
                      A                      A                      A
 Frequencies --   1217.6251              1244.8541              1252.3267
 Red. masses --      1.3116                 1.3643                 1.3727
 Frc consts  --      1.1457                 1.2456                 1.2684
 IR Inten    --      0.4498                 0.1160                 0.2307

                     58                     59                     60
                      A                      A                      A
 Frequencies --   1282.3077              1286.9629              1299.3946
 Red. masses --      1.3483                 1.2785                 1.3090
 Frc consts  --      1.3063                 1.2476                 1.3021
 IR Inten    --      3.8207                 2.2140                 4.5313

                     61                     62                     63
                      A                      A                      A
 Frequencies --   1302.0184              1319.7113              1331.2789
 Red. masses --      1.3169                 1.2618                 1.2617
 Frc consts  --      1.3153                 1.2948                 1.3175
 IR Inten    --      3.0908                 4.5016                11.8027

                     64                     65                     66
                      A                      A                      A
 Frequencies --   1341.2555              1346.3493              1348.1507
 Red. masses --      1.3307                 1.2958                 1.3401
 Frc consts  --      1.4104                 1.3839                 1.4350
 IR Inten    --      3.1479                 2.4645                 1.5216

                     67                     68                     69
                      A                      A                      A
 Frequencies --   1349.6514              1385.4009              1387.3478
 Red. masses --      1.2217                 1.3881                 1.3418
 Frc consts  --      1.3112                 1.5698                 1.5216
 IR Inten    --      0.1345                 3.1101                 3.5473

                     70                     71                     72
                      A                      A                      A
 Frequencies --   1394.1170              1400.8166              1402.3028
 Red. masses --      1.4670                 1.4714                 1.4835
 Frc consts  --      1.6799                 1.7012                 1.7187
 IR Inten    --      3.7911                 5.2960                 2.8256

                     73                     74                     75
                      A                      A                      A
 Frequencies --   1403.9632              1409.6014              1416.9728
 Red. masses --      1.4698                 1.4842                 1.4802
 Frc consts  --      1.7070                 1.7375                 1.7510
 IR Inten    --     12.3813                 1.6253                 3.7800

                     76                     77                     78
                      A                      A                      A
 Frequencies --   1447.9911              1460.4769              1488.9019
 Red. masses --      1.2834                 1.5364                 2.0856
 Frc consts  --      1.5854                 1.9308                 2.7240
 IR Inten    --     57.9950                12.9015                18.2098

                     79                     80                     81
                      A                      A                      A
 Frequencies --   1506.3659              1510.0199              1511.9955
 Red. masses --      1.1200                 1.0867                 1.2123
 Frc consts  --      1.4974                 1.4599                 1.6330
 IR Inten    --      5.7432                 0.0271                 2.0858

                     82                     83                     84
                      A                      A                      A
 Frequencies --   1516.4111              1521.9137              1523.6729
 Red. masses --      1.0950                 1.0858                 1.1086
 Frc consts  --      1.4836                 1.4817                 1.5164
 IR Inten    --      3.2392                 7.6080                 6.8773

                     85                     86                     87
                      A                      A                      A
 Frequencies --   1532.1268              1745.5012              3001.7818
 Red. masses --      1.1014                 6.8948                 1.0705
 Frc consts  --      1.5232                12.3769                 5.6833
 IR Inten    --      1.6135                 0.0222                 7.1684

                     88                     89                     90
                      A                      A                      A
 Frequencies --   3007.4781              3024.5286              3025.2567
 Red. masses --      1.0707                 1.0725                 1.0657
 Frc consts  --      5.7057                 5.7802                 5.7466
 IR Inten    --     33.6568                11.2323                 8.8170

                     91                     92                     93
                      A                      A                      A
 Frequencies --   3030.3359              3034.7129              3043.2967
 Red. masses --      1.0630                 1.0770                 1.0633
 Frc consts  --      5.7513                 5.8438                 5.8023
 IR Inten    --     30.7200                13.0612                13.0148

                     94                     95                     96
                      A                      A                      A
 Frequencies --   3050.5445              3053.3096              3057.4616
 Red. masses --      1.0768                 1.0818                 1.0680
 Frc consts  --      5.9037                 5.9418                 5.8825
 IR Inten    --     19.1813                46.2564                21.8893

                     97                     98                     99
                      A                      A                      A
 Frequencies --   3072.3041              3080.8948              3084.8986
 Red. masses --      1.0940                 1.0975                 1.0985
 Frc consts  --      6.0840                 6.1377                 6.1593
 IR Inten    --     41.6500                35.1764                42.3917

                    100                    101                    102
                      A                      A                      A
 Frequencies --   3086.6243              3087.3639              3091.8315
 Red. masses --      1.1003                 1.0928                 1.0956
 Frc consts  --      6.1761                 6.1374                 6.1705
 IR Inten    --     15.9114                45.3258                60.6110

                    103                    104                    105
                      A                      A                      A
 Frequencies --   3101.4397              3108.8866              3118.4594
 Red. masses --      1.1047                 1.0865                 1.0827
 Frc consts  --      6.2607                 6.1871                 6.2035
 IR Inten    --     33.7925                34.3080                18.5019

                    106                    107                    108
                      A                      A                      A
 Frequencies --   3123.6297              3141.8740              3721.4896
 Red. masses --      1.0921                 1.0935                 1.0657
 Frc consts  --      6.2783                 6.3600                 8.6960
 IR Inten    --     77.8596                46.5107                 6.2874

 - Thermochemistry -
 -------------------
 Temperature   298.150 Kelvin.  Pressure   1.00000 Atm.
 Atom     1 has atomic number  6 and mass  12.00000

 Molecular mass:   222.16198 amu.
 Principal axes and moments of inertia in atomic units:
                           1         2         3
     Eigenvalues --  1493.636109343.920689372.55240
           X            0.99999  -0.00399  -0.00030
           Y            0.00397   0.97905   0.20356
           Z           -0.00052  -0.20356   0.97906
 This molecule is an asymmetric top.
 Rotational symmetry number  1.
 Warning -- assumption of classical behavior for rotation
           may cause significant error
 Rotational temperatures (Kelvin)      0.05799     0.00927     0.00924
 Rotational constants (GHZ):           1.20829     0.19315     0.19256
 Zero-point vibrational energy     898254.4 (Joules/Mol)
                                  214.68795 (Kcal/Mol)
 Warning -- explicit consideration of  24 degrees of freedom as
           vibrations may cause significant error
 Vibrational temperatures:     15.81    31.58    57.76   119.31   164.13
          (Kelvin)            184.26   296.87   321.06   347.00   401.74
                              437.77   465.01   506.94   514.34   522.82
                              566.16   620.22   653.26   675.91   677.21
                              782.19   815.11   845.47   888.97   970.23
                             1112.43  1137.08  1150.75  1154.56  1164.32
                             1218.54  1282.59  1306.82  1319.96  1327.24
                             1366.97  1390.76  1408.66  1464.35  1469.51
                             1474.33  1508.81  1523.58  1527.42  1548.60
                             1556.64  1573.19  1581.62  1587.36  1638.60
                             1655.80  1679.16  1686.83  1738.88  1751.89
                             1791.07  1801.82  1844.95  1851.65  1869.54
                             1873.31  1898.77  1915.41  1929.77  1937.10
                             1939.69  1941.85  1993.28  1996.08  2005.82
                             2015.46  2017.60  2019.99  2028.10  2038.71
                             2083.34  2101.30  2142.20  2167.32  2172.58
                             2175.42  2181.78  2189.69  2192.23  2204.39
                             2511.39  4318.89  4327.09  4351.62  4352.67
                             4359.98  4366.28  4378.63  4389.05  4393.03
                             4399.01  4420.36  4432.72  4438.48  4440.96
                             4442.03  4448.46  4462.28  4472.99  4486.77
                             4494.21  4520.46  5354.39

 Zero-point correction=                           0.342127 (Hartree/Particle)
 Thermal correction to Energy=                    0.357313
 Thermal correction to Enthalpy=                  0.358257
 Thermal correction to Gibbs Free Energy=         0.297234
 Sum of electronic and zero-point Energies=           -696.860988
 Sum of electronic and thermal Energies=              -696.845803
 Sum of electronic and thermal Enthalpies=            -696.844859
 Sum of electronic and thermal Free Energies=         -696.905881

                     E (Thermal)             CV                S
                      KCal/Mol        Cal/Mol-Kelvin    Cal/Mol-Kelvin
 Total                  224.217             60.126            128.433
 Electronic               0.000              0.000              0.000
 Translational            0.889              2.981             42.097
 Rotational               0.889              2.981             33.236
 Vibrational            222.440             54.165             53.099
 Vibration     1          0.593              1.987              7.824
 Vibration     2          0.593              1.985              6.450
 Vibration     3          0.594              1.981              5.252
 Vibration     4          0.600              1.961              3.820
 Vibration     5          0.607              1.938              3.198
 Vibration     6          0.611              1.925              2.975
 Vibration     7          0.641              1.831              2.076
 Vibration     8          0.649              1.806              1.933
 Vibration     9          0.658              1.777              1.794
 Vibration    10          0.680              1.712              1.538
 Vibration    11          0.695              1.666              1.393
 Vibration    12          0.708              1.629              1.294
 Vibration    13          0.729              1.570              1.156
 Vibration    14          0.733              1.560              1.133
 Vibration    15          0.737              1.548              1.108
 Vibration    16          0.761              1.484              0.987
 Vibration    17          0.792              1.403              0.855
 Vibration    18          0.812              1.352              0.784
 Vibration    19          0.827              1.317              0.738
 Vibration    20          0.828              1.315              0.736
 Vibration    21          0.899              1.154              0.557
 Vibration    22          0.922              1.104              0.511
 Vibration    23          0.945              1.058              0.471
 Vibration    24          0.978              0.994              0.420

                           ! Non-Optimized Parameters !
 Normal termination of Gaussian 16 at Fri Dec 11 00:42:18 2020.

 ----------------------------------------------------------------------
 # B3LYP/6-311++G(d,p) empiricaldispersion=gd3bj scf=xqc pop=npa geom=c
 heck
 ----------------------------------------------------------------------

 --------------------------------------
 CID_89265011_JID_6789_Energie_neutraal
 --------------------------------------
 Structure from the checkpoint file:  "JID_6789.chk"
 Charge =  0 Multiplicity = 1

 SCF Done:  E(RB3LYP) =  -697.404201348     A.U. after   13 cycles
 Normal termination of Gaussian 16 at Fri Dec 11 00:47:22 2020.

 ----------------------------------------------------------------------
 # B3LYP/6-311++G(d,p) empiricaldispersion=gd3bj scf=xqc pop=npa geom=c
 heck
 ----------------------------------------------------------------------

 ------------------------------------
 CID_89265011_JID_6789_Energie_kation
 ------------------------------------
 Structure from the checkpoint file:  "JID_6789.chk"
 Charge =  1 Multiplicity = 2

 SCF Done:  E(UB3LYP) =  -697.090079347     A.U. after   22 cycles
 Normal termination of Gaussian 16 at Fri Dec 11 00:58:44 2020.
 Gaussian 16:  ES64L-G16RevA.03 25-Dec-2016

 ----------------------------------------------------------------------
 # B3LYP/6-311++G(d,p) empiricaldispersion=gd3bj scf=xqc pop=npa geom=c
 heck
 ----------------------------------------------------------------------

 -----------------------------------
 CID_89265011_JID_6789_Energie_anion
 -----------------------------------
 Structure from the checkpoint file:  "JID_6789.chk"
 Charge = -1 Multiplicity = 2

                         Standard orientation:
 ---------------------------------------------------------------------
 Center     Atomic      Atomic             Coordinates (Angstroms)
 Number     Number       Type             X           Y           Z
 ---------------------------------------------------------------------
      1          6           0        2.334088    0.777407    1.177008
      2          6           0        3.403013    1.300617    0.208462
      3          6           0        4.262629    0.165006   -0.354001
      4          6           0        3.385755   -0.903884   -1.012483
      5          6           0        2.317392   -1.434533   -0.047532
      6          6           0        1.442257   -0.299741    0.524624
      7          6           0        0.443817   -0.839457    1.511404
      8          6           0       -0.890436   -0.775145    1.453492
      9          6           0       -1.741747   -0.144021    0.386434
     10          6           0       -2.666264    0.938615    0.975739
     11          6           0       -3.414950    1.687011   -0.133825
     12          6           0       -4.122028    0.742879   -1.078900
     13          6           0       -3.702216   -0.666139   -1.187652
     14          6           0       -2.565168   -1.224985   -0.351447
     15          8           0       -4.894555   -0.298997   -0.466468
     16          8           0        5.272742    0.646710   -1.238069
     17          1           0        2.823550    0.344653    2.061899
     18          1           0        1.709958    1.602032    1.540404
     19          1           0        4.049460    2.037932    0.697750
     20          1           0        2.911654    1.814863   -0.633165
     21          1           0        4.820106   -0.296552    0.471348
     22          1           0        2.893685   -0.457561   -1.891611
     23          1           0        4.020145   -1.717403   -1.382177
     24          1           0        2.807144   -1.959613    0.785741
     25          1           0        1.681711   -2.173769   -0.548706
     26          1           0        0.916305    0.169622   -0.317179
     27          1           0        0.890826   -1.340697    2.372257
     28          1           0       -1.458656   -1.231744    2.266192
     29          1           0       -1.099549    0.348159   -0.355073
     30          1           0       -2.073946    1.646523    1.566074
     31          1           0       -3.388559    0.472648    1.656707
     32          1           0       -2.708083    2.291890   -0.719921
     33          1           0       -4.145319    2.384160    0.296727
     34          1           0       -4.607337    1.206892   -1.940577
     35          1           0       -3.911962   -1.192919   -2.120332
     36          1           0       -2.996155   -1.924069    0.377547
     37          1           0       -1.895094   -1.813824   -0.988815
     38          1           0        4.817759    1.065285   -1.986734
 ---------------------------------------------------------------------

 SCF Done:  E(UB3LYP) =  -697.393008155     A.U. after   32 cycles

 The electronic state is 2-A.
 Alpha  occ. eigenvalues --  -19.03473 -19.02854 -10.12837 -10.12805 -10.12656
 Alpha  occ. eigenvalues --  -10.08419 -10.08324 -10.07933 -10.07881 -10.07849
 Alpha  occ. eigenvalues --  -10.07794 -10.07774 -10.07726 -10.07435 -10.07179
 Alpha  occ. eigenvalues --  -10.07167  -0.97762  -0.93071  -0.75089  -0.73303
 Alpha  occ. eigenvalues --   -0.68618  -0.66191  -0.65464  -0.63152  -0.59739
 Alpha  occ. eigenvalues --   -0.53950  -0.52584  -0.52040  -0.51798  -0.48224
 Alpha  occ. eigenvalues --   -0.45575  -0.44498  -0.42308  -0.41329  -0.38298
 Alpha  occ. eigenvalues --   -0.36966  -0.36426  -0.35527  -0.35309  -0.34767
 Alpha  occ. eigenvalues --   -0.33126  -0.32722  -0.31912  -0.31217  -0.29904
 Alpha  occ. eigenvalues --   -0.29165  -0.29087  -0.28160  -0.26760  -0.25714
 Alpha  occ. eigenvalues --   -0.25398  -0.24668  -0.24308  -0.23755  -0.23045
 Alpha  occ. eigenvalues --   -0.22310  -0.21531  -0.19867  -0.17785  -0.17776
 Alpha  occ. eigenvalues --   -0.15652   0.04269
 Alpha virt. eigenvalues --    0.06632   0.06719   0.07092   0.08061   0.08304
 Alpha virt. eigenvalues --    0.08494   0.09074   0.09605   0.10203   0.10292
 Alpha virt. eigenvalues --    0.10631   0.10741   0.11516   0.12139   0.12237

  Beta  occ. eigenvalues --  -19.03464 -19.02831 -10.12823 -10.12791 -10.12657
  Beta  occ. eigenvalues --  -10.08408 -10.08312 -10.07932 -10.07869 -10.07847
  Beta  occ. eigenvalues --  -10.07787 -10.07766 -10.07704 -10.07428 -10.07155
  Beta  occ. eigenvalues --  -10.07143  -0.97745  -0.93028  -0.75066  -0.73278
  Beta  occ. eigenvalues --   -0.68594  -0.66159  -0.65431  -0.63126  -0.59708
  Beta  occ. eigenvalues --   -0.53922  -0.52539  -0.51999  -0.51755  -0.48174
  Beta  occ. eigenvalues --   -0.45538  -0.44468  -0.42258  -0.41277  -0.38267
  Beta  occ. eigenvalues --   -0.36942  -0.36396  -0.35500  -0.35274  -0.34740
  Beta  occ. eigenvalues --   -0.33100  -0.32688  -0.31896  -0.31196  -0.29873
  Beta  occ. eigenvalues --   -0.29135  -0.29062  -0.28133  -0.26721  -0.25668
  Beta  occ. eigenvalues --   -0.25368  -0.24636  -0.24271  -0.23733  -0.23018
  Beta  occ. eigenvalues --   -0.22278  -0.21506  -0.19844  -0.17756  -0.17738
  Beta  occ. eigenvalues --   -0.15642
  Beta virt. eigenvalues --    0.06449   0.07073   0.07385   0.07749   0.08209
  Beta virt. eigenvalues --    0.08613   0.08915   0.09423   0.09592   0.10464
  Beta virt. eigenvalues --    0.10628   0.10930   0.11094   0.11709   0.12222

 Mulliken charges and spin densities:
               1          2
     1  C   -0.184154  -0.377756
     2  C    0.577804  -0.752183
     3  C   -0.921613   0.270814
     4  C    0.530407  -0.695705
     5  C   -0.311847  -0.227487
     6  C    0.223365   0.349133
     7  C   -0.588864   0.344338
     8  C   -0.561231   0.441222
     9  C    0.825140   0.100259
    10  C   -0.886707   0.188314
    11  C    0.844765  -1.119042
    12  C    0.598360  -1.020815
    13  C   -0.200356   0.303653
    14  C    0.180621  -1.134873
    15  O   -0.156418   0.019550
    16  O   -0.245242   0.039720
    17  H    0.114169   0.006475
    18  H   -0.049219   0.231271
    19  H    0.043153   0.127787
    20  H   -0.603604   0.775488
    21  H    0.145128   0.016522
    22  H   -0.683331   0.855727
    23  H    0.037251   0.134836
    24  H    0.107259   0.011959
    25  H   -0.059260   0.248593
    26  H    1.020076  -0.936953
    27  H    0.149348  -0.006280
    28  H    0.087323   0.067296
    29  H   -0.262900   0.327769
    30  H    0.072024   0.099405
    31  H    0.154823   0.006314
    32  H   -0.430917   0.594221
    33  H    0.039582   0.134244
    34  H   -0.336128   0.526891
    35  H   -0.491617   0.721154
    36  H    0.180472  -0.013152
    37  H   -0.129130   0.258380
    38  H    0.171468   0.082913
 Sum of Mulliken charges =  -1.00000   1.00000

 Dipole moment (field-independent basis, Debye):
    X=              0.9410    Y=             -3.2219    Z=              7.3994  Tot=              8.1252
 Quadrupole moment (field-independent basis, Debye-Ang):
   XX=           -195.5749   YY=           -138.9468   ZZ=           -139.6707
   XY=             -4.9342   XZ=              1.5827   YZ=              0.0007

 Summary of Natural Population Analysis:

                                       Natural Population
                Natural  -----------------------------------------------
    Atom  No    Charge         Core      Valence    Rydberg      Total
 -----------------------------------------------------------------------
      C    1   -0.18327      0.99961     2.17479    0.00887     3.18327
      C    2   -0.20171      0.99960     2.19210    0.01001     3.20171
      C    3    0.06629      0.99953     1.92112    0.01306     2.93371
      C    4   -0.20165      0.99960     2.19201    0.01004     3.20165
      C    5   -0.18327      0.99961     2.17477    0.00889     3.18327
      C    6   -0.13295      0.99956     2.12212    0.01127     3.13295
      C    7   -0.08259      0.99951     2.07312    0.00995     3.08259
      C    8   -0.08236      0.99951     2.07298    0.00987     3.08236
      C    9   -0.12985      0.99956     2.11902    0.01127     3.12985
      C   10   -0.18658      0.99961     2.17735    0.00962     3.18658
      C   11   -0.20206      0.99962     2.19328    0.00916     3.20206
      C   12    0.05264      0.99955     1.93352    0.01429     2.94736
      C   13    0.04761      0.99955     1.93806    0.01478     2.95239
      C   14   -0.19735      0.99960     2.18829    0.00946     3.19735
      O   15   -0.29200      0.99992     3.28524    0.00684     4.29200
      O   16   -0.37224      0.99990     3.36582    0.00652     4.37224
      H   17    0.08997      0.00000     0.40884    0.00119     0.41003
      H   18    0.10421      0.00000     0.39482    0.00097     0.39579
      H   19    0.10108      0.00000     0.39801    0.00091     0.39892
      H   20    0.09952      0.00000     0.39812    0.00235     0.40048
      H   21    0.08004      0.00000     0.41849    0.00147     0.41996
      H   22    0.09942      0.00000     0.39817    0.00240     0.40058
      H   23    0.10122      0.00000     0.39787    0.00091     0.39878
      H   24    0.08985      0.00000     0.40895    0.00121     0.41015
      H   25    0.10438      0.00000     0.39460    0.00101     0.39562
      H   26    0.10269      0.00000     0.39403    0.00328     0.39731
      H   27    0.09043      0.00000     0.40834    0.00123     0.40957
      H   28    0.09132      0.00000     0.40744    0.00124     0.40868
      H   29    0.10159      0.00000     0.39510    0.00331     0.39841
      H   30    0.10260      0.00000     0.39642    0.00098     0.39740
      H   31    0.09780      0.00000     0.40074    0.00146     0.40220
      H   32    0.10643      0.00000     0.39137    0.00221     0.39357
      H   33    0.10028      0.00000     0.39889    0.00083     0.39972
      H   34    0.09124      0.00000     0.40714    0.00162     0.40876
      H   35    0.09207      0.00000     0.40632    0.00160     0.40793
      H   36    0.10017      0.00000     0.39874    0.00109     0.39983
      H   37    0.10707      0.00000     0.39158    0.00134     0.39293
      H   38    0.22796      0.00000     0.26902    0.00302     0.27204
 =======================================================================
   * Total *   -0.00000     15.99386    44.80660    0.19953    61.00000

 Normal termination of Gaussian 16 at Fri Dec 11 01:14:55 2020.
