 Gaussian 16, Revision A.03,

 -----------------------------------------------------------
 # opt freq B3LYP/6-31G(d) empiricaldispersion=gd3bj scf=xqc
 -----------------------------------------------------------

 ------------------------------
 CID_11769016_JID_2482_neutraal
 ------------------------------
 Symbolic Z-matrix:
 Charge =  0 Multiplicity = 1

 SCF Done:  E(RB3LYP) =  -578.288334237     A.U. after   15 cycles
 SCF Done:  E(RB3LYP) =  -578.292770871     A.U. after   12 cycles
 SCF Done:  E(RB3LYP) =  -578.292708155     A.U. after   12 cycles
 SCF Done:  E(RB3LYP) =  -578.294314289     A.U. after   12 cycles
 SCF Done:  E(RB3LYP) =  -578.294718748     A.U. after   12 cycles
 SCF Done:  E(RB3LYP) =  -578.295064336     A.U. after   12 cycles
 SCF Done:  E(RB3LYP) =  -578.295288565     A.U. after   12 cycles
 SCF Done:  E(RB3LYP) =  -578.295494121     A.U. after   11 cycles
 SCF Done:  E(RB3LYP) =  -578.295644373     A.U. after   12 cycles
 SCF Done:  E(RB3LYP) =  -578.295666680     A.U. after   10 cycles
 SCF Done:  E(RB3LYP) =  -578.296270005     A.U. after   12 cycles
 SCF Done:  E(RB3LYP) =  -578.296270364     A.U. after   11 cycles
 SCF Done:  E(RB3LYP) =  -578.296271183     A.U. after    8 cycles
 SCF Done:  E(RB3LYP) =  -578.296271960     A.U. after    9 cycles
 SCF Done:  E(RB3LYP) =  -578.296272056     A.U. after    8 cycles
 Optimization completed.
    -- Stationary point found.

 1\1\GINC-NODE119\FOpt\RB3LYP\6-31G(d)\C9H16O3\VSC10255\09-Dec-2020\0\\
 # opt freq B3LYP/6-31G(d) empiricaldispersion=gd3bj scf=xqc\\CID_11769
 016_JID_2482_neutraal\\0,1\C,1.6115573215,0.1612432363,-1.1469970879\C
 ,0.5551341483,1.0932101649,-0.5555234853\C,0.064943588,2.0954686693,-1
 .601909507\C,-0.5905544572,0.293064642,0.0668785074\O,1.3052327065,1.7
 980742063,0.5020241747\C,0.7212021594,2.7307526774,1.2725977017\O,-0.4
 413049345,3.0799064006,1.2044232508\C,1.7299865378,3.3155301564,2.2424
 955448\C,1.0984135896,4.2007145898,3.3317319177\C,0.2335968237,3.39673

 Normal termination of Gaussian 16 at Wed Dec  9 17:43:56 2020.

 --------------------------------------------------------------------
 #N Geom=AllCheck Guess=TCheck SCRF=Check GenChk RB3LYP/6-31G(d) Freq
 --------------------------------------------------------------------

 Structure from the checkpoint file:  "JID_2482.chk"
 ------------------------------
 CID_11769016_JID_2482_neutraal
 ------------------------------
 Charge =  0 Multiplicity = 1

 SCF Done:  E(RB3LYP) =  -578.296272056     A.U. after    1 cycles

  Exact polarizability: 129.974  -4.169  94.731   6.173  -0.770  84.554
 Approx polarizability: 158.424  -4.459 135.099   9.880   4.672 131.667

                      1                      2                      3
                      A                      A                      A
 Frequencies --     19.1176                48.2340                93.7638
 Red. masses --      3.9102                 3.5629                 3.1378
 Frc consts  --      0.0008                 0.0049                 0.0163
 IR Inten    --      0.1906                 0.7076                 1.3264

                      4                      5                      6
                      A                      A                      A
 Frequencies --    113.8546               117.6580               135.4411
 Red. masses --      3.5386                 4.7855                 2.5133
 Frc consts  --      0.0270                 0.0390                 0.0272
 IR Inten    --      0.3338                 2.7832                 0.8629

                      7                      8                      9
                      A                      A                      A
 Frequencies --    209.7482               218.8597               249.0000
 Red. masses --      1.0773                 3.3024                 1.6752
 Frc consts  --      0.0279                 0.0932                 0.0612
 IR Inten    --      0.1033                 3.8496                 0.7871

                     10                     11                     12
                      A                      A                      A
 Frequencies --    264.5947               273.4647               300.3737
 Red. masses --      1.5936                 1.0743                 3.2941
 Frc consts  --      0.0657                 0.0473                 0.1751
 IR Inten    --      0.6027                 0.0281                 4.6111

                     13                     14                     15
                      A                      A                      A
 Frequencies --    323.9257               336.9536               351.1946
 Red. masses --      2.6389                 2.0535                 2.4815
 Frc consts  --      0.1631                 0.1374                 0.1803
 IR Inten    --      3.6536                40.9844                 1.7312

                     16                     17                     18
                      A                      A                      A
 Frequencies --    386.3774               409.0207               440.8317
 Red. masses --      1.3910                 2.7261                 2.7114
 Frc consts  --      0.1224                 0.2687                 0.3104
 IR Inten    --     80.3235                 3.5478                 5.4210

                     19                     20                     21
                      A                      A                      A
 Frequencies --    456.6696               477.4414               586.7767
 Red. masses --      2.8180                 2.3151                 2.8720
 Frc consts  --      0.3463                 0.3109                 0.5826
 IR Inten    --      2.1500                 6.7873                10.2724

                     22                     23                     24
                      A                      A                      A
 Frequencies --    610.6978               689.3377               731.2305
 Red. masses --      2.5317                 1.8873                 4.5145
 Frc consts  --      0.5563                 0.5284                 1.4222
 IR Inten    --     10.6089                11.5825                 2.6654

                     25                     26                     27
                      A                      A                      A
 Frequencies --    771.3621               829.5700               868.6135
 Red. masses --      4.4331                 2.6605                 3.3852
 Frc consts  --      1.5541                 1.0788                 1.5048
 IR Inten    --     11.0351                 4.9930                24.0057

                     28                     29                     30
                      A                      A                      A
 Frequencies --    938.9136               939.4990               947.3075
 Red. masses --      1.6299                 1.6200                 1.3492
 Frc consts  --      0.8466                 0.8425                 0.7134
 IR Inten    --      0.0492                 0.1089                32.9555

                     31                     32                     33
                      A                      A                      A
 Frequencies --    968.0306               982.7926              1003.2183
 Red. masses --      4.2759                 1.1980                 2.2957
 Frc consts  --      2.3608                 0.6818                 1.3613
 IR Inten    --      7.1018                 0.1984                42.8127

                     34                     35                     36
                      A                      A                      A
 Frequencies --   1021.5531              1049.6491              1066.9227
 Red. masses --      1.6106                 1.2178                 1.4039
 Frc consts  --      0.9903                 0.7905                 0.9416
 IR Inten    --     15.3400                26.3862                 0.3217

                     37                     38                     39
                      A                      A                      A
 Frequencies --   1074.8067              1094.5298              1135.3525
 Red. masses --      1.4529                 2.7460                 1.9216
 Frc consts  --      0.9889                 1.9382                 1.4594
 IR Inten    --      1.4295                 4.5738               178.7097

                     40                     41                     42
                      A                      A                      A
 Frequencies --   1190.9692              1219.2953              1240.6351
 Red. masses --      1.6626                 1.7390                 1.5714
 Frc consts  --      1.3894                 1.5232                 1.4251
 IR Inten    --    265.5609               104.9048                10.6823

                     43                     44                     45
                      A                      A                      A
 Frequencies --   1287.7704              1292.9252              1301.5734
 Red. masses --      2.7137                 2.2903                 2.6843
 Frc consts  --      2.6515                 2.2558                 2.6793
 IR Inten    --     15.4476               165.4866                11.1633

                     46                     47                     48
                      A                      A                      A
 Frequencies --   1330.7217              1354.8578              1402.9523
 Red. masses --      1.2778                 1.4468                 1.8718
 Frc consts  --      1.3332                 1.5648                 2.1706
 IR Inten    --      6.0355                15.0110                90.3746

                     49                     50                     51
                      A                      A                      A
 Frequencies --   1424.5223              1428.7099              1430.6266
 Red. masses --      1.2807                 1.3003                 1.2400
 Frc consts  --      1.5312                 1.5638                 1.4953
 IR Inten    --     16.5356                18.8371                56.7051

                     52                     53                     54
                      A                      A                      A
 Frequencies --   1453.2583              1464.5693              1488.2218
 Red. masses --      1.2355                 1.2291                 1.0910
 Frc consts  --      1.5373                 1.5533                 1.4236
 IR Inten    --     16.0013                 8.9549                12.3419

                     55                     56                     57
                      A                      A                      A
 Frequencies --   1500.4418              1519.6704              1520.5785
 Red. masses --      1.0468                 1.0466                 1.0517
 Frc consts  --      1.3885                 1.4241                 1.4328
 IR Inten    --      0.4157                 0.7806                 0.6971

                     58                     59                     60
                      A                      A                      A
 Frequencies --   1525.9782              1535.0106              1556.8729
 Red. masses --      1.0646                 1.0528                 1.0549
 Frc consts  --      1.4606                 1.4615                 1.5065
 IR Inten    --     11.5921                 0.9969                11.3772

                     61                     62                     63
                      A                      A                      A
 Frequencies --   1729.9516              1800.3905              3057.6967
 Red. masses --      4.6793                11.1275                 1.0607
 Frc consts  --      8.2508                21.2510                 5.8431
 IR Inten    --      2.7944               192.2046                 7.0532

                     64                     65                     66
                      A                      A                      A
 Frequencies --   3059.1445              3060.7426              3067.6921
 Red. masses --      1.0356                 1.0382                 1.0383
 Frc consts  --      5.7100                 5.7303                 5.7568
 IR Inten    --      9.5319                23.2547                19.7118

                     67                     68                     69
                      A                      A                      A
 Frequencies --   3078.0597              3100.7137              3122.9620
 Red. masses --      1.0848                 1.1010                 1.1026
 Frc consts  --      6.0555                 6.2368                 6.3359
 IR Inten    --      7.0555                14.8984                 7.4039

                     70                     71                     72
                      A                      A                      A
 Frequencies --   3124.6848              3136.5809              3137.9071
 Red. masses --      1.1024                 1.1033                 1.1025
 Frc consts  --      6.3416                 6.3951                 6.3961
 IR Inten    --     16.1458                29.3401                45.7929

                     73                     74                     75
                      A                      A                      A
 Frequencies --   3167.8256              3172.6089              3175.5821
 Red. masses --      1.0575                 1.0998                 1.0992
 Frc consts  --      6.2527                 6.5223                 6.5308
 IR Inten    --      9.3894                 0.7217                13.6926

                     76                     77                     78
                      A                      A                      A
 Frequencies --   3189.3454              3248.8574              3714.3448
 Red. masses --      1.0924                 1.1160                 1.0656
 Frc consts  --      6.5469                 6.9403                 8.6614
 IR Inten    --      4.0289                12.6133                 8.3985

 - Thermochemistry -
 -------------------
 Temperature   298.150 Kelvin.  Pressure   1.00000 Atm.
 Atom     1 has atomic number  6 and mass  12.00000

 Molecular mass:   172.10994 amu.
 Principal axes and moments of inertia in atomic units:
                           1         2         3
     Eigenvalues --   889.667474374.124194580.68859
           X            0.99998  -0.00470   0.00365
           Y            0.00478   0.99972  -0.02322
           Z           -0.00354   0.02324   0.99972
 This molecule is an asymmetric top.
 Rotational symmetry number  1.
 Warning -- assumption of classical behavior for rotation
           may cause significant error
 Rotational temperatures (Kelvin)      0.09736     0.01980     0.01891
 Rotational constants (GHZ):           2.02856     0.41259     0.39399
 Zero-point vibrational energy     634929.6 (Joules/Mol)
                                  151.75182 (Kcal/Mol)
 Warning -- explicit consideration of  22 degrees of freedom as
           vibrations may cause significant error
 Vibrational temperatures:     27.51    69.40   134.91   163.81   169.28
          (Kelvin)            194.87   301.78   314.89   358.26   380.69
                              393.45   432.17   466.06   484.80   505.29
                              555.91   588.49   634.26   657.05   686.93
                              844.24   878.66   991.80  1052.08  1109.82
                             1193.57  1249.74  1350.89  1351.73  1362.96
                             1392.78  1414.02  1443.41  1469.79  1510.21
                             1535.06  1546.41  1574.78  1633.52  1713.54
                             1754.29  1785.00  1852.81  1860.23  1872.67
                             1914.61  1949.34  2018.54  2049.57  2055.59
                             2058.35  2090.91  2107.19  2141.22  2158.80
                             2186.47  2187.77  2195.54  2208.54  2239.99
                             2489.01  2590.36  4399.34  4401.43  4403.73
                             4413.72  4428.64  4461.24  4493.25  4495.72
                             4512.84  4514.75  4557.79  4564.68  4568.95
                             4588.76  4674.38  5344.11

 Zero-point correction=                           0.241832 (Hartree/Particle)
 Thermal correction to Energy=                    0.256012
 Thermal correction to Enthalpy=                  0.256956
 Thermal correction to Gibbs Free Energy=         0.200477
 Sum of electronic and zero-point Energies=           -578.054440
 Sum of electronic and thermal Energies=              -578.040260
 Sum of electronic and thermal Enthalpies=            -578.039316
 Sum of electronic and thermal Free Energies=         -578.095795

                     E (Thermal)             CV                S
                      KCal/Mol        Cal/Mol-Kelvin    Cal/Mol-Kelvin
 Total                  160.650             52.276            118.869
 Electronic               0.000              0.000              0.000
 Translational            0.889              2.981             41.336
 Rotational               0.889              2.981             31.256
 Vibrational            158.872             46.315             46.277
 Vibration     1          0.593              1.986              6.724
 Vibration     2          0.595              1.978              4.889
 Vibration     3          0.603              1.954              3.580
 Vibration     4          0.607              1.938              3.202
 Vibration     5          0.608              1.935              3.138
 Vibration     6          0.613              1.918              2.867
 Vibration     7          0.642              1.826              2.046
 Vibration     8          0.647              1.812              1.969
 Vibration     9          0.662              1.764              1.738
 Vibration    10          0.671              1.738              1.631
 Vibration    11          0.676              1.722              1.574
 Vibration    12          0.693              1.673              1.415
 Vibration    13          0.708              1.628              1.290
 Vibration    14          0.718              1.602              1.227
 Vibration    15          0.728              1.573              1.161
 Vibration    16          0.755              1.499              1.014
 Vibration    17          0.773              1.451              0.930
 Vibration    18          0.801              1.381              0.824
 Vibration    19          0.815              1.346              0.776
 Vibration    20          0.834              1.300              0.717
 Vibration    21          0.944              1.060              0.473
 Vibration    22          0.970              1.009              0.432

 Optimization completed.
    -- Stationary point found.

 1\1\GINC-NODE119\Freq\RB3LYP\6-31G(d)\C9H16O3\VSC10255\09-Dec-2020\0\\
 #N Geom=AllCheck Guess=TCheck SCRF=Check GenChk RB3LYP/6-31G(d) Freq\\
 CID_11769016_JID_2482_neutraal\\0,1\C,1.6115573215,0.1612432363,-1.146
 9970879\C,0.5551341483,1.0932101649,-0.5555234853\C,0.064943588,2.0954
 686693,-1.601909507\C,-0.5905544572,0.293064642,0.0668785074\O,1.30523
 27065,1.7980742063,0.5020241747\C,0.7212021594,2.7307526774,1.27259770
 17\O,-0.4413049345,3.0799064006,1.2044232508\C,1.7299865378,3.31553015
 64,2.2424955448\C,1.0984135896,4.2007145898,3.3317319177\C,0.233596823

 Normal termination of Gaussian 16 at Wed Dec  9 17:50:41 2020.

 ----------------------------------------------------------------------
 # B3LYP/6-311++G(d,p) empiricaldispersion=gd3bj scf=xqc pop=npa geom=c
 heck
 ----------------------------------------------------------------------

 --------------------------------------
 CID_11769016_JID_2482_Energie_neutraal
 --------------------------------------
 Structure from the checkpoint file:  "JID_2482.chk"
 Charge =  0 Multiplicity = 1

 SCF Done:  E(RB3LYP) =  -578.476781717     A.U. after   14 cycles
 Normal termination of Gaussian 16 at Wed Dec  9 17:53:43 2020.

 ----------------------------------------------------------------------
 # B3LYP/6-311++G(d,p) empiricaldispersion=gd3bj scf=xqc pop=npa geom=c
 heck
 ----------------------------------------------------------------------

 ------------------------------------
 CID_11769016_JID_2482_Energie_kation
 ------------------------------------
 Structure from the checkpoint file:  "JID_2482.chk"
 Charge =  1 Multiplicity = 2

 SCF Done:  E(UB3LYP) =  -578.136079052     A.U. after   22 cycles
 Normal termination of Gaussian 16 at Wed Dec  9 18:00:44 2020.
 Gaussian 16:  ES64L-G16RevA.03 25-Dec-2016

 -----------------------------------
 CID_11769016_JID_2482_Energie_anion
 -----------------------------------
 Structure from the checkpoint file:  "JID_2482.chk"
 Charge = -1 Multiplicity = 2

                         Standard orientation:
 ---------------------------------------------------------------------
 Center     Atomic      Atomic             Coordinates (Angstroms)
 Number     Number       Type             X           Y           Z
 ---------------------------------------------------------------------
      1          6           0        3.421086   -0.525873   -1.242162
      2          6           0        2.534953    0.061455   -0.144779
      3          6           0        2.971114   -0.437802    1.233713
      4          6           0        2.503618    1.588614   -0.228572
      5          8           0        1.205574   -0.485199   -0.479157
      6          6           0        0.124065   -0.202972    0.266128
      7          8           0        0.107816    0.512037    1.249223
      8          6           0       -1.091986   -0.925830   -0.280690
      9          6           0       -2.419162   -0.464638    0.347624
     10          6           0       -2.746386    0.961675   -0.023271
     11          6           0       -3.923283    1.361259   -0.502773
     12          8           0       -3.456727   -1.378457    0.013186
     13          1           0        4.454695   -0.191090   -1.108116
     14          1           0        3.075962   -0.203963   -2.229652
     15          1           0        3.402029   -1.619635   -1.208565
     16          1           0        4.007224   -0.134494    1.419270
     17          1           0        2.338213   -0.026460    2.020897
     18          1           0        2.924312   -1.531277    1.273016
     19          1           0        2.128119    1.906524   -1.207065
     20          1           0        1.869852    2.013467    0.550644
     21          1           0        3.519680    1.980456   -0.110026
     22          1           0       -1.114749   -0.808166   -1.371036
     23          1           0       -0.967044   -1.997742   -0.084503
     24          1           0       -2.315891   -0.531804    1.436476
     25          1           0       -1.939317    1.675131    0.128326
     26          1           0       -4.106423    2.398610   -0.766827
     27          1           0       -4.752718    0.669430   -0.620752
     28          1           0       -3.621362   -1.281371   -0.939413
 ---------------------------------------------------------------------

 SCF Done:  E(UB3LYP) =  -578.462815216     A.U. after   33 cycles
 SCF Done:  E(UB3LYP) =  -578.462815216     a.u. after    1 cycles

 The electronic state is 2-A.
 Alpha  occ. eigenvalues --  -19.06421 -19.03259 -19.01472 -10.20840 -10.14531
 Alpha  occ. eigenvalues --  -10.13643 -10.08676 -10.08246 -10.07244 -10.06060
 Alpha  occ. eigenvalues --  -10.06056 -10.05945  -1.00535  -0.93754  -0.92429
 Alpha  occ. eigenvalues --   -0.72254  -0.69996  -0.65814  -0.59718  -0.59648
 Alpha  occ. eigenvalues --   -0.57222  -0.51588  -0.47821  -0.42576  -0.40841
 Alpha  occ. eigenvalues --   -0.40395  -0.38509  -0.38204  -0.37514  -0.35402
 Alpha  occ. eigenvalues --   -0.34700  -0.32483  -0.32191  -0.31089  -0.29498
 Alpha  occ. eigenvalues --   -0.29119  -0.28518  -0.27597  -0.26973  -0.26063
 Alpha  occ. eigenvalues --   -0.25364  -0.24269  -0.23493  -0.20693  -0.19708
 Alpha  occ. eigenvalues --   -0.17854  -0.17316   0.04448
 Alpha virt. eigenvalues --    0.06263   0.07630   0.07883   0.08296   0.08770
 Alpha virt. eigenvalues --    0.09025   0.09644   0.10244   0.10427   0.10719
 Alpha virt. eigenvalues --    0.11470   0.11658   0.12517   0.13217   0.13408

  Beta  occ. eigenvalues --  -19.06413 -19.03230 -19.01467 -10.20838 -10.14529
  Beta  occ. eigenvalues --  -10.13638 -10.08645 -10.08247 -10.07198 -10.06023
  Beta  occ. eigenvalues --  -10.06017 -10.05910  -1.00523  -0.93693  -0.92417
  Beta  occ. eigenvalues --   -0.72229  -0.69961  -0.65766  -0.59656  -0.59584
  Beta  occ. eigenvalues --   -0.57165  -0.51532  -0.47762  -0.42530  -0.40807
  Beta  occ. eigenvalues --   -0.40351  -0.38476  -0.38171  -0.37482  -0.35364
  Beta  occ. eigenvalues --   -0.34663  -0.32445  -0.32156  -0.31045  -0.29460
  Beta  occ. eigenvalues --   -0.29077  -0.28478  -0.27565  -0.26935  -0.26032
  Beta  occ. eigenvalues --   -0.25332  -0.24240  -0.23464  -0.20679  -0.19680
  Beta  occ. eigenvalues --   -0.17831  -0.17236
  Beta virt. eigenvalues --    0.06638   0.07254   0.08057   0.08362   0.08951
  Beta virt. eigenvalues --    0.09266   0.09477   0.09843   0.10486   0.10914
  Beta virt. eigenvalues --    0.11079   0.11768   0.12047   0.12828   0.13577

 Mulliken charges and spin densities:
               1          2
     1  C    0.352036  -0.722214
     2  C   -2.157872   2.091085
     3  C    1.237964  -1.643365
     4  C    1.120642  -1.548412
     5  O    0.111269   0.014979
     6  C   -0.489881   0.381879
     7  O   -0.222045   0.000069
     8  C    0.913500  -1.325618
     9  C    0.695617  -0.929093
    10  C   -1.246808   1.461132
    11  C    0.873095  -1.429001
    12  O   -0.228526  -0.009821
    13  H   -0.216020   0.367833
    14  H   -0.294269   0.452906
    15  H   -0.286669   0.441633
    16  H   -0.367289   0.538169
    17  H    0.080778   0.105588
    18  H   -0.073663   0.212935
    19  H   -0.092018   0.237994
    20  H   -0.047034   0.226623
    21  H   -0.276701   0.445658
    22  H   -0.222981   0.413399
    23  H   -0.012058   0.223467
    24  H    0.108106   0.104334
    25  H    0.018389   0.148926
    26  H   -0.152665   0.264937
    27  H   -0.107930   0.226612
    28  H   -0.016965   0.247366
 Sum of Mulliken charges =  -1.00000   1.00000

 Dipole moment (field-independent basis, Debye):
    X=             -2.9546    Y=             -0.0330    Z=              1.3587  Tot=              3.2522
 Quadrupole moment (field-independent basis, Debye-Ang):
   XX=           -161.7616   YY=           -110.2189   ZZ=           -107.4718
   XY=             -2.5512   XZ=              1.3543   YZ=             -0.3194

 Summary of Natural Population Analysis:

                                       Natural Population
                Natural  -----------------------------------------------
    Atom  No    Charge         Core      Valence    Rydberg      Total
 -----------------------------------------------------------------------
      C    1   -0.28909      0.99960     2.28245    0.00704     3.28909
      C    2    0.13297      0.99953     1.85261    0.01489     2.86703
      C    3   -0.30155      0.99960     2.29534    0.00661     3.30155
      C    4   -0.30144      0.99960     2.29521    0.00663     3.30144
      O    5   -0.29212      0.99985     3.28054    0.01173     4.29212
      C    6    0.41558      0.99968     1.55859    0.02614     2.58442
      O    7   -0.31531      0.99987     3.31040    0.00504     4.31531
      C    8   -0.24401      0.99956     2.23523    0.00922     3.24401
      C    9    0.04699      0.99954     1.93791    0.01556     2.95301
      C   10   -0.10114      0.99955     2.09057    0.01102     3.10114
      C   11   -0.19058      0.99956     2.18404    0.00697     3.19058
      O   12   -0.36768      0.99990     3.36081    0.00697     4.36768
      H   13    0.10443      0.00000     0.39376    0.00181     0.39557
      H   14    0.10473      0.00000     0.39380    0.00147     0.39527
      H   15    0.10397      0.00000     0.39461    0.00142     0.39603
      H   16    0.10569      0.00000     0.39300    0.00131     0.39431
      H   17    0.11197      0.00000     0.38699    0.00104     0.38803
      H   18    0.10260      0.00000     0.39627    0.00113     0.39740
      H   19    0.10366      0.00000     0.39509    0.00125     0.39634
      H   20    0.11185      0.00000     0.38699    0.00116     0.38815
      H   21    0.10535      0.00000     0.39330    0.00135     0.39465
      H   22    0.11359      0.00000     0.38443    0.00198     0.38641
      H   23    0.11956      0.00000     0.37917    0.00127     0.38044
      H   24    0.10031      0.00000     0.39821    0.00148     0.39969
      H   25    0.10428      0.00000     0.39442    0.00131     0.39572
      H   26    0.09420      0.00000     0.40464    0.00117     0.40580
      H   27    0.09349      0.00000     0.40502    0.00149     0.40651
      H   28    0.22769      0.00000     0.26830    0.00400     0.27231
 =======================================================================
   * Total *   -0.00000     11.99584    34.85170    0.15247    47.00000

 Normal termination of Gaussian 16 at Wed Dec  9 18:11:14 2020.
