 Gaussian 16, Revision A.03,

 -----------------------------------------------------------
 # opt freq B3LYP/6-31G(d) empiricaldispersion=gd3bj scf=xqc
 -----------------------------------------------------------

 -------------------------------
 CID_152601733_JID_7184_neutraal
 -------------------------------
 Symbolic Z-matrix:
 Charge =  0 Multiplicity = 1

 SCF Done:  E(RB3LYP) =  -758.665931915     A.U. after   18 cycles
 SCF Done:  E(RB3LYP) =  -758.671035368     A.U. after   15 cycles
 SCF Done:  E(RB3LYP) =  -758.672790312     A.U. after   14 cycles
 SCF Done:  E(RB3LYP) =  -758.673985516     A.U. after   14 cycles
 SCF Done:  E(RB3LYP) =  -758.674630278     A.U. after   16 cycles
 SCF Done:  E(RB3LYP) =  -758.675427581     A.U. after   15 cycles
 SCF Done:  E(RB3LYP) =  -758.676530864     A.U. after   16 cycles
 SCF Done:  E(RB3LYP) =  -758.678186138     A.U. after   16 cycles
 SCF Done:  E(RB3LYP) =  -758.679058975     A.U. after   14 cycles
 SCF Done:  E(RB3LYP) =  -758.679765420     A.U. after   14 cycles
 SCF Done:  E(RB3LYP) =  -758.680800778     A.U. after   12 cycles
 SCF Done:  E(RB3LYP) =  -758.680810306     A.U. after   11 cycles
 SCF Done:  E(RB3LYP) =  -758.680810670     A.U. after   10 cycles
 SCF Done:  E(RB3LYP) =  -758.680810748     A.U. after    8 cycles
 Optimization completed.
    -- Stationary point found.
 Normal termination of Gaussian 16 at Fri Dec 11 12:14:40 2020.

 --------------------------------------------------------------------
 #N Geom=AllCheck Guess=TCheck SCRF=Check GenChk RB3LYP/6-31G(d) Freq
 --------------------------------------------------------------------

 Structure from the checkpoint file:  "JID_7184.chk"
 -------------------------------
 CID_152601733_JID_7184_neutraal
 -------------------------------
 Charge =  0 Multiplicity = 1

 SCF Done:  E(RB3LYP) =  -758.680810748     A.U. after    1 cycles

  Exact polarizability: 250.978 -30.001 150.786 -10.954  -6.064  83.908
 Approx polarizability: 404.237 -55.257 235.298 -26.680 -13.635 133.273

                      1                      2                      3
                      A                      A                      A
 Frequencies --     20.0478                20.5312                37.9809
 Red. masses --      4.8369                 6.9762                 5.1422
 Frc consts  --      0.0011                 0.0017                 0.0044
 IR Inten    --      0.9760                 0.0598                 2.3567

                      4                      5                      6
                      A                      A                      A
 Frequencies --     55.8745                76.2500                79.5080
 Red. masses --      6.8156                 4.5603                 5.2679
 Frc consts  --      0.0125                 0.0156                 0.0196
 IR Inten    --      1.5293                 0.7885                 0.6489

                      7                      8                      9
                      A                      A                      A
 Frequencies --    123.1000               137.8306               151.0302
 Red. masses --      1.7220                 5.4652                 1.7087
 Frc consts  --      0.0154                 0.0612                 0.0230
 IR Inten    --      7.2220                 2.4221                 2.1633

                     10                     11                     12
                      A                      A                      A
 Frequencies --    152.3302               233.9143               236.2794
 Red. masses --      5.1375                 5.2129                 5.4129
 Frc consts  --      0.0702                 0.1681                 0.1780
 IR Inten    --      0.1520                 0.8092                 0.0814

                     13                     14                     15
                      A                      A                      A
 Frequencies --    272.0922               301.1177               328.7043
 Red. masses --      2.8413                 2.7936                 6.0650
 Frc consts  --      0.1239                 0.1492                 0.3861
 IR Inten    --      2.8008                 3.4284                 1.2629

                     16                     17                     18
                      A                      A                      A
 Frequencies --    387.7136               406.6942               466.3412
 Red. masses --      4.4885                 6.0334                 3.2676
 Frc consts  --      0.3975                 0.5880                 0.4187
 IR Inten    --      1.6831                 0.1316                 2.9828

                     19                     20                     21
                      A                      A                      A
 Frequencies --    474.0536               489.5198               496.1411
 Red. masses --      9.3117                 2.2658                 2.5306
 Frc consts  --      1.2329                 0.3199                 0.3670
 IR Inten    --      0.6410                17.9716                12.8807

                     22                     23                     24
                      A                      A                      A
 Frequencies --    535.9374               540.3475               562.8527
 Red. masses --      3.3688                13.5917                 4.1600
 Frc consts  --      0.5701                 2.3381                 0.7765
 IR Inten    --     34.9596                 8.5883                22.5189

                     25                     26                     27
                      A                      A                      A
 Frequencies --    572.4090               614.6780               679.1545
 Red. masses --      2.5160                 5.7671                 6.9634
 Frc consts  --      0.4857                 1.2838                 1.8924
 IR Inten    --     34.7285                 0.1838                 4.4244

                     28                     29                     30
                      A                      A                      A
 Frequencies --    699.0754               713.8120               737.1963
 Red. masses --      2.2968                 3.5578                 7.8203
 Frc consts  --      0.6613                 1.0681                 2.5040
 IR Inten    --      8.3455                19.3171                37.8477

                     31                     32                     33
                      A                      A                      A
 Frequencies --    776.6514               799.5769               848.8172
 Red. masses --      2.7866                 1.4785                 5.0818
 Frc consts  --      0.9903                 0.5569                 2.1572
 IR Inten    --      0.2418                33.9504                 5.5173

                     34                     35                     36
                      A                      A                      A
 Frequencies --    899.1478               910.2061               938.9773
 Red. masses --      1.3873                 1.4239                 2.6769
 Frc consts  --      0.6608                 0.6950                 1.3906
 IR Inten    --      0.0410                15.7901                11.2958

                     37                     38                     39
                      A                      A                      A
 Frequencies --    964.9727               974.6325              1018.3153
 Red. masses --      2.5850                 1.2757                 6.1594
 Frc consts  --      1.4182                 0.7140                 3.7632
 IR Inten    --      2.7457                 0.2296                 0.3328

                     40                     41                     42
                      A                      A                      A
 Frequencies --   1035.1494              1046.0264              1083.8051
 Red. masses --      1.8557                 2.7556                 2.0001
 Frc consts  --      1.1716                 1.7765                 1.3842
 IR Inten    --      4.3751                 1.4420                23.2448

                     43                     44                     45
                      A                      A                      A
 Frequencies --   1128.6611              1154.8288              1165.8640
 Red. masses --      1.6250                 2.3024                 1.2535
 Frc consts  --      1.2196                 1.8091                 1.0039
 IR Inten    --      5.8654                10.3492                 2.9822

                     46                     47                     48
                      A                      A                      A
 Frequencies --   1194.9998              1206.8716              1215.6819
 Red. masses --      1.2709                 1.1257                 1.9393
 Frc consts  --      1.0693                 0.9661                 1.6886
 IR Inten    --     13.4964                 2.2078                 0.8604

                     49                     50                     51
                      A                      A                      A
 Frequencies --   1245.1003              1289.4295              1322.2036
 Red. masses --      1.2157                 2.9708                 1.9871
 Frc consts  --      1.1104                 2.9102                 2.0468
 IR Inten    --      6.6459                 9.8175                 2.4131

                     52                     53                     54
                      A                      A                      A
 Frequencies --   1331.5246              1362.7844              1368.0686
 Red. masses --      1.5175                 2.5464                 1.9290
 Frc consts  --      1.5852                 2.7863                 2.1272
 IR Inten    --     47.8185                41.9558                75.2007

                     55                     56                     57
                      A                      A                      A
 Frequencies --   1380.4399              1417.7224              1475.9774
 Red. masses --      4.3797                 1.7530                 3.5237
 Frc consts  --      4.9173                 2.0759                 4.5228
 IR Inten    --     91.3612                66.0213                27.8161

                     58                     59                     60
                      A                      A                      A
 Frequencies --   1477.7974              1499.6439              1505.7036
 Red. masses --      1.6473                 1.1928                 1.2040
 Frc consts  --      2.1196                 1.5804                 1.6083
 IR Inten    --     22.9579                 5.5401                20.3177

                     61                     62                     63
                      A                      A                      A
 Frequencies --   1514.8065              1523.8833              1533.0994
 Red. masses --      1.1360                 1.0928                 2.4835
 Frc consts  --      1.5358                 1.4952                 3.4392
 IR Inten    --     16.1592                19.7693                54.4125

                     64                     65                     66
                      A                      A                      A
 Frequencies --   1554.0828              1625.9776              1659.2630
 Red. masses --      1.0608                 5.1404                 6.1396
 Frc consts  --      1.5095                 8.0071                 9.9591
 IR Inten    --     19.7677                36.5705               121.6567

                     67                     68                     69
                      A                      A                      A
 Frequencies --   1790.2213              2267.2493              2352.7886
 Red. masses --      7.9525                13.9812                11.9110
 Frc consts  --     15.0164                42.3441                38.8475
 IR Inten    --    332.7970               833.9125                12.7936

                     70                     71                     72
                      A                      A                      A
 Frequencies --   3045.6120              3050.3827              3083.6470
 Red. masses --      1.0412                 1.0588                 1.0809
 Frc consts  --      5.6903                 5.8046                 6.0557
 IR Inten    --     43.4714                23.1881                 4.9508

                     73                     74                     75
                      A                      A                      A
 Frequencies --   3092.8594              3113.3041              3138.1718
 Red. masses --      1.0811                 1.0974                 1.1052
 Frc consts  --      6.0931                 6.2668                 6.4129
 IR Inten    --     23.8659                22.1836                21.9633

                     76                     77                     78
                      A                      A                      A
 Frequencies --   3150.1999              3194.1358              3208.0727
 Red. masses --      1.1027                 1.0868                 1.0926
 Frc consts  --      6.4473                 6.5328                 6.6253
 IR Inten    --     10.3129                 4.9327                 8.2712

                     79                     80                     81
                      A                      A                      A
 Frequencies --   3224.5201              3229.0475              3610.0749
 Red. masses --      1.0947                 1.0918                 1.0764
 Frc consts  --      6.7065                 6.7073                 8.2656
 IR Inten    --      9.7409                 0.7756                20.9870

 - Thermochemistry -
 -------------------
 Temperature   298.150 Kelvin.  Pressure   1.00000 Atm.
 Atom     1 has atomic number  6 and mass  12.00000

 Molecular mass:   228.10111 amu.
 Principal axes and moments of inertia in atomic units:
                           1         2         3
     Eigenvalues --  2199.839858219.769949798.89137
           X            0.99995   0.00880   0.00556
           Y           -0.00888   0.99985   0.01464
           Z           -0.00543  -0.01469   0.99988
 This molecule is an asymmetric top.
 Rotational symmetry number  1.
 Warning -- assumption of classical behavior for rotation
           may cause significant error
 Rotational temperatures (Kelvin)      0.03937     0.01054     0.00884
 Rotational constants (GHZ):           0.82040     0.21956     0.18418
 Zero-point vibrational energy     595761.2 (Joules/Mol)
                                  142.39035 (Kcal/Mol)
 Warning -- explicit consideration of  26 degrees of freedom as
           vibrations may cause significant error
 Vibrational temperatures:     28.84    29.54    54.65    80.39   109.71
          (Kelvin)            114.39   177.11   198.31   217.30   219.17
                              336.55   339.95   391.48   433.24   472.93
                              557.83   585.14   670.96   682.06   704.31
                              713.84   771.09   777.44   809.82   823.57
                              884.38   977.15  1005.81  1027.02  1060.66
                             1117.43  1150.41  1221.26  1293.67  1309.58
                             1350.98  1388.38  1402.28  1465.13  1489.35
                             1505.00  1559.35  1623.89  1661.54  1677.42
                             1719.34  1736.42  1749.10  1791.42  1855.20
                             1902.36  1915.77  1960.74  1968.35  1986.15
                             2039.79  2123.60  2126.22  2157.65  2166.37
                             2179.47  2192.53  2205.79  2235.98  2339.42
                             2387.31  2575.73  3262.07  3385.14  4381.96
                             4388.82  4436.68  4449.93  4479.35  4515.13
                             4532.44  4595.65  4615.70  4639.37  4645.88
                             5194.09

 Zero-point correction=                           0.226913 (Hartree/Particle)
 Thermal correction to Energy=                    0.243439
 Thermal correction to Enthalpy=                  0.244383
 Thermal correction to Gibbs Free Energy=         0.179507
 Sum of electronic and zero-point Energies=           -758.453897
 Sum of electronic and thermal Energies=              -758.437372
 Sum of electronic and thermal Enthalpies=            -758.436427
 Sum of electronic and thermal Free Energies=         -758.501303

                     E (Thermal)             CV                S
                      KCal/Mol        Cal/Mol-Kelvin    Cal/Mol-Kelvin
 Total                  152.760             59.545            136.543
 Electronic               0.000              0.000              0.000
 Translational            0.889              2.981             42.176
 Rotational               0.889              2.981             33.538
 Vibrational            150.983             53.583             60.830
 Vibration     1          0.593              1.986              6.629
 Vibration     2          0.593              1.986              6.582
 Vibration     3          0.594              1.982              5.362
 Vibration     4          0.596              1.975              4.598
 Vibration     5          0.599              1.965              3.985
 Vibration     6          0.600              1.963              3.903
 Vibration     7          0.610              1.930              3.051
 Vibration     8          0.614              1.916              2.834
 Vibration     9          0.618              1.902              2.659
 Vibration    10          0.619              1.900              2.643
 Vibration    11          0.654              1.789              1.849
 Vibration    12          0.655              1.785              1.831
 Vibration    13          0.675              1.725              1.583
 Vibration    14          0.693              1.672              1.411
 Vibration    15          0.712              1.618              1.266
 Vibration    16          0.756              1.496              1.009
 Vibration    17          0.771              1.456              0.938
 Vibration    18          0.824              1.325              0.748
 Vibration    19          0.831              1.308              0.726
 Vibration    20          0.845              1.273              0.685
 Vibration    21          0.852              1.259              0.668
 Vibration    22          0.891              1.171              0.574
 Vibration    23          0.895              1.161              0.565
 Vibration    24          0.919              1.112              0.518
 Vibration    25          0.929              1.091              0.500
 Vibration    26          0.974              1.001              0.425

 Optimization completed.
    -- Stationary point found.
 Normal termination of Gaussian 16 at Fri Dec 11 12:23:28 2020.

 ----------------------------------------------------------------------
 # B3LYP/6-311++G(d,p) empiricaldispersion=gd3bj scf=xqc pop=npa geom=c
 heck
 ----------------------------------------------------------------------

 ---------------------------------------
 CID_152601733_JID_7184_Energie_neutraal
 ---------------------------------------
 Structure from the checkpoint file:  "JID_7184.chk"
 Charge =  0 Multiplicity = 1

 SCF Done:  E(RB3LYP) =  -758.891017862     A.U. after   18 cycles
 Normal termination of Gaussian 16 at Fri Dec 11 12:28:18 2020.

 ----------------------------------------------------------------------
 # B3LYP/6-311++G(d,p) empiricaldispersion=gd3bj scf=xqc pop=npa geom=c
 heck
 ----------------------------------------------------------------------

 -------------------------------------
 CID_152601733_JID_7184_Energie_kation
 -------------------------------------
 Structure from the checkpoint file:  "JID_7184.chk"
 Charge =  1 Multiplicity = 2

 SCF Done:  E(UB3LYP) =  -758.591370597     A.U. after   33 cycles
 SCF Done:  E(UB3LYP) =  -758.591371994     a.u. after    3 cycles
 Normal termination of Gaussian 16 at Fri Dec 11 13:14:03 2020.
 Gaussian 16:  ES64L-G16RevA.03 25-Dec-2016

 ----------------------------------------------------------------------
 # B3LYP/6-311++G(d,p) empiricaldispersion=gd3bj scf=xqc pop=npa geom=c
 heck
 ----------------------------------------------------------------------

 ------------------------------------
 CID_152601733_JID_7184_Energie_anion
 ------------------------------------
 Structure from the checkpoint file:  "JID_7184.chk"
 Charge = -1 Multiplicity = 2

                         Standard orientation:
 ---------------------------------------------------------------------
 Center     Atomic      Atomic             Coordinates (Angstroms)
 Number     Number       Type             X           Y           Z
 ---------------------------------------------------------------------
      1          6           0       -1.958595   -1.634307   -1.548474
      2          7           0       -2.640745   -1.825059   -0.277127
      3          6           0       -3.572917   -1.016707    0.307594
      4          8           0       -4.025651   -1.258060    1.421137
      5          6           0       -4.020569    0.225393   -0.457631
      6          6           0       -3.477804    1.492292    0.245138
      7          6           0       -2.018408    1.538499    0.202542
      8          6           0       -0.810317    1.469690    0.137922
      9          6           0        0.607170    1.328674    0.061723
     10          6           0        1.177872    0.054471    0.208560
     11          6           0        2.560506   -0.108245    0.122007
     12          6           0        3.391069    0.996565   -0.107895
     13          6           0        2.821208    2.260487   -0.249740
     14          6           0        1.442669    2.436955   -0.168990
     15          7           0        3.037933   -1.436997    0.278585
     16          7           0        4.259518   -1.623207    0.217615
     17          7           0        5.357576   -1.930932    0.182158
     18          1           0       -2.640901   -1.733889   -2.401805
     19          1           0       -1.191131   -2.405926   -1.642115
     20          1           0       -1.465850   -0.658692   -1.596936
     21          1           0       -2.379129   -2.614660    0.298595
     22          1           0       -3.711573    0.219108   -1.505683
     23          1           0       -5.113913    0.244760   -0.421091
     24          1           0       -3.821129    1.476508    1.286807
     25          1           0       -3.904039    2.387164   -0.224746
     26          1           0        0.547386   -0.807226    0.395301
     27          1           0        4.467554    0.869693   -0.174142
     28          1           0        3.464839    3.117090   -0.426685
     29          1           0        1.001823    3.421311   -0.281765
 ---------------------------------------------------------------------

 SCF Done:  E(UB3LYP) =  -758.896645272     A.U. after   33 cycles
 SCF Done:  E(UB3LYP) =  -758.896645272     a.u. after    1 cycles

 The electronic state is 2-A.
 Alpha  occ. eigenvalues --  -18.98980 -14.34773 -14.25334 -14.24414 -14.24284
 Alpha  occ. eigenvalues --  -10.17663 -10.11164 -10.09801 -10.09271 -10.08789
 Alpha  occ. eigenvalues --  -10.06055 -10.05484 -10.05166 -10.04577 -10.04219
 Alpha  occ. eigenvalues --  -10.04208 -10.03869  -1.01758  -0.94132  -0.86339
 Alpha  occ. eigenvalues --   -0.82705  -0.73845  -0.70790  -0.65845  -0.63921
 Alpha  occ. eigenvalues --   -0.61902  -0.60810  -0.56439  -0.52795  -0.49913
 Alpha  occ. eigenvalues --   -0.48048  -0.45172  -0.40509  -0.39871  -0.39471
 Alpha  occ. eigenvalues --   -0.39072  -0.38079  -0.37286  -0.36304  -0.34592
 Alpha  occ. eigenvalues --   -0.33957  -0.33405  -0.32089  -0.31799  -0.31018
 Alpha  occ. eigenvalues --   -0.30821  -0.28943  -0.28075  -0.26816  -0.26464
 Alpha  occ. eigenvalues --   -0.24906  -0.24247  -0.20560  -0.18881  -0.17226
 Alpha  occ. eigenvalues --   -0.16307  -0.16128  -0.14955  -0.11689  -0.10276
 Alpha  occ. eigenvalues --    0.04193
 Alpha virt. eigenvalues --    0.06218   0.07351   0.07714   0.08591   0.08637
 Alpha virt. eigenvalues --    0.09479   0.09623   0.10383   0.10763   0.10995
 Alpha virt. eigenvalues --    0.11874   0.12313   0.12612   0.13609   0.14014

  Beta  occ. eigenvalues --  -18.98974 -14.34517 -14.25030 -14.24409 -14.24374
  Beta  occ. eigenvalues --  -10.17663 -10.11142 -10.09814 -10.09188 -10.08755
  Beta  occ. eigenvalues --  -10.05837 -10.05536 -10.05200 -10.04584 -10.04067
  Beta  occ. eigenvalues --  -10.04062 -10.03572  -1.01316  -0.94124  -0.86168
  Beta  occ. eigenvalues --   -0.82693  -0.73534  -0.70676  -0.65467  -0.63672
  Beta  occ. eigenvalues --   -0.61798  -0.60622  -0.56356  -0.52405  -0.49681
  Beta  occ. eigenvalues --   -0.48003  -0.44998  -0.40465  -0.39830  -0.39056
  Beta  occ. eigenvalues --   -0.38271  -0.37931  -0.37043  -0.36222  -0.34337
  Beta  occ. eigenvalues --   -0.33537  -0.33309  -0.31864  -0.31599  -0.30983
  Beta  occ. eigenvalues --   -0.30736  -0.28891  -0.27946  -0.26704  -0.25746
  Beta  occ. eigenvalues --   -0.24770  -0.24119  -0.19715  -0.18671  -0.16612
  Beta  occ. eigenvalues --   -0.16257  -0.16058  -0.14885  -0.11107  -0.09056
  Beta virt. eigenvalues --    0.06405   0.07529   0.08366   0.08584   0.08878
  Beta virt. eigenvalues --    0.09042   0.09576   0.10079   0.10416   0.10768
  Beta virt. eigenvalues --    0.11048   0.11998   0.12232   0.12601   0.13916

 Mulliken charges and spin densities:
               1          2
     1  C    0.083909  -0.515961
     2  N   -0.262767   0.051329
     3  C   -0.083418   0.049347
     4  O   -0.343427   0.004560
     5  C    0.288676  -0.322803
     6  C   -0.807249   0.193931
     7  C    0.428499  -0.051393
     8  C    0.545215  -0.043861
     9  C    0.869789  -0.060067
    10  C   -1.121926  -0.114774
    11  C   -0.990626   0.207230
    12  C    0.206666   0.342257
    13  C   -0.120860  -0.064075
    14  C   -0.623406   0.135880
    15  N   -0.108459  -0.085557
    16  N    0.296289   0.113676
    17  N   -0.216814   0.186230
    18  H   -0.171661   0.330919
    19  H    0.019645   0.127653
    20  H    0.120023   0.031343
    21  H    0.238594   0.062481
    22  H    0.035255   0.089250
    23  H   -0.053258   0.250790
    24  H    0.173262   0.019276
    25  H    0.122736   0.037714
    26  H    0.121894   0.040615
    27  H    0.137984  -0.021431
    28  H    0.125963   0.005113
    29  H    0.089472   0.000330
 Sum of Mulliken charges =  -1.00000   1.00000

 Dipole moment (field-independent basis, Debye):
    X=             -2.6307    Y=              1.3506    Z=             -1.8066  Tot=              3.4653
 Quadrupole moment (field-independent basis, Debye-Ang):
   XX=           -179.5628   YY=           -120.4165   ZZ=           -119.3266
   XY=              3.5574   XZ=              5.8170   YZ=              1.4038

 Summary of Natural Population Analysis:

                                       Natural Population
                Natural  -----------------------------------------------
    Atom  No    Charge         Core      Valence    Rydberg      Total
 -----------------------------------------------------------------------
      C    1   -0.18643      0.99964     2.17851    0.00828     3.18643
      N    2   -0.31566      0.99967     2.80647    0.00952     3.81566
      C    3    0.34317      0.99967     1.63225    0.02491     2.65683
      O    4   -0.32913      0.99988     3.32361    0.00564     4.32913
      C    5   -0.22307      0.99959     2.21503    0.00845     3.22307
      C    6   -0.22052      0.99958     2.21255    0.00839     3.22052
      C    7   -0.01346      0.99934     2.00417    0.00996     3.01346
      C    8    0.03027      0.99926     1.96103    0.00944     2.96973
      C    9   -0.04386      0.99950     2.03176    0.01260     3.04386
      C   10   -0.09971      0.99949     2.09052    0.00969     3.09971
      C   11    0.07049      0.99942     1.91653    0.01356     2.92951
      C   12   -0.07335      0.99953     2.06625    0.00757     3.07335
      C   13   -0.10857      0.99958     2.10030    0.00868     3.10857
      C   14   -0.06786      0.99954     2.05981    0.00851     3.06786
      N   15   -0.19213      0.99965     2.67901    0.01347     3.69213
      N   16    0.14060      0.99971     2.34322    0.01647     3.35940
      N   17   -0.01972      0.99982     2.50690    0.01301     3.51972
      H   18    0.09052      0.00000     0.40837    0.00111     0.40948
      H   19    0.10204      0.00000     0.39690    0.00105     0.39796
      H   20    0.10865      0.00000     0.39018    0.00117     0.39135
      H   21    0.19312      0.00000     0.30465    0.00222     0.30688
      H   22    0.10243      0.00000     0.39620    0.00137     0.39757
      H   23    0.10819      0.00000     0.39046    0.00135     0.39181
      H   24    0.11542      0.00000     0.38314    0.00144     0.38458
      H   25    0.10566      0.00000     0.39311    0.00123     0.39434
      H   26    0.10270      0.00000     0.39534    0.00196     0.39730
      H   27    0.09491      0.00000     0.40379    0.00130     0.40509
      H   28    0.09295      0.00000     0.40607    0.00098     0.40705
      H   29    0.09490      0.00000     0.40417    0.00093     0.40510
 =======================================================================
   * Total *    0.00258     16.99286    42.80031    0.20425    59.99742

 Normal termination of Gaussian 16 at Fri Dec 11 13:26:59 2020.
