 Gaussian 16, Revision A.03,

 -----------------------------------------------------------
 # opt freq B3LYP/6-31G(d) empiricaldispersion=gd3bj scf=xqc
 -----------------------------------------------------------

 ------------------------------
 CID_84120621_JID_5150_neutraal
 ------------------------------
 Symbolic Z-matrix:
 Charge =  0 Multiplicity = 1

 SCF Done:  E(RB3LYP) =  -692.628831945     A.U. after   15 cycles
 SCF Done:  E(RB3LYP) =  -692.633092292     A.U. after   12 cycles
 SCF Done:  E(RB3LYP) =  -692.626360465     A.U. after   14 cycles
 SCF Done:  E(RB3LYP) =  -692.628190555     A.U. after   13 cycles
 SCF Done:  E(RB3LYP) =  -692.634338941     A.U. after   10 cycles
 SCF Done:  E(RB3LYP) =  -692.634215176     A.U. after   12 cycles
 SCF Done:  E(RB3LYP) =  -692.634854559     A.U. after   12 cycles
 SCF Done:  E(RB3LYP) =  -692.635020494     A.U. after   11 cycles
 SCF Done:  E(RB3LYP) =  -692.634976463     A.U. after   12 cycles
 SCF Done:  E(RB3LYP) =  -692.635131413     A.U. after   11 cycles
 SCF Done:  E(RB3LYP) =  -692.635140154     A.U. after    9 cycles
 SCF Done:  E(RB3LYP) =  -692.635140928     A.U. after    8 cycles
 SCF Done:  E(RB3LYP) =  -692.635141240     A.U. after    8 cycles
 SCF Done:  E(RB3LYP) =  -692.635141298     A.U. after    7 cycles
 Optimization completed.
    -- Stationary point found.
 Normal termination of Gaussian 16 at Thu Dec 10 14:50:58 2020.

 --------------------------------------------------------------------
 #N Geom=AllCheck Guess=TCheck SCRF=Check GenChk RB3LYP/6-31G(d) Freq
 --------------------------------------------------------------------

 Structure from the checkpoint file:  "JID_5150.chk"
 ------------------------------
 CID_84120621_JID_5150_neutraal
 ------------------------------
 Charge =  0 Multiplicity = 1

 SCF Done:  E(RB3LYP) =  -692.635141298     A.U. after    1 cycles

  Exact polarizability: 151.157   8.515 134.511  -9.300   8.148  97.238
 Approx polarizability: 220.902  14.677 208.598 -20.703  19.947 153.666

                      1                      2                      3
                      A                      A                      A
 Frequencies --     60.3729                74.9872                84.1758
 Red. masses --      4.5672                 6.0319                 3.9588
 Frc consts  --      0.0098                 0.0200                 0.0165
 IR Inten    --      0.7333                 0.6996                 0.0783

                      4                      5                      6
                      A                      A                      A
 Frequencies --    116.5786               143.4396               190.2863
 Red. masses --      3.9576                 3.5444                 2.6640
 Frc consts  --      0.0317                 0.0430                 0.0568
 IR Inten    --      1.6958                 4.3150                 2.3624

                      7                      8                      9
                      A                      A                      A
 Frequencies --    207.1014               216.0300               218.3154
 Red. masses --      2.0862                 1.6666                 1.7425
 Frc consts  --      0.0527                 0.0458                 0.0489
 IR Inten    --      0.0984                 0.9433                 2.3636

                     10                     11                     12
                      A                      A                      A
 Frequencies --    243.8625               257.2939               268.8015
 Red. masses --      1.2852                 1.3351                 3.7615
 Frc consts  --      0.0450                 0.0521                 0.1601
 IR Inten    --      1.1174                 0.8384                 0.7107

                     13                     14                     15
                      A                      A                      A
 Frequencies --    287.0528               321.7566               340.8397
 Red. masses --      3.0235                 3.4506                 3.5214
 Frc consts  --      0.1468                 0.2105                 0.2410
 IR Inten    --      0.9635                 0.9469                 2.8553

                     16                     17                     18
                      A                      A                      A
 Frequencies --    365.8029               383.9981               442.2746
 Red. masses --      4.5017                 2.4320                 3.1202
 Frc consts  --      0.3549                 0.2113                 0.3596
 IR Inten    --      1.6799                 2.8541                 0.0652

                     19                     20                     21
                      A                      A                      A
 Frequencies --    469.9781               516.9001               531.5416
 Red. masses --      2.8725                 3.5720                 2.9268
 Frc consts  --      0.3738                 0.5623                 0.4872
 IR Inten    --      2.2650                 3.7901                 2.3079

                     22                     23                     24
                      A                      A                      A
 Frequencies --    548.3078               594.8720               626.0211
 Red. masses --      4.9482                 4.0025                 3.7557
 Frc consts  --      0.8765                 0.8345                 0.8672
 IR Inten    --      4.6610                 7.3313                36.5656

                     25                     26                     27
                      A                      A                      A
 Frequencies --    650.6670               703.4845               744.4662
 Red. masses --      1.4485                 4.3262                 2.0403
 Frc consts  --      0.3613                 1.2614                 0.6663
 IR Inten    --    115.1501                15.2565                14.2119

                     28                     29                     30
                      A                      A                      A
 Frequencies --    776.2728               786.3963               808.7380
 Red. masses --      1.7084                 4.1606                 4.3388
 Frc consts  --      0.6066                 1.5160                 1.6720
 IR Inten    --     19.6041                 6.3615                 5.4122

                     31                     32                     33
                      A                      A                      A
 Frequencies --    849.0991               880.2723               915.5004
 Red. masses --      2.9348                 1.3303                 2.5491
 Frc consts  --      1.2467                 0.6073                 1.2588
 IR Inten    --      5.4512                 0.2613                14.6376

                     34                     35                     36
                      A                      A                      A
 Frequencies --    945.1201               964.0175               981.8706
 Red. masses --      1.3557                 3.1970                 1.2577
 Frc consts  --      0.7135                 1.7505                 0.7144
 IR Inten    --      0.7557                21.9274                 0.0101

                     37                     38                     39
                      A                      A                      A
 Frequencies --   1023.7288              1031.4103              1070.9326
 Red. masses --      1.5464                 1.6414                 1.5877
 Frc consts  --      0.9549                 1.0288                 1.0728
 IR Inten    --      1.0586                 9.3445                10.6259

                     40                     41                     42
                      A                      A                      A
 Frequencies --   1081.3615              1104.3770              1114.2676
 Red. masses --      2.7761                 2.4001                 3.0155
 Frc consts  --      1.9126                 1.7247                 2.2059
 IR Inten    --     50.5632                 9.9566                 7.9753

                     43                     44                     45
                      A                      A                      A
 Frequencies --   1135.6325              1162.7488              1181.5565
 Red. masses --      2.9156                 2.6220                 1.8081
 Frc consts  --      2.2154                 2.0886                 1.4872
 IR Inten    --    115.7772                64.2527                21.1212

                     46                     47                     48
                      A                      A                      A
 Frequencies --   1189.0573              1197.4963              1203.5558
 Red. masses --      1.6131                 1.7783                 1.1864
 Frc consts  --      1.3438                 1.5025                 1.0126
 IR Inten    --     74.2530                64.2462                 8.9758

                     49                     50                     51
                      A                      A                      A
 Frequencies --   1231.8138              1241.9822              1276.1721
 Red. masses --      2.2638                 1.9274                 2.3303
 Frc consts  --      2.0238                 1.7517                 2.2360
 IR Inten    --     32.6247                27.6214                13.0951

                     52                     53                     54
                      A                      A                      A
 Frequencies --   1330.4424              1331.0964              1343.9765
 Red. masses --      1.3721                 1.6319                 4.0437
 Frc consts  --      1.4309                 1.7036                 4.3034
 IR Inten    --     10.9475                 1.0559                 1.7630

                     55                     56                     57
                      A                      A                      A
 Frequencies --   1380.5441              1422.5384              1443.8302
 Red. masses --      2.1166                 1.1992                 1.2332
 Frc consts  --      2.3768                 1.4298                 1.5147
 IR Inten    --     15.0578                 3.9524                 4.6488

                     58                     59                     60
                      A                      A                      A
 Frequencies --   1451.6524              1491.4547              1503.3158
 Red. masses --      1.2230                 1.8637                 1.1640
 Frc consts  --      1.5185                 2.4426                 1.5499
 IR Inten    --     11.2404                 1.9950                 2.2131

                     61                     62                     63
                      A                      A                      A
 Frequencies --   1511.9895              1520.1767              1527.2882
 Red. masses --      1.2279                 1.0578                 1.0913
 Frc consts  --      1.6539                 1.4403                 1.4998
 IR Inten    --      6.5190                 6.8771                 6.2589

                     64                     65                     66
                      A                      A                      A
 Frequencies --   1530.7184              1534.3544              1535.3904
 Red. masses --      1.1759                 1.0720                 1.0952
 Frc consts  --      1.6234                 1.4869                 1.5212
 IR Inten    --      7.0744                 9.6913                 8.0728

                     67                     68                     69
                      A                      A                      A
 Frequencies --   1536.2831              1547.0236              1636.1118
 Red. masses --      1.0854                 1.5985                 5.2677
 Frc consts  --      1.5093                 2.2540                 8.3079
 IR Inten    --      2.6160                17.3179                 0.0969

                     70                     71                     72
                      A                      A                      A
 Frequencies --   1668.0536              1835.3957              3016.1108
 Red. masses --      5.5495                 9.8888                 1.0457
 Frc consts  --      9.0975                19.6269                 5.6048
 IR Inten    --      1.0675               215.1585                46.3580

                     73                     74                     75
                      A                      A                      A
 Frequencies --   3035.2877              3064.4359              3069.0828
 Red. masses --      1.0672                 1.0365                 1.0386
 Frc consts  --      5.7927                 5.7349                 5.7640
 IR Inten    --     44.3654                20.9097                21.3485

                     76                     77                     78
                      A                      A                      A
 Frequencies --   3108.5955              3117.9714              3126.5089
 Red. masses --      1.0875                 1.0960                 1.1019
 Frc consts  --      6.1915                 6.2780                 6.3460
 IR Inten    --     24.8967                19.6269                12.2983

                     79                     80                     81
                      A                      A                      A
 Frequencies --   3134.3447              3139.8487              3147.9249
 Red. masses --      1.1006                 1.0975                 1.1059
 Frc consts  --      6.3703                 6.3750                 6.4569
 IR Inten    --     19.9860                26.1678                37.7734

                     82                     83                     84
                      A                      A                      A
 Frequencies --   3162.7266              3176.4224              3189.9040
 Red. masses --      1.1033                 1.0867                 1.0889
 Frc consts  --      6.5025                 6.4603                 6.5282
 IR Inten    --     19.8105                 9.0440                13.9825

                     85                     86                     87
                      A                      A                      A
 Frequencies --   3206.6264              3233.8114              3685.0231
 Red. masses --      1.0959                 1.0900                 1.0640
 Frc consts  --      6.6394                 6.7162                 8.5124
 IR Inten    --     32.8983                16.8204                56.9941

 - Thermochemistry -
 -------------------
 Temperature   298.150 Kelvin.  Pressure   1.00000 Atm.
 Atom     1 has atomic number  6 and mass  12.00000

 Molecular mass:   208.10994 amu.
 Principal axes and moments of inertia in atomic units:
                           1         2         3
     Eigenvalues --  2072.468183358.038724205.25828
           X            0.99982  -0.01459  -0.01197
           Y            0.01445   0.99982  -0.01225
           Z            0.01215   0.01208   0.99985
 This molecule is an asymmetric top.
 Rotational symmetry number  1.
 Warning -- assumption of classical behavior for rotation
           may cause significant error
 Rotational temperatures (Kelvin)      0.04179     0.02579     0.02060
 Rotational constants (GHZ):           0.87082     0.53744     0.42916
 Zero-point vibrational energy     690597.3 (Joules/Mol)
                                  165.05671 (Kcal/Mol)
 Warning -- explicit consideration of  23 degrees of freedom as
           vibrations may cause significant error
 Vibrational temperatures:     86.86   107.89   121.11   167.73   206.38
          (Kelvin)            273.78   297.97   310.82   314.11   350.86
                              370.19   386.75   413.00   462.94   490.39
                              526.31   552.49   636.33   676.19   743.70
                              764.77   788.89   855.89   900.70   936.16
                             1012.16  1071.12  1116.88  1131.45  1163.59
                             1221.66  1266.52  1317.20  1359.82  1387.01
                             1412.69  1472.92  1483.97  1540.83  1555.84
                             1588.95  1603.18  1633.92  1672.94  1700.00
                             1710.79  1722.93  1731.65  1772.31  1786.94
                             1836.13  1914.21  1915.15  1933.68  1986.30
                             2046.72  2077.35  2088.60  2145.87  2162.94
                             2175.42  2187.20  2197.43  2202.36  2207.59
                             2209.08  2210.37  2225.82  2354.00  2399.96
                             2640.73  4339.51  4367.10  4409.04  4415.73
                             4472.58  4486.07  4498.35  4509.62  4517.54
                             4529.16  4550.46  4570.16  4589.56  4613.62
                             4652.73  5301.93

 Zero-point correction=                           0.263035 (Hartree/Particle)
 Thermal correction to Energy=                    0.277831
 Thermal correction to Enthalpy=                  0.278775
 Thermal correction to Gibbs Free Energy=         0.222310
 Sum of electronic and zero-point Energies=           -692.372107
 Sum of electronic and thermal Energies=              -692.357310
 Sum of electronic and thermal Enthalpies=            -692.356366
 Sum of electronic and thermal Free Energies=         -692.412831

                     E (Thermal)             CV                S
                      KCal/Mol        Cal/Mol-Kelvin    Cal/Mol-Kelvin
 Total                  174.342             57.101            118.840
 Electronic               0.000              0.000              0.000
 Translational            0.889              2.981             41.903
 Rotational               0.889              2.981             31.748
 Vibrational            172.564             51.139             45.189
 Vibration     1          0.597              1.973              4.445
 Vibration     2          0.599              1.966              4.018
 Vibration     3          0.601              1.960              3.791
 Vibration     4          0.608              1.936              3.156
 Vibration     5          0.616              1.910              2.757
 Vibration     6          0.634              1.853              2.225
 Vibration     7          0.641              1.830              2.069
 Vibration     8          0.645              1.817              1.992
 Vibration     9          0.646              1.813              1.973
 Vibration    10          0.659              1.773              1.775
 Vibration    11          0.667              1.750              1.680
 Vibration    12          0.673              1.731              1.604
 Vibration    13          0.684              1.698              1.491
 Vibration    14          0.707              1.632              1.301
 Vibration    15          0.720              1.594              1.208
 Vibration    16          0.739              1.543              1.097
 Vibration    17          0.753              1.504              1.023
 Vibration    18          0.802              1.378              0.819
 Vibration    19          0.827              1.317              0.738
 Vibration    20          0.872              1.213              0.617
 Vibration    21          0.887              1.180              0.584
 Vibration    22          0.904              1.143              0.548
 Vibration    23          0.953              1.043              0.459

 Optimization completed.
    -- Stationary point found.
 Normal termination of Gaussian 16 at Thu Dec 10 15:01:49 2020.

 ----------------------------------------------------------------------
 # B3LYP/6-311++G(d,p) empiricaldispersion=gd3bj scf=xqc pop=npa geom=c
 heck
 ----------------------------------------------------------------------

 --------------------------------------
 CID_84120621_JID_5150_Energie_neutraal
 --------------------------------------
 Structure from the checkpoint file:  "JID_5150.chk"
 Charge =  0 Multiplicity = 1

 SCF Done:  E(RB3LYP) =  -692.836703123     A.U. after   15 cycles
 Normal termination of Gaussian 16 at Thu Dec 10 15:05:57 2020.

 ----------------------------------------------------------------------
 # B3LYP/6-311++G(d,p) empiricaldispersion=gd3bj scf=xqc pop=npa geom=c
 heck
 ----------------------------------------------------------------------

 ------------------------------------
 CID_84120621_JID_5150_Energie_kation
 ------------------------------------
 Structure from the checkpoint file:  "JID_5150.chk"
 Charge =  1 Multiplicity = 2

 SCF Done:  E(UB3LYP) =  -692.526297710     A.U. after   24 cycles
 Normal termination of Gaussian 16 at Thu Dec 10 15:15:02 2020.
 Gaussian 16:  ES64L-G16RevA.03 25-Dec-2016

 ----------------------------------------------------------------------
 # B3LYP/6-311++G(d,p) empiricaldispersion=gd3bj scf=xqc pop=npa geom=c
 heck
 ----------------------------------------------------------------------

 -----------------------------------
 CID_84120621_JID_5150_Energie_anion
 -----------------------------------
 Structure from the checkpoint file:  "JID_5150.chk"
 Charge = -1 Multiplicity = 2

                         Standard orientation:
 ---------------------------------------------------------------------
 Center     Atomic      Atomic             Coordinates (Angstroms)
 Number     Number       Type             X           Y           Z
 ---------------------------------------------------------------------
      1          6           0        1.017320   -2.374591   -0.483900
      2          6           0        1.521597   -0.979445   -0.181976
      3          6           0        2.880486   -0.735483   -0.418622
      4          6           0        3.464798    0.505836   -0.185436
      5          6           0        2.676896    1.537292    0.313634
      6          6           0        1.323292    1.312074    0.555223
      7          6           0        0.712045    0.077861    0.300689
      8          6           0       -0.761693   -0.153076    0.677046
      9          6           0       -0.792116   -0.880859    2.042839
     10          6           0       -1.645003    1.132930    0.865029
     11          8           0       -2.195153    1.689171   -0.304302
     12          6           0       -1.288761    2.360316   -1.166999
     13          6           0       -1.500377   -0.904160   -0.431163
     14          8           0       -1.257141   -0.831245   -1.614565
     15          8           0       -2.547761   -1.625147    0.041612
     16          1           0        0.638269   -2.437563   -1.508907
     17          1           0        1.831765   -3.097756   -0.377097
     18          1           0        0.206539   -2.697580    0.174297
     19          1           0        3.493203   -1.551826   -0.793452
     20          1           0        4.522494    0.658171   -0.380674
     21          1           0        3.105501    2.513942    0.519760
     22          1           0        0.739539    2.133393    0.950507
     23          1           0       -0.404223   -0.203481    2.811255
     24          1           0       -1.806679   -1.180155    2.315002
     25          1           0       -0.155479   -1.768126    2.040113
     26          1           0       -2.511762    0.829624    1.457618
     27          1           0       -1.094168    1.882320    1.449856
     28          1           0       -0.761423    3.169750   -0.640516
     29          1           0       -0.556511    1.674729   -1.604000
     30          1           0       -1.896441    2.793940   -1.964970
     31          1           0       -3.001082   -1.973776   -0.748948
 ---------------------------------------------------------------------

 SCF Done:  E(UB3LYP) =  -692.821319324     A.U. after   33 cycles
 SCF Done:  E(UB3LYP) =  -692.821319324     a.u. after    1 cycles

 The electronic state is 2-A.
 Alpha  occ. eigenvalues --  -19.07327 -19.03474 -19.01740 -10.21052 -10.13275
 Alpha  occ. eigenvalues --  -10.11490 -10.11277 -10.09181 -10.08874 -10.07608
 Alpha  occ. eigenvalues --  -10.07600 -10.07428 -10.07417 -10.07307 -10.06761
 Alpha  occ. eigenvalues --   -1.01511  -0.94744  -0.92423  -0.77124  -0.72462
 Alpha  occ. eigenvalues --   -0.67662  -0.64723  -0.62221  -0.59119  -0.57419
 Alpha  occ. eigenvalues --   -0.54819  -0.52219  -0.49228  -0.46895  -0.42141
 Alpha  occ. eigenvalues --   -0.40960  -0.39541  -0.39257  -0.38416  -0.37255
 Alpha  occ. eigenvalues --   -0.35781  -0.34327  -0.33966  -0.33209  -0.32431
 Alpha  occ. eigenvalues --   -0.31402  -0.31076  -0.29649  -0.29410  -0.28951
 Alpha  occ. eigenvalues --   -0.28542  -0.26969  -0.25924  -0.24699  -0.23828
 Alpha  occ. eigenvalues --   -0.23063  -0.22023  -0.18540  -0.17312  -0.15392
 Alpha  occ. eigenvalues --   -0.14668   0.04426
 Alpha virt. eigenvalues --    0.06003   0.06821   0.07477   0.07949   0.08112
 Alpha virt. eigenvalues --    0.08312   0.08615   0.08996   0.09680   0.10484
 Alpha virt. eigenvalues --    0.11206   0.11282   0.11498   0.12710   0.13289

  Beta  occ. eigenvalues --  -19.07283 -19.03465 -19.01728 -10.21052 -10.13259
  Beta  occ. eigenvalues --  -10.11483 -10.11265 -10.09181 -10.08859 -10.07597
  Beta  occ. eigenvalues --  -10.07588 -10.07416 -10.07395 -10.07279 -10.06741
  Beta  occ. eigenvalues --   -1.01461  -0.94727  -0.92380  -0.77099  -0.72434
  Beta  occ. eigenvalues --   -0.67623  -0.64697  -0.62191  -0.59075  -0.57360
  Beta  occ. eigenvalues --   -0.54774  -0.52167  -0.49182  -0.46837  -0.42099
  Beta  occ. eigenvalues --   -0.40931  -0.39512  -0.39223  -0.38390  -0.37214
  Beta  occ. eigenvalues --   -0.35758  -0.34288  -0.33937  -0.33180  -0.32398
  Beta  occ. eigenvalues --   -0.31358  -0.31038  -0.29624  -0.29376  -0.28924
  Beta  occ. eigenvalues --   -0.28514  -0.26945  -0.25888  -0.24667  -0.23800
  Beta  occ. eigenvalues --   -0.23030  -0.21993  -0.18493  -0.17288  -0.15368
  Beta  occ. eigenvalues --   -0.14610
  Beta virt. eigenvalues --    0.06616   0.07278   0.07481   0.07910   0.08077
  Beta virt. eigenvalues --    0.08396   0.08779   0.08901   0.09389   0.10053
  Beta virt. eigenvalues --    0.10979   0.11486   0.11592   0.11907   0.12978

 Mulliken charges and spin densities:
               1          2
     1  C    1.406366  -1.893544
     2  C   -0.755733   0.999288
     3  C    0.258749  -0.428451
     4  C    0.018713  -0.356238
     5  C    1.594014  -1.982123
     6  C   -0.723711   0.523747
     7  C   -0.124506   0.748362
     8  C   -0.589044   0.982299
     9  C    0.751492  -1.432048
    10  C   -0.217598  -0.292181
    11  O   -0.126559   0.023477
    12  C   -0.055403  -0.291002
    13  C   -0.097119  -0.452767
    14  O   -0.194902   0.017774
    15  O   -0.139857   0.105605
    16  H    0.268284  -0.055426
    17  H   -0.320006   0.481507
    18  H   -0.153915   0.311991
    19  H   -0.086171   0.242406
    20  H   -0.407489   0.563389
    21  H   -0.674744   0.847511
    22  H    0.179618  -0.075375
    23  H   -0.163069   0.326677
    24  H   -0.116762   0.289383
    25  H    0.025706   0.110417
    26  H    0.002559   0.241390
    27  H   -0.352258   0.504613
    28  H   -0.103489   0.236081
    29  H    0.231138  -0.054475
    30  H    0.026004   0.121902
    31  H   -0.360308   0.635812
 Sum of Mulliken charges =  -1.00000   1.00000

 Dipole moment (field-independent basis, Debye):
    X=             -0.6986    Y=              0.5372    Z=             -0.8335  Tot=              1.2130
 Quadrupole moment (field-independent basis, Debye-Ang):
   XX=           -158.1780   YY=           -141.5222   ZZ=           -123.8577
   XY=            -12.1012   XZ=             -1.8441   YZ=             -2.0925

 Summary of Natural Population Analysis:

                                       Natural Population
                Natural  -----------------------------------------------
    Atom  No    Charge         Core      Valence    Rydberg      Total
 -----------------------------------------------------------------------
      C    1   -0.29907      0.99963     2.29340    0.00604     3.29907
      C    2   -0.00571      0.99947     1.99659    0.00965     3.00571
      C    3   -0.09792      0.99951     2.08881    0.00959     3.09792
      C    4   -0.09902      0.99955     2.08940    0.01007     3.09902
      C    5   -0.09886      0.99955     2.08878    0.01053     3.09886
      C    6   -0.09991      0.99950     2.09047    0.00994     3.09991
      C    7   -0.01329      0.99944     1.99993    0.01391     3.01329
      C    8   -0.10136      0.99948     2.08622    0.01565     3.10136
      C    9   -0.28002      0.99963     2.27291    0.00748     3.28002
      C   10    0.00197      0.99954     1.98387    0.01462     2.99803
      O   11   -0.29670      0.99988     3.28727    0.00955     4.29670
      C   12   -0.09946      0.99960     2.09184    0.00801     3.09946
      C   13    0.42002      0.99964     1.55138    0.02897     2.57998
      O   14   -0.30723      0.99986     3.30105    0.00631     4.30723
      O   15   -0.34620      0.99987     3.33851    0.00781     4.34620
      H   16    0.11411      0.00000     0.38484    0.00105     0.38589
      H   17    0.10324      0.00000     0.39573    0.00103     0.39676
      H   18    0.10313      0.00000     0.39556    0.00130     0.39687
      H   19    0.09861      0.00000     0.40038    0.00101     0.40139
      H   20    0.10103      0.00000     0.39782    0.00115     0.39897
      H   21    0.10229      0.00000     0.39599    0.00172     0.39771
      H   22    0.09916      0.00000     0.39846    0.00238     0.40084
      H   23    0.10301      0.00000     0.39587    0.00112     0.39699
      H   24    0.10924      0.00000     0.38925    0.00151     0.39076
      H   25    0.10570      0.00000     0.39320    0.00110     0.39430
      H   26    0.09745      0.00000     0.40066    0.00189     0.40255
      H   27    0.08440      0.00000     0.41400    0.00160     0.41560
      H   28    0.07750      0.00000     0.42107    0.00142     0.42250
      H   29    0.09265      0.00000     0.40590    0.00145     0.40735
      H   30    0.08753      0.00000     0.41151    0.00096     0.41247
      H   31    0.24369      0.00000     0.24614    0.01017     0.25631
 =======================================================================
   * Total *   -0.00000     14.99418    40.80683    0.19899    56.00000

 Normal termination of Gaussian 16 at Thu Dec 10 15:27:45 2020.
