 Gaussian 16, Revision A.03,

 -----------------------------------------------------------
 # opt freq B3LYP/6-31G(d) empiricaldispersion=gd3bj scf=xqc
 -----------------------------------------------------------

 -------------------------------
 CID_121419758_JID_1075_neutraal
 -------------------------------
 Symbolic Z-matrix:
 Charge =  0 Multiplicity = 1

 SCF Done:  E(RB3LYP) =  -496.794627084     A.U. after   14 cycles
 SCF Done:  E(RB3LYP) =  -496.798642910     A.U. after   12 cycles
 SCF Done:  E(RB3LYP) =  -496.799097963     A.U. after   11 cycles
 SCF Done:  E(RB3LYP) =  -496.799365859     A.U. after   11 cycles
 SCF Done:  E(RB3LYP) =  -496.799886390     A.U. after   14 cycles
 SCF Done:  E(RB3LYP) =  -496.800563454     A.U. after   10 cycles
 SCF Done:  E(RB3LYP) =  -496.802422094     A.U. after   11 cycles
 SCF Done:  E(RB3LYP) =  -496.803165152     A.U. after   14 cycles
 SCF Done:  E(RB3LYP) =  -496.803417039     A.U. after   11 cycles
 SCF Done:  E(RB3LYP) =  -496.803467403     A.U. after    9 cycles
 SCF Done:  E(RB3LYP) =  -496.803483183     A.U. after   10 cycles
 SCF Done:  E(RB3LYP) =  -496.803486222     A.U. after    9 cycles
 SCF Done:  E(RB3LYP) =  -496.803486539     A.U. after    7 cycles
 SCF Done:  E(RB3LYP) =  -496.803486581     A.U. after    7 cycles
 Optimization completed.
    -- Stationary point found.
 Normal termination of Gaussian 16 at Tue Dec  8 19:13:20 2020.

 --------------------------------------------------------------------
 #N Geom=AllCheck Guess=TCheck SCRF=Check GenChk RB3LYP/6-31G(d) Freq
 --------------------------------------------------------------------

 Structure from the checkpoint file:  "JID_1075.chk"
 -------------------------------
 CID_121419758_JID_1075_neutraal
 -------------------------------
 Charge =  0 Multiplicity = 1

 SCF Done:  E(RB3LYP) =  -496.803486581     A.U. after    1 cycles

  Exact polarizability: 127.757   1.090 103.013  -1.900   0.989  65.813
 Approx polarizability: 167.817   0.095 165.118  -1.037   4.902 101.393

                      1                      2                      3
                      A                      A                      A
 Frequencies --     80.2917               106.9129               175.8809
 Red. masses --      3.4857                 2.4432                 1.5635
 Frc consts  --      0.0132                 0.0165                 0.0285
 IR Inten    --      0.3591                 1.2641                 4.7355

                      4                      5                      6
                      A                      A                      A
 Frequencies --    184.5978               222.8463               258.6465
 Red. masses --      1.6678                 2.2644                 3.0615
 Frc consts  --      0.0335                 0.0663                 0.1207
 IR Inten    --      0.0732                 9.2932                 0.1017

                      7                      8                      9
                      A                      A                      A
 Frequencies --    324.5518               370.5975               410.7589
 Red. masses --      2.1136                 2.7106                 3.3987
 Frc consts  --      0.1312                 0.2193                 0.3379
 IR Inten    --      2.2335                 2.0346                 6.9562

                     10                     11                     12
                      A                      A                      A
 Frequencies --    415.6430               430.2220               492.6216
 Red. masses --      4.3135                 2.3067                 3.0379
 Frc consts  --      0.4391                 0.2515                 0.4344
 IR Inten    --      3.6281                29.3456                44.5423

                     13                     14                     15
                      A                      A                      A
 Frequencies --    506.2557               587.0392               609.5545
 Red. masses --      3.3505                 3.1754                 2.7813
 Frc consts  --      0.5059                 0.6447                 0.6089
 IR Inten    --     13.1141                29.7196                32.5101

                     16                     17                     18
                      A                      A                      A
 Frequencies --    653.2675               714.6651               783.1535
 Red. masses --      5.0347                 2.7017                 3.9653
 Frc consts  --      1.2659                 0.8130                 1.4329
 IR Inten    --      7.9330                10.3361                 5.8990

                     19                     20                     21
                      A                      A                      A
 Frequencies --    861.4337               881.4960               950.4396
 Red. masses --      2.7975                 2.6793                 1.9582
 Frc consts  --      1.2231                 1.2266                 1.0422
 IR Inten    --     10.6458                19.1993                 0.4915

                     22                     23                     24
                      A                      A                      A
 Frequencies --    975.3137               998.1291              1032.4234
 Red. masses --      1.5875                 2.4359                 1.7962
 Frc consts  --      0.8897                 1.4298                 1.1280
 IR Inten    --      6.6490                 9.7882                 6.9274

                     25                     26                     27
                      A                      A                      A
 Frequencies --   1045.4060              1082.1072              1091.3308
 Red. masses --      1.7741                 2.7888                 1.7675
 Frc consts  --      1.1423                 1.9240                 1.2403
 IR Inten    --      4.2083                17.6217                 1.0084

                     28                     29                     30
                      A                      A                      A
 Frequencies --   1108.9697              1136.9539              1171.8197
 Red. masses --      2.1330                 3.2784                 4.7184
 Frc consts  --      1.5455                 2.4969                 3.8174
 IR Inten    --      4.5469                16.6028                87.7060

                     31                     32                     33
                      A                      A                      A
 Frequencies --   1208.4364              1233.2540              1258.6182
 Red. masses --      2.3949                 1.4260                 1.2282
 Frc consts  --      2.0605                 1.2778                 1.1463
 IR Inten    --      3.1738                 1.3553                11.4914

                     34                     35                     36
                      A                      A                      A
 Frequencies --   1270.1838              1292.8933              1309.0427
 Red. masses --      1.2370                 2.3167                 1.6904
 Frc consts  --      1.1758                 2.2816                 1.7067
 IR Inten    --      7.8993                30.0100                 1.8472

                     37                     38                     39
                      A                      A                      A
 Frequencies --   1327.1849              1365.7778              1392.0970
 Red. masses --      1.3353                 1.7700                 1.5336
 Frc consts  --      1.3858                 1.9453                 1.7511
 IR Inten    --      4.5805                43.3886                 6.9694

                     40                     41                     42
                      A                      A                      A
 Frequencies --   1406.4022              1432.1597              1439.3099
 Red. masses --      1.7139                 1.3887                 1.4470
 Frc consts  --      1.9973                 1.6782                 1.7662
 IR Inten    --      7.8877                 3.1039                29.9882

                     43                     44                     45
                      A                      A                      A
 Frequencies --   1502.7864              1506.2254              1508.7257
 Red. masses --      1.0724                 1.0555                 1.0962
 Frc consts  --      1.4270                 1.4109                 1.4701
 IR Inten    --      4.7393                 7.6145                 2.5092

                     46                     47                     48
                      A                      A                      A
 Frequencies --   1518.4134              1518.8151              1530.3310
 Red. masses --      1.2145                 1.1463                 1.1022
 Frc consts  --      1.6498                 1.5579                 1.5208
 IR Inten    --      8.0509                 6.0998                 1.8070

                     49                     50                     51
                      A                      A                      A
 Frequencies --   1542.1298              1683.4109              1714.1387
 Red. masses --      1.4113                 6.2486                 7.8955
 Frc consts  --      1.9775                10.4331                13.6685
 IR Inten    --     17.0621                16.8747                34.6013

                     52                     53                     54
                      A                      A                      A
 Frequencies --   2889.7249              2944.1625              2996.9280
 Red. masses --      1.0734                 1.0722                 1.0719
 Frc consts  --      5.2810                 5.4760                 5.6721
 IR Inten    --    114.1131                75.3873                57.6474

                     55                     56                     57
                      A                      A                      A
 Frequencies --   3024.7778              3026.8198              3052.3998
 Red. masses --      1.0428                 1.0654                 1.0880
 Frc consts  --      5.6212                 5.7511                 5.9728
 IR Inten    --     36.4955                47.1615                44.8624

                     58                     59                     60
                      A                      A                      A
 Frequencies --   3070.9351              3081.4749              3087.1140
 Red. masses --      1.0977                 1.0950                 1.0868
 Frc consts  --      6.0992                 6.1260                 6.1027
 IR Inten    --     20.3914                24.4187                38.6120

                     61                     62                     63
                      A                      A                      A
 Frequencies --   3115.7787              3157.2534              3574.4643
 Red. masses --      1.0948                 1.0980                 1.0758
 Frc consts  --      6.2621                 6.4488                 8.0983
 IR Inten    --     56.7289                 9.6443                 8.0856

 - Thermochemistry -
 -------------------
 Temperature   298.150 Kelvin.  Pressure   1.00000 Atm.
 Atom     1 has atomic number  6 and mass  12.00000

 Molecular mass:   152.09496 amu.
 Principal axes and moments of inertia in atomic units:
                           1         2         3
     Eigenvalues --   720.116802287.832742899.12255
           X            0.99994   0.00914  -0.00548
           Y           -0.00916   0.99995  -0.00503
           Z            0.00544   0.00508   0.99997
 This molecule is an asymmetric top.
 Rotational symmetry number  1.
 Warning -- assumption of classical behavior for rotation
           may cause significant error
 Rotational temperatures (Kelvin)      0.12028     0.03786     0.02988
 Rotational constants (GHZ):           2.50618     0.78884     0.62251
 Zero-point vibrational energy     518255.2 (Joules/Mol)
                                  123.86596 (Kcal/Mol)
 Warning -- explicit consideration of  15 degrees of freedom as
           vibrations may cause significant error
 Vibrational temperatures:    115.52   153.82   253.05   265.60   320.63
          (Kelvin)            372.13   466.96   533.21   590.99   598.02
                              618.99   708.77   728.39   844.62   877.01
                              939.91  1028.24  1126.78  1239.41  1268.28
                             1367.47  1403.26  1436.09  1485.43  1504.11
                             1556.91  1570.18  1595.56  1635.82  1685.99
                             1738.67  1774.38  1810.87  1827.51  1860.19
                             1883.42  1909.52  1965.05  2002.92  2023.50
                             2060.56  2070.85  2162.17  2167.12  2170.72
                             2184.66  2185.24  2201.80  2218.78  2422.05
                             2466.26  4157.67  4235.99  4311.91  4351.98
                             4354.92  4391.72  4418.39  4433.56  4441.67
                             4482.91  4542.58  5142.86

 Zero-point correction=                           0.197393 (Hartree/Particle)
 Thermal correction to Energy=                    0.207188
 Thermal correction to Enthalpy=                  0.208132
 Thermal correction to Gibbs Free Energy=         0.162516
 Sum of electronic and zero-point Energies=           -496.606094
 Sum of electronic and thermal Energies=              -496.596299
 Sum of electronic and thermal Enthalpies=            -496.595355
 Sum of electronic and thermal Free Energies=         -496.640971

                     E (Thermal)             CV                S
                      KCal/Mol        Cal/Mol-Kelvin    Cal/Mol-Kelvin
 Total                  130.012             38.112             96.008
 Electronic               0.000              0.000              0.000
 Translational            0.889              2.981             40.968
 Rotational               0.889              2.981             29.947
 Vibrational            128.235             32.151             25.092
 Vibration     1          0.600              1.963              3.884
 Vibration     2          0.606              1.944              3.324
 Vibration     3          0.628              1.872              2.372
 Vibration     4          0.631              1.861              2.281
 Vibration     5          0.649              1.806              1.936
 Vibration     6          0.667              1.748              1.671
 Vibration     7          0.709              1.626              1.287
 Vibration     8          0.743              1.533              1.077
 Vibration     9          0.775              1.447              0.924
 Vibration    10          0.779              1.436              0.907
 Vibration    11          0.791              1.404              0.858
 Vibration    12          0.848              1.266              0.677
 Vibration    13          0.861              1.236              0.643
 Vibration    14          0.944              1.059              0.472
 Vibration    15          0.969              1.012              0.434

 Optimization completed.
    -- Stationary point found.
 Normal termination of Gaussian 16 at Tue Dec  8 19:17:59 2020.

 ----------------------------------------------------------------------
 # B3LYP/6-311++G(d,p) empiricaldispersion=gd3bj scf=xqc pop=npa geom=c
 heck
 ----------------------------------------------------------------------

 ---------------------------------------
 CID_121419758_JID_1075_Energie_neutraal
 ---------------------------------------
 Structure from the checkpoint file:  "JID_1075.chk"
 Charge =  0 Multiplicity = 1

 SCF Done:  E(RB3LYP) =  -496.943239358     A.U. after   15 cycles
 Normal termination of Gaussian 16 at Tue Dec  8 19:20:04 2020.

 ----------------------------------------------------------------------
 # B3LYP/6-311++G(d,p) empiricaldispersion=gd3bj scf=xqc pop=npa geom=c
 heck
 ----------------------------------------------------------------------

 -------------------------------------
 CID_121419758_JID_1075_Energie_kation
 -------------------------------------
 Structure from the checkpoint file:  "JID_1075.chk"
 Charge =  1 Multiplicity = 2

 SCF Done:  E(UB3LYP) =  -496.679247856     A.U. after   21 cycles
 Normal termination of Gaussian 16 at Tue Dec  8 19:24:06 2020.
 Gaussian 16:  ES64L-G16RevA.03 25-Dec-2016

 ----------------------------------------------------------------------
 # B3LYP/6-311++G(d,p) empiricaldispersion=gd3bj scf=xqc pop=npa geom=c
 heck
 ----------------------------------------------------------------------

 ------------------------------------
 CID_121419758_JID_1075_Energie_anion
 ------------------------------------
 Structure from the checkpoint file:  "JID_1075.chk"
 Charge = -1 Multiplicity = 2

                         Standard orientation:
 ---------------------------------------------------------------------
 Center     Atomic      Atomic             Coordinates (Angstroms)
 Number     Number       Type             X           Y           Z
 ---------------------------------------------------------------------
      1          6           0        3.497024   -0.782922    0.182609
      2          6           0        2.094143   -0.296159   -0.017684
      3          7           0        1.106218   -1.114852    0.029356
      4          6           0       -0.194587   -0.601383   -0.110384
      5          6           0       -0.435125    0.722487    0.036999
      6          6           0       -1.834448    1.276816    0.120492
      7          8           0       -2.821253    0.348082   -0.274574
      8          6           0       -2.613777   -0.943838    0.297213
      9          6           0       -1.332831   -1.576992   -0.242878
     10          7           0        0.627788    1.592484    0.264681
     11          6           0        1.890938    1.181125   -0.336211
     12          1           0        3.500362   -1.865593    0.324482
     13          1           0        3.959845   -0.303673    1.056107
     14          1           0        4.125994   -0.531688   -0.684028
     15          1           0       -1.948524    2.141162   -0.547061
     16          1           0       -2.019121    1.634928    1.151476
     17          1           0       -2.559613   -0.862552    1.395192
     18          1           0       -3.500884   -1.527527    0.036882
     19          1           0       -1.094305   -2.487047    0.320792
     20          1           0       -1.481356   -1.879652   -1.289410
     21          1           0        0.413062    2.575769    0.152732
     22          1           0        1.905419    1.316323   -1.438628
     23          1           0        2.703090    1.786667    0.078849
 ---------------------------------------------------------------------

 SCF Done:  E(UB3LYP) =  -496.930040518     A.U. after   33 cycles
 SCF Done:  E(UB3LYP) =  -496.930040518     a.u. after    1 cycles

 The electronic state is 2-A.
 Alpha  occ. eigenvalues --  -19.02707 -14.20886 -14.18564 -10.12020 -10.11841
 Alpha  occ. eigenvalues --  -10.09691 -10.09032 -10.08923 -10.06868 -10.06613
 Alpha  occ. eigenvalues --  -10.05828  -0.94238  -0.84677  -0.78554  -0.69159
 Alpha  occ. eigenvalues --   -0.66195  -0.62072  -0.57179  -0.54253  -0.52918
 Alpha  occ. eigenvalues --   -0.45966  -0.42082  -0.40469  -0.38333  -0.36384
 Alpha  occ. eigenvalues --   -0.35860  -0.34001  -0.33118  -0.31976  -0.30115
 Alpha  occ. eigenvalues --   -0.29712  -0.29426  -0.28020  -0.27078  -0.25744
 Alpha  occ. eigenvalues --   -0.21873  -0.21524  -0.18743  -0.16217  -0.13854
 Alpha  occ. eigenvalues --   -0.07608   0.05009
 Alpha virt. eigenvalues --    0.07527   0.07616   0.08087   0.09612   0.09861
 Alpha virt. eigenvalues --    0.10477   0.10667   0.11480   0.11855   0.12538
 Alpha virt. eigenvalues --    0.13165   0.13642   0.15205   0.16077   0.16489

  Beta  occ. eigenvalues --  -19.02703 -14.20818 -14.18519 -10.12016 -10.11814
  Beta  occ. eigenvalues --  -10.09642 -10.08999 -10.08882 -10.06878 -10.06610
  Beta  occ. eigenvalues --  -10.05806  -0.94224  -0.84596  -0.78457  -0.69114
  Beta  occ. eigenvalues --   -0.66149  -0.62003  -0.57086  -0.54196  -0.52845
  Beta  occ. eigenvalues --   -0.45895  -0.42002  -0.40416  -0.38274  -0.36318
  Beta  occ. eigenvalues --   -0.35747  -0.33936  -0.33055  -0.31920  -0.30052
  Beta  occ. eigenvalues --   -0.29662  -0.29382  -0.27975  -0.27024  -0.25709
  Beta  occ. eigenvalues --   -0.21738  -0.21485  -0.18590  -0.16173  -0.13790
  Beta  occ. eigenvalues --   -0.07468
  Beta virt. eigenvalues --    0.07360   0.07981   0.08373   0.08936   0.09806
  Beta virt. eigenvalues --    0.10556   0.10699   0.11059   0.11970   0.12315
  Beta virt. eigenvalues --    0.12963   0.13725   0.14044   0.15371   0.16010

 Mulliken charges and spin densities:
               1          2
     1  C    1.289566  -1.757411
     2  C   -1.664361   1.911694
     3  N   -0.027280   0.088095
     4  C    1.167392  -1.125257
     5  C   -1.409008   1.232402
     6  C    0.688532  -1.179567
     7  O   -0.146300   0.033414
     8  C   -0.141115  -0.136758
     9  C   -0.101038  -0.263390
    10  N   -0.408963   0.414770
    11  C    1.917238  -2.383084
    12  H   -0.039082   0.176877
    13  H   -0.066768   0.218202
    14  H   -0.254668   0.400855
    15  H   -0.490277   0.695268
    16  H    0.010575   0.158118
    17  H    0.070360   0.030677
    18  H    0.163108   0.013043
    19  H    0.124373  -0.004375
    20  H    0.069864   0.083630
    21  H   -0.611834   0.888038
    22  H   -0.400283   0.558001
    23  H   -0.740032   0.946756
 Sum of Mulliken charges =  -1.00000   1.00000

 Dipole moment (field-independent basis, Debye):
    X=             -4.7738    Y=             -7.2081    Z=              2.2895  Tot=              8.9436
 Quadrupole moment (field-independent basis, Debye-Ang):
   XX=           -116.6873   YY=           -117.1824   ZZ=            -90.8537
   XY=             -0.8125   XZ=              0.3041   YZ=              3.2298

 Summary of Natural Population Analysis:

                                       Natural Population
                Natural  -----------------------------------------------
    Atom  No    Charge         Core      Valence    Rydberg      Total
 -----------------------------------------------------------------------
      C    1   -0.30571      0.99963     2.30010    0.00598     3.30571
      C    2    0.15054      0.99960     1.83433    0.01553     2.84946
      N    3   -0.24084      0.99963     2.73011    0.01110     3.74084
      C    4    0.01757      0.99939     1.96774    0.01530     2.98243
      C    5    0.08238      0.99941     1.90546    0.01275     2.91762
      C    6   -0.01850      0.99954     2.00397    0.01500     3.01850
      O    7   -0.29771      0.99989     3.28887    0.00895     4.29771
      C    8   -0.00546      0.99959     1.99467    0.01120     3.00546
      C    9   -0.20584      0.99960     2.19857    0.00767     3.20584
      N   10   -0.31092      0.99967     2.79744    0.01381     3.81092
      C   11   -0.11026      0.99958     2.09748    0.01320     3.11026
      H   12    0.10608      0.00000     0.39254    0.00138     0.39392
      H   13    0.10373      0.00000     0.39514    0.00113     0.39627
      H   14    0.10489      0.00000     0.39325    0.00186     0.39511
      H   15    0.10060      0.00000     0.39653    0.00286     0.39940
      H   16    0.08230      0.00000     0.41621    0.00150     0.41770
      H   17    0.07540      0.00000     0.42313    0.00147     0.42460
      H   18    0.08589      0.00000     0.41293    0.00118     0.41411
      H   19    0.10283      0.00000     0.39550    0.00167     0.39717
      H   20    0.09632      0.00000     0.40210    0.00158     0.40368
      H   21    0.19617      0.00000     0.28292    0.02091     0.30383
      H   22    0.08817      0.00000     0.40764    0.00419     0.41183
      H   23    0.10236      0.00000     0.39505    0.00259     0.39764
 =======================================================================
   * Total *    0.00000     10.99554    29.83167    0.17279    41.00000

 Normal termination of Gaussian 16 at Tue Dec  8 19:30:34 2020.
