 Gaussian 16, Revision A.03,

 -----------------------------------------------------------
 # opt freq B3LYP/6-31G(d) empiricaldispersion=gd3bj scf=xqc
 -----------------------------------------------------------

 ------------------------------
 CID_13437853_JID_5666_neutraal
 ------------------------------
 Symbolic Z-matrix:
 Charge =  0 Multiplicity = 1

 SCF Done:  E(RB3LYP) =  -695.049098324     A.U. after   15 cycles
 SCF Done:  E(RB3LYP) =  -695.055092840     A.U. after   12 cycles
 SCF Done:  E(RB3LYP) =  -695.055638190     A.U. after   11 cycles
 SCF Done:  E(RB3LYP) =  -695.055460534     A.U. after   12 cycles
 SCF Done:  E(RB3LYP) =  -695.055946795     A.U. after   11 cycles
 SCF Done:  E(RB3LYP) =  -695.055972861     A.U. after   10 cycles
 SCF Done:  E(RB3LYP) =  -695.055981784     A.U. after    9 cycles
 SCF Done:  E(RB3LYP) =  -695.055983086     A.U. after    8 cycles
 SCF Done:  E(RB3LYP) =  -695.055983591     A.U. after    7 cycles
 SCF Done:  E(RB3LYP) =  -695.055983721     A.U. after    7 cycles
 SCF Done:  E(RB3LYP) =  -695.055983774     A.U. after    6 cycles
 Optimization completed.
    -- Stationary point found.
 Normal termination of Gaussian 16 at Thu Dec 10 16:34:41 2020.

 --------------------------------------------------------------------
 #N Geom=AllCheck Guess=TCheck SCRF=Check GenChk RB3LYP/6-31G(d) Freq
 --------------------------------------------------------------------

 Structure from the checkpoint file:  "JID_5666.chk"
 ------------------------------
 CID_13437853_JID_5666_neutraal
 ------------------------------
 Charge =  0 Multiplicity = 1

 SCF Done:  E(RB3LYP) =  -695.055983774     A.U. after    1 cycles

  Exact polarizability: 195.697  -7.229 123.687  -1.222  -2.567  99.422
 Approx polarizability: 234.517 -21.379 186.080  -0.271  -5.639 148.090

                      1                      2                      3
                      A                      A                      A
 Frequencies --     28.9478                34.6635                50.3695
 Red. masses --      4.4902                 4.1524                 3.5532
 Frc consts  --      0.0022                 0.0029                 0.0053
 IR Inten    --      0.0033                 1.2365                 0.1882

                      4                      5                      6
                      A                      A                      A
 Frequencies --     66.6698                94.1154                97.9656
 Red. masses --      3.8453                 2.6451                 3.1590
 Frc consts  --      0.0101                 0.0138                 0.0179
 IR Inten    --      0.0720                 0.0774                 0.7050

                      7                      8                      9
                      A                      A                      A
 Frequencies --    130.7645               146.1936               154.7262
 Red. masses --      2.4529                 1.5018                 2.1364
 Frc consts  --      0.0247                 0.0189                 0.0301
 IR Inten    --      0.1089                 0.0792                 0.1288

                     10                     11                     12
                      A                      A                      A
 Frequencies --    162.5926               193.0297               219.4036
 Red. masses --      2.5319                 1.7494                 3.1007
 Frc consts  --      0.0394                 0.0384                 0.0879
 IR Inten    --      0.0565                 0.1323                 2.2193

                     13                     14                     15
                      A                      A                      A
 Frequencies --    246.8336               286.3082               299.3528
 Red. masses --      3.2553                 1.5966                 3.1162
 Frc consts  --      0.1169                 0.0771                 0.1645
 IR Inten    --      3.1806                 0.5632                 4.7425

                     16                     17                     18
                      A                      A                      A
 Frequencies --    311.9740               379.9055               397.4625
 Red. masses --      3.1056                 3.1461                 3.0804
 Frc consts  --      0.1781                 0.2675                 0.2867
 IR Inten    --      3.4108                11.0785                 8.7481

                     19                     20                     21
                      A                      A                      A
 Frequencies --    445.5078               468.3133               506.9486
 Red. masses --      2.0260                 3.0690                 2.2830
 Frc consts  --      0.2369                 0.3966                 0.3457
 IR Inten    --      0.5172                 0.9144                 0.3334

                     22                     23                     24
                      A                      A                      A
 Frequencies --    536.9952               623.5930               710.5925
 Red. masses --      2.9687                 2.5933                 3.2269
 Frc consts  --      0.5044                 0.5942                 0.9600
 IR Inten    --      0.8032                 2.2573                 1.0232

                     25                     26                     27
                      A                      A                      A
 Frequencies --    724.8343               738.1610               740.3689
 Red. masses --      3.9646                 1.6251                 5.2772
 Frc consts  --      1.2272                 0.5217                 1.7043
 IR Inten    --     11.0696                 9.2443                 5.7338

                     28                     29                     30
                      A                      A                      A
 Frequencies --    779.5425               817.9972               841.7321
 Red. masses --      1.6693                 2.3303                 2.7371
 Frc consts  --      0.5977                 0.9187                 1.1426
 IR Inten    --      1.1652                 8.2738                 1.0483

                     31                     32                     33
                      A                      A                      A
 Frequencies --    857.7978               868.6568               877.8707
 Red. masses --      1.4670                 1.7622                 2.7931
 Frc consts  --      0.6360                 0.7834                 1.2682
 IR Inten    --     38.2856                 8.2455                24.4076

                     34                     35                     36
                      A                      A                      A
 Frequencies --    908.2984               929.3713               953.8001
 Red. masses --      2.0112                 2.4960                 1.5205
 Frc consts  --      0.9776                 1.2702                 0.8150
 IR Inten    --      4.2350                51.3196                 5.5705

                     37                     38                     39
                      A                      A                      A
 Frequencies --    973.5986              1008.0698              1024.7747
 Red. masses --      1.8549                 1.9349                 2.5627
 Frc consts  --      1.0359                 1.1585                 1.5856
 IR Inten    --     13.8414                 5.6906                37.6107

                     40                     41                     42
                      A                      A                      A
 Frequencies --   1041.4696              1062.9963              1079.2408
 Red. masses --      1.9318                 1.4388                 1.9256
 Frc consts  --      1.2346                 0.9579                 1.3215
 IR Inten    --     25.3756                 1.2291                 3.2341

                     43                     44                     45
                      A                      A                      A
 Frequencies --   1093.0124              1118.2102              1138.8171
 Red. masses --      7.1658                 1.8325                 1.7092
 Frc consts  --      5.0439                 1.3501                 1.3061
 IR Inten    --    175.0604                 1.4373                 2.1497

                     46                     47                     48
                      A                      A                      A
 Frequencies --   1165.8376              1182.1576              1186.8710
 Red. masses --      2.2013                 1.6355                 1.2839
 Frc consts  --      1.7628                 1.3466                 1.0655
 IR Inten    --     19.2501                31.4327                 1.6712

                     49                     50                     51
                      A                      A                      A
 Frequencies --   1209.3266              1217.4025              1236.4605
 Red. masses --      2.1200                 1.4779                 1.4600
 Frc consts  --      1.8267                 1.2905                 1.3151
 IR Inten    --    436.0859                44.8901                32.0469

                     52                     53                     54
                      A                      A                      A
 Frequencies --   1250.8591              1260.6746              1298.8271
 Red. masses --      1.4517                 1.4253                 1.8435
 Frc consts  --      1.3383                 1.3346                 1.8323
 IR Inten    --     88.7958                 1.2684                67.1206

                     55                     56                     57
                      A                      A                      A
 Frequencies --   1304.7286              1325.7816              1334.6219
 Red. masses --      1.2530                 2.5175                 1.2296
 Frc consts  --      1.2567                 2.6072                 1.2904
 IR Inten    --      0.5320               151.0292                 1.6121

                     58                     59                     60
                      A                      A                      A
 Frequencies --   1337.8479              1361.3912              1380.9904
 Red. masses --      1.2851                 1.1896                 1.8460
 Frc consts  --      1.3551                 1.2991                 2.0743
 IR Inten    --      1.9657                10.0212                40.2329

                     61                     62                     63
                      A                      A                      A
 Frequencies --   1384.1569              1403.8079              1411.3744
 Red. masses --      1.4001                 1.5478                 1.3974
 Frc consts  --      1.5804                 1.7972                 1.6400
 IR Inten    --     18.1031                16.8207                 7.7081

                     64                     65                     66
                      A                      A                      A
 Frequencies --   1420.9839              1437.7104              1445.1027
 Red. masses --      1.4871                 1.5612                 1.2676
 Frc consts  --      1.7692                 1.9013                 1.5597
 IR Inten    --      9.1407                 9.3649                 5.0353

                     67                     68                     69
                      A                      A                      A
 Frequencies --   1492.8280              1499.9833              1510.9343
 Red. masses --      1.2004                 1.0911                 1.0729
 Frc consts  --      1.5761                 1.4465                 1.4431
 IR Inten    --      9.4424                11.4876                 1.1407

                     70                     71                     72
                      A                      A                      A
 Frequencies --   1511.0975              1520.1520              1524.3875
 Red. masses --      1.0498                 1.0743                 1.0980
 Frc consts  --      1.4123                 1.4626                 1.5033
 IR Inten    --      4.1065                 2.4971                 9.9345

                     73                     74                     75
                      A                      A                      A
 Frequencies --   1528.3149              1529.1481              1532.1192
 Red. masses --      1.0827                 1.0562                 1.0639
 Frc consts  --      1.4900                 1.4552                 1.4714
 IR Inten    --      5.9404                 5.4182                 8.5990

                     76                     77                     78
                      A                      A                      A
 Frequencies --   1536.0206              1543.8927              1710.9427
 Red. masses --      1.0652                 1.0782                 9.1030
 Frc consts  --      1.4807                 1.5141                15.7002
 IR Inten    --      2.4679                 2.5278               242.9813

                     79                     80                     81
                      A                      A                      A
 Frequencies --   1793.5943              3027.0384              3035.6254
 Red. masses --     10.6413                 1.0642                 1.0758
 Frc consts  --     20.1694                 5.7454                 5.8407
 IR Inten    --    542.5396                20.2981                38.1056

                     82                     83                     84
                      A                      A                      A
 Frequencies --   3036.8691              3045.1244              3047.8689
 Red. masses --      1.0681                 1.0509                 1.0518
 Frc consts  --      5.8039                 5.7412                 5.7568
 IR Inten    --     15.6933                24.4247                20.8942

                     85                     86                     87
                      A                      A                      A
 Frequencies --   3054.0471              3059.5197              3062.0435
 Red. masses --      1.0644                 1.0956                 1.0746
 Frc consts  --      5.8491                 6.0422                 5.9366
 IR Inten    --     10.9807                19.5124                 4.2994

                     88                     89                     90
                      A                      A                      A
 Frequencies --   3068.5360              3070.0191              3070.5352
 Red. masses --      1.0659                 1.0982                 1.0322
 Frc consts  --      5.9134                 6.0981                 5.7337
 IR Inten    --     35.7174                54.3282                33.9971

                     91                     92                     93
                      A                      A                      A
 Frequencies --   3084.6586              3097.3918              3111.5101
 Red. masses --      1.0985                 1.1024                 1.1016
 Frc consts  --      6.1583                 6.2314                 6.2835
 IR Inten    --     71.5785                59.1463                50.4260

                     94                     95                     96
                      A                      A                      A
 Frequencies --   3118.6726              3131.4775              3143.0460
 Red. masses --      1.1019                 1.0996                 1.1071
 Frc consts  --      6.3144                 6.3531                 6.4439
 IR Inten    --     42.7488                23.6188                24.4618

                     97                     98                     99
                      A                      A                      A
 Frequencies --   3168.1391              3170.0326              3231.3946
 Red. masses --      1.0921                 1.1068                 1.0898
 Frc consts  --      6.4585                 6.5530                 6.7047
 IR Inten    --      4.4026                18.8912                 1.5503

 - Thermochemistry -
 -------------------
 Temperature   298.150 Kelvin.  Pressure   1.00000 Atm.
 Atom     1 has atomic number  6 and mass  12.00000

 Molecular mass:   212.14124 amu.
 Principal axes and moments of inertia in atomic units:
                           1         2         3
     Eigenvalues --   988.009689213.864399687.49112
           X            0.99994   0.01103   0.00002
           Y           -0.01103   0.99993   0.00321
           Z            0.00001  -0.00321   0.99999
 This molecule is an asymmetric top.
 Rotational symmetry number  1.
 Warning -- assumption of classical behavior for rotation
           may cause significant error
 Rotational temperatures (Kelvin)      0.08767     0.00940     0.00894
 Rotational constants (GHZ):           1.82664     0.19587     0.18630
 Zero-point vibrational energy     812238.8 (Joules/Mol)
                                  194.12974 (Kcal/Mol)
 Warning -- explicit consideration of  22 degrees of freedom as
           vibrations may cause significant error
 Vibrational temperatures:     41.65    49.87    72.47    95.92   135.41
          (Kelvin)            140.95   188.14   210.34   222.62   233.93
                              277.73   315.67   355.14   411.93   430.70
                              448.86   546.60   571.86   640.99   673.80
                              729.39   772.62   897.21  1022.38  1042.87
                             1062.05  1065.23  1121.59  1176.92  1211.06
                             1234.18  1249.80  1263.06  1306.84  1337.16
                             1372.31  1400.79  1450.39  1474.42  1498.44
                             1529.41  1552.79  1572.60  1608.86  1638.50
                             1677.38  1700.86  1707.64  1739.95  1751.57
                             1778.99  1799.71  1813.83  1868.72  1877.21
                             1907.50  1920.22  1924.86  1958.74  1986.94
                             1991.49  2019.77  2030.65  2044.48  2068.54
                             2079.18  2147.85  2158.14  2173.90  2174.13
                             2187.16  2193.25  2198.90  2200.10  2204.38
                             2209.99  2221.32  2461.66  2580.58  4355.23
                             4367.59  4369.38  4381.25  4385.20  4394.09
                             4401.97  4405.60  4414.94  4417.07  4417.82
                             4438.14  4456.46  4476.77  4487.07  4505.50
                             4522.14  4558.25  4560.97  4649.26

 Zero-point correction=                           0.309365 (Hartree/Particle)
 Thermal correction to Energy=                    0.325746
 Thermal correction to Enthalpy=                  0.326690
 Thermal correction to Gibbs Free Energy=         0.263760
 Sum of electronic and zero-point Energies=           -694.746618
 Sum of electronic and thermal Energies=              -694.730237
 Sum of electronic and thermal Enthalpies=            -694.729293
 Sum of electronic and thermal Free Energies=         -694.792223

                     E (Thermal)             CV                S
                      KCal/Mol        Cal/Mol-Kelvin    Cal/Mol-Kelvin
 Total                  204.409             59.728            132.448
 Electronic               0.000              0.000              0.000
 Translational            0.889              2.981             41.960
 Rotational               0.889              2.981             32.844
 Vibrational            202.631             53.766             57.643
 Vibration     1          0.593              1.984              5.900
 Vibration     2          0.594              1.983              5.543
 Vibration     3          0.595              1.977              4.803
 Vibration     4          0.598              1.970              4.249
 Vibration     5          0.603              1.953              3.573
 Vibration     6          0.603              1.951              3.494
 Vibration     7          0.612              1.923              2.935
 Vibration     8          0.617              1.907              2.721
 Vibration     9          0.620              1.897              2.613
 Vibration    10          0.623              1.888              2.519
 Vibration    11          0.635              1.850              2.199
 Vibration    12          0.647              1.812              1.964
 Vibration    13          0.661              1.768              1.753
 Vibration    14          0.684              1.699              1.496
 Vibration    15          0.692              1.675              1.421
 Vibration    16          0.700              1.651              1.352
 Vibration    17          0.750              1.513              1.040
 Vibration    18          0.764              1.476              0.972
 Vibration    19          0.805              1.371              0.809
 Vibration    20          0.826              1.320              0.742
 Vibration    21          0.862              1.235              0.641
 Vibration    22          0.892              1.168              0.572

                           ! Non-Optimized Parameters !
 Normal termination of Gaussian 16 at Thu Dec 10 16:44:55 2020.

 ----------------------------------------------------------------------
 # B3LYP/6-311++G(d,p) empiricaldispersion=gd3bj scf=xqc pop=npa geom=c
 heck
 ----------------------------------------------------------------------

 --------------------------------------
 CID_13437853_JID_5666_Energie_neutraal
 --------------------------------------
 Structure from the checkpoint file:  "JID_5666.chk"
 Charge =  0 Multiplicity = 1

 SCF Done:  E(RB3LYP) =  -695.255184298     A.U. after   15 cycles
 Normal termination of Gaussian 16 at Thu Dec 10 16:50:55 2020.

 ----------------------------------------------------------------------
 # B3LYP/6-311++G(d,p) empiricaldispersion=gd3bj scf=xqc pop=npa geom=c
 heck
 ----------------------------------------------------------------------

 ------------------------------------
 CID_13437853_JID_5666_Energie_kation
 ------------------------------------
 Structure from the checkpoint file:  "JID_5666.chk"
 Charge =  1 Multiplicity = 2

 SCF Done:  E(UB3LYP) =  -694.945742390     A.U. after   27 cycles
 Normal termination of Gaussian 16 at Thu Dec 10 17:05:34 2020.
 Gaussian 16:  ES64L-G16RevA.03 25-Dec-2016

 ----------------------------------------------------------------------
 # B3LYP/6-311++G(d,p) empiricaldispersion=gd3bj scf=xqc pop=npa geom=c
 heck
 ----------------------------------------------------------------------

 -----------------------------------
 CID_13437853_JID_5666_Energie_anion
 -----------------------------------
 Structure from the checkpoint file:  "JID_5666.chk"
 Charge = -1 Multiplicity = 2

                         Standard orientation:
 ---------------------------------------------------------------------
 Center     Atomic      Atomic             Coordinates (Angstroms)
 Number     Number       Type             X           Y           Z
 ---------------------------------------------------------------------
      1          6           0       -5.542526   -1.103492   -0.301756
      2          6           0       -4.479248   -0.362483   -1.117625
      3          6           0       -3.976263    0.929332   -0.455634
      4          6           0       -3.340402    0.747543    0.933308
      5          6           0       -2.175447   -0.252043    0.994627
      6          6           0       -1.021428    0.102330    0.070949
      7          6           0       -0.306126    1.424419    0.355787
      8          6           0        1.128070    1.137668   -0.113126
      9          6           0        1.247849   -0.356016    0.081903
     10          6           0        2.332757   -1.157923    0.125240
     11          6           0        3.726570   -0.755421   -0.016765
     12          8           0        4.671682   -1.518549    0.074324
     13          8           0        3.895348    0.577100   -0.279384
     14          6           0        5.259158    0.987928   -0.422793
     15          8           0        0.015484   -0.903498    0.232168
     16          1           0       -5.144484   -1.463194    0.653602
     17          1           0       -5.922538   -1.973833   -0.847554
     18          1           0       -6.394674   -0.449159   -0.079951
     19          1           0       -3.633817   -1.036007   -1.311784
     20          1           0       -4.891729   -0.108365   -2.102511
     21          1           0       -3.258121    1.417051   -1.128745
     22          1           0       -4.817258    1.629413   -0.358287
     23          1           0       -2.996819    1.726506    1.292643
     24          1           0       -4.106943    0.420935    1.645921
     25          1           0       -1.785267   -0.299442    2.018960
     26          1           0       -2.523849   -1.261195    0.746278
     27          1           0       -1.341141    0.061434   -0.978946
     28          1           0       -0.768783    2.270271   -0.158593
     29          1           0       -0.323764    1.628353    1.433074
     30          1           0        1.898103    1.681452    0.432524
     31          1           0        1.262839    1.378075   -1.175137
     32          1           0        2.184935   -2.220335    0.279799
     33          1           0        5.823393    0.790583    0.492904
     34          1           0        5.738958    0.456720   -1.249341
     35          1           0        5.223071    2.059262   -0.626419
 ---------------------------------------------------------------------

 SCF Done:  E(UB3LYP) =  -695.245790243     A.U. after   33 cycles
 SCF Done:  E(UB3LYP) =  -695.245790243     a.u. after    1 cycles

 The electronic state is 2-A.
 Alpha  occ. eigenvalues --  -19.06421 -19.06261 -18.99829 -10.19211 -10.14839
 Alpha  occ. eigenvalues --  -10.13712 -10.13252 -10.08486 -10.08158 -10.07858
 Alpha  occ. eigenvalues --  -10.07534 -10.07192 -10.06918 -10.06675 -10.06375
 Alpha  occ. eigenvalues --   -1.00099  -0.98555  -0.91092  -0.72991  -0.70699
 Alpha  occ. eigenvalues --   -0.69812  -0.66343  -0.63351  -0.60432  -0.57197
 Alpha  occ. eigenvalues --   -0.53777  -0.51368  -0.48638  -0.46210  -0.45845
 Alpha  occ. eigenvalues --   -0.42565  -0.41288  -0.38755  -0.38562  -0.38170
 Alpha  occ. eigenvalues --   -0.37308  -0.35127  -0.34974  -0.33868  -0.32326
 Alpha  occ. eigenvalues --   -0.31547  -0.31279  -0.31015  -0.29578  -0.28883
 Alpha  occ. eigenvalues --   -0.28116  -0.27530  -0.26587  -0.26078  -0.25626
 Alpha  occ. eigenvalues --   -0.24603  -0.23776  -0.22998  -0.22564  -0.21943
 Alpha  occ. eigenvalues --   -0.20811  -0.17808  -0.13887   0.04051
 Alpha virt. eigenvalues --    0.05743   0.06156   0.06933   0.07076   0.07905
 Alpha virt. eigenvalues --    0.08872   0.08996   0.09653   0.09873   0.10317
 Alpha virt. eigenvalues --    0.10410   0.10906   0.11613   0.12013   0.12163

  Beta  occ. eigenvalues --  -19.06410 -19.06214 -18.99780 -10.19165 -10.14725
  Beta  occ. eigenvalues --  -10.13704 -10.13238 -10.08479 -10.08124 -10.07851
  Beta  occ. eigenvalues --  -10.07518 -10.07176 -10.06893 -10.06646 -10.06389
  Beta  occ. eigenvalues --   -1.00049  -0.98454  -0.91021  -0.72952  -0.70592
  Beta  occ. eigenvalues --   -0.69768  -0.66302  -0.63290  -0.60394  -0.57136
  Beta  occ. eigenvalues --   -0.53707  -0.51290  -0.48540  -0.46146  -0.45782
  Beta  occ. eigenvalues --   -0.42471  -0.41221  -0.38695  -0.38510  -0.38122
  Beta  occ. eigenvalues --   -0.37245  -0.35076  -0.34896  -0.33805  -0.32275
  Beta  occ. eigenvalues --   -0.31489  -0.31211  -0.30882  -0.29438  -0.28795
  Beta  occ. eigenvalues --   -0.28061  -0.27479  -0.26546  -0.26043  -0.25571
  Beta  occ. eigenvalues --   -0.24559  -0.23694  -0.22957  -0.22524  -0.21862
  Beta  occ. eigenvalues --   -0.20672  -0.17762  -0.13641
  Beta virt. eigenvalues --    0.06144   0.06389   0.06957   0.07482   0.07673
  Beta virt. eigenvalues --    0.08249   0.09172   0.09333   0.09805   0.10304
  Beta virt. eigenvalues --    0.10481   0.10725   0.11105   0.11811   0.12142

 Mulliken charges and spin densities:
               1          2
     1  C    0.607487  -1.232431
     2  C   -0.303473   0.087893
     3  C    0.272184  -0.529866
     4  C    0.035497  -0.151477
     5  C    0.513994  -0.622507
     6  C   -1.834612   1.439172
     7  C    1.425170  -2.131894
     8  C   -0.611161   0.089470
     9  C   -0.398381   0.003428
    10  C    1.525929  -0.851823
    11  C   -0.394976   0.331451
    12  O   -0.339445   0.020472
    13  O   -0.166239   0.030673
    14  C    0.015255  -0.254479
    15  O    0.010664   0.013490
    16  H    0.025625   0.104418
    17  H   -0.129789   0.265187
    18  H   -0.098074   0.238178
    19  H   -0.044731   0.184253
    20  H   -0.286063   0.440000
    21  H   -0.343334   0.515684
    22  H   -0.442824   0.612918
    23  H   -0.059317   0.213988
    24  H   -0.165399   0.348679
    25  H    0.101855   0.060145
    26  H    0.104565   0.094481
    27  H    0.208485  -0.013561
    28  H   -0.335692   0.530676
    29  H    0.006851   0.171420
    30  H    0.172693   0.024711
    31  H   -0.275255   0.500004
    32  H    0.176956   0.020487
    33  H    0.104421   0.065536
    34  H    0.077720   0.091055
    35  H   -0.156586   0.290170
 Sum of Mulliken charges =  -1.00000   1.00000

 Dipole moment (field-independent basis, Debye):
    X=              3.5712    Y=             -1.3909    Z=              2.5340  Tot=              4.5945
 Quadrupole moment (field-independent basis, Debye-Ang):
   XX=           -207.3719   YY=           -135.7566   ZZ=           -121.5289
   XY=             14.2847   XZ=             -6.4986   YZ=              4.6027

 Summary of Natural Population Analysis:

                                       Natural Population
                Natural  -----------------------------------------------
    Atom  No    Charge         Core      Valence    Rydberg      Total
 -----------------------------------------------------------------------
      C    1   -0.28581      0.99967     2.28175    0.00439     3.28581
      C    2   -0.19326      0.99964     2.18516    0.00846     3.19326
      C    3   -0.19104      0.99963     2.18204    0.00937     3.19104
      C    4   -0.19252      0.99962     2.18357    0.00932     3.19252
      C    5   -0.19685      0.99960     2.18879    0.00846     3.19685
      C    6    0.06598      0.99953     1.92062    0.01387     2.93402
      C    7   -0.20164      0.99962     2.19336    0.00866     3.20164
      C    8   -0.22373      0.99959     2.21593    0.00821     3.22373
      C    9    0.23408      0.99947     1.75121    0.01524     2.76592
      C   10   -0.21665      0.99944     2.20728    0.00992     3.21665
      C   11    0.39253      0.99965     1.58437    0.02345     2.60747
      O   12   -0.31787      0.99988     3.31262    0.00537     4.31787
      O   13   -0.28767      0.99987     3.27938    0.00843     4.28767
      C   14   -0.10284      0.99960     2.09479    0.00844     3.10284
      O   15   -0.26804      0.99986     3.25988    0.00830     4.26804
      H   16    0.09437      0.00000     0.40454    0.00108     0.40563
      H   17    0.09831      0.00000     0.40068    0.00102     0.40169
      H   18    0.09669      0.00000     0.40203    0.00128     0.40331
      H   19    0.09192      0.00000     0.40673    0.00135     0.40808
      H   20    0.09799      0.00000     0.40078    0.00123     0.40201
      H   21    0.09805      0.00000     0.40016    0.00179     0.40195
      H   22    0.09840      0.00000     0.40007    0.00152     0.40160
      H   23    0.09959      0.00000     0.39918    0.00123     0.40041
      H   24    0.09800      0.00000     0.40099    0.00101     0.40200
      H   25    0.10047      0.00000     0.39828    0.00125     0.39953
      H   26    0.10139      0.00000     0.39721    0.00140     0.39861
      H   27    0.08761      0.00000     0.41056    0.00183     0.41239
      H   28    0.11254      0.00000     0.38545    0.00201     0.38746
      H   29    0.09747      0.00000     0.40127    0.00126     0.40253
      H   30    0.11890      0.00000     0.37988    0.00122     0.38110
      H   31    0.11716      0.00000     0.38046    0.00238     0.38284
      H   32    0.11054      0.00000     0.38808    0.00138     0.38946
      H   33    0.08762      0.00000     0.41093    0.00145     0.41238
      H   34    0.08922      0.00000     0.40932    0.00146     0.41078
      H   35    0.08903      0.00000     0.40974    0.00123     0.41097
 =======================================================================
   * Total *    0.00000     14.99465    42.82709    0.17826    58.00000

 Normal termination of Gaussian 16 at Thu Dec 10 17:23:43 2020.
