 Gaussian 16, Revision A.03,

 -----------------------------------------------------------
 # opt freq B3LYP/6-31G(d) empiricaldispersion=gd3bj scf=xqc
 -----------------------------------------------------------

 ------------------------------
 CID_17422817_JID_8230_neutraal
 ------------------------------
 Symbolic Z-matrix:
 Charge =  0 Multiplicity = 1

 SCF Done:  E(RB3LYP) =  -1193.98106349     A.U. after   16 cycles
 SCF Done:  E(RB3LYP) =  -1193.98508472     A.U. after   14 cycles
 SCF Done:  E(RB3LYP) =  -1193.97733881     A.U. after   16 cycles
 SCF Done:  E(RB3LYP) =  -1193.98510710     A.U. after   14 cycles
 SCF Done:  E(RB3LYP) =  -1193.98640718     A.U. after   16 cycles
 SCF Done:  E(RB3LYP) =  -1193.98719200     A.U. after   17 cycles
 SCF Done:  E(RB3LYP) =  -1193.98842977     A.U. after   14 cycles
 SCF Done:  E(RB3LYP) =  -1193.96526026     A.U. after   17 cycles
 SCF Done:  E(RB3LYP) =  -1193.98352625     A.U. after   16 cycles
 SCF Done:  E(RB3LYP) =  -1193.98864110     A.U. after   12 cycles
 SCF Done:  E(RB3LYP) =  -1193.99148474     A.U. after    9 cycles
 SCF Done:  E(RB3LYP) =  -1193.99148554     A.U. after   10 cycles
 SCF Done:  E(RB3LYP) =  -1193.99148667     A.U. after   10 cycles
 SCF Done:  E(RB3LYP) =  -1193.99148747     A.U. after   10 cycles
 SCF Done:  E(RB3LYP) =  -1193.99148756     A.U. after    7 cycles
 SCF Done:  E(RB3LYP) =  -1193.99148759     A.U. after    7 cycles
 Optimization completed.
    -- Stationary point found.
 Normal termination of Gaussian 16 at Fri Dec 11 20:00:50 2020.

 --------------------------------------------------------------------
 #N Geom=AllCheck Guess=TCheck SCRF=Check GenChk RB3LYP/6-31G(d) Freq
 --------------------------------------------------------------------

 Structure from the checkpoint file:  "JID_8230.chk"
 ------------------------------
 CID_17422817_JID_8230_neutraal
 ------------------------------
 Charge =  0 Multiplicity = 1

 SCF Done:  E(RB3LYP) =  -1193.99148759     A.U. after    1 cycles

  Exact polarizability: 170.648 -13.700 168.237  19.022  15.658 123.216
 Approx polarizability: 287.116 -26.047 290.199  45.570  51.105 214.211

                      1                      2                      3
                      A                      A                      A
 Frequencies --     23.8938                39.3850                50.0785
 Red. masses --      3.1814                 3.3788                 3.0277
 Frc consts  --      0.0011                 0.0031                 0.0045
 IR Inten    --      2.1448                 0.8037                 0.1452

                      4                      5                      6
                      A                      A                      A
 Frequencies --     55.6343                69.4659                98.7537
 Red. masses --      3.2208                 3.3671                 6.4654
 Frc consts  --      0.0059                 0.0096                 0.0371
 IR Inten    --      0.5027                 4.5012                 5.4772

                      7                      8                      9
                      A                      A                      A
 Frequencies --    111.5485               151.9954               185.9243
 Red. masses --      5.9817                 4.0291                 5.0374
 Frc consts  --      0.0439                 0.0548                 0.1026
 IR Inten    --      3.0872                 1.0964                 1.2029

                     10                     11                     12
                      A                      A                      A
 Frequencies --    212.0552               219.0955               257.5936
 Red. masses --      3.6551                 3.6315                 1.1263
 Frc consts  --      0.0968                 0.1027                 0.0440
 IR Inten    --      1.4031                 0.8894                 0.8718

                     13                     14                     15
                      A                      A                      A
 Frequencies --    271.2919               286.4499               295.7381
 Red. masses --      4.4219                 4.4910                 4.4140
 Frc consts  --      0.1918                 0.2171                 0.2275
 IR Inten    --      2.2711                 1.5952                 1.0445

                     16                     17                     18
                      A                      A                      A
 Frequencies --    348.9961               400.1432               413.5727
 Red. masses --      5.1485                 8.5893                 4.6810
 Frc consts  --      0.3695                 0.8103                 0.4717
 IR Inten    --      1.0114                 2.3120                 1.9157

                     19                     20                     21
                      A                      A                      A
 Frequencies --    444.6488               454.4338               497.9120
 Red. masses --      3.4844                 5.2518                 7.5435
 Frc consts  --      0.4059                 0.6390                 1.1019
 IR Inten    --      0.1632                 3.8432                 1.3508

                     22                     23                     24
                      A                      A                      A
 Frequencies --    533.4314               541.6566               602.9123
 Red. masses --      7.5589                 5.4362                 4.5477
 Frc consts  --      1.2673                 0.9397                 0.9740
 IR Inten    --      1.4760                 5.0566                 1.4506

                     25                     26                     27
                      A                      A                      A
 Frequencies --    636.4934               666.7860               689.7152
 Red. masses --      4.3922                 4.0514                 6.8864
 Frc consts  --      1.0484                 1.0613                 1.9301
 IR Inten    --     13.0342                13.0920                 8.6527

                     28                     29                     30
                      A                      A                      A
 Frequencies --    702.3793               705.4088               714.7251
 Red. masses --      5.3981                 3.5849                 3.4077
 Frc consts  --      1.5691                 1.0510                 1.0256
 IR Inten    --      5.3578                13.1205                13.9304

                     31                     32                     33
                      A                      A                      A
 Frequencies --    755.3591               811.1464               821.1828
 Red. masses --      5.5965                 5.5878                 1.4448
 Frc consts  --      1.8814                 2.1661                 0.5740
 IR Inten    --     13.8378                24.6393                10.7530

                     34                     35                     36
                      A                      A                      A
 Frequencies --    829.2920               915.2973               940.9423
 Red. masses --      1.6281                 4.0612                 1.4225
 Frc consts  --      0.6597                 2.0046                 0.7420
 IR Inten    --      9.5089                 9.2826                 2.6711

                     37                     38                     39
                      A                      A                      A
 Frequencies --    967.2263               968.8529               994.2737
 Red. masses --      3.1687                 1.8698                 1.3073
 Frc consts  --      1.7466                 1.0341                 0.7615
 IR Inten    --      4.5576                10.0415                 0.1711

                     40                     41                     42
                      A                      A                      A
 Frequencies --   1009.8532              1024.6862              1063.1688
 Red. masses --      1.8766                 5.5977                 6.6045
 Frc consts  --      1.1276                 3.4629                 4.3984
 IR Inten    --      6.9355                 0.4892                 1.7309

                     43                     44                     45
                      A                      A                      A
 Frequencies --   1085.9437              1088.1857              1093.2934
 Red. masses --      1.9207                 1.5976                 1.5339
 Frc consts  --      1.3345                 1.1146                 1.0802
 IR Inten    --     11.0524                 8.0096                12.1252

                     46                     47                     48
                      A                      A                      A
 Frequencies --   1130.3248              1134.4850              1163.9367
 Red. masses --      1.9340                 1.7936                 1.3019
 Frc consts  --      1.4559                 1.3601                 1.0392
 IR Inten    --      8.7420                24.8254                 0.0749

                     49                     50                     51
                      A                      A                      A
 Frequencies --   1184.5616              1201.8564              1230.6565
 Red. masses --      5.1699                 1.1682                 1.6804
 Frc consts  --      4.2741                 0.9942                 1.4994
 IR Inten    --      9.3603                 0.5754                19.2960

                     52                     53                     54
                      A                      A                      A
 Frequencies --   1237.3296              1259.7999              1316.8775
 Red. masses --      1.8238                 1.5434                 1.4155
 Frc consts  --      1.6451                 1.4432                 1.4463
 IR Inten    --      1.0424                11.7585                 5.2768

                     55                     56                     57
                      A                      A                      A
 Frequencies --   1356.6332              1362.1130              1387.8262
 Red. masses --      4.7721                 2.0702                 2.8035
 Frc consts  --      5.1747                 2.2630                 3.1814
 IR Inten    --     12.5408                 1.8964                14.5533

                     58                     59                     60
                      A                      A                      A
 Frequencies --   1394.5073              1400.0151              1445.2481
 Red. masses --      8.9506                13.4041                 1.4211
 Frc consts  --     10.2551                15.4793                 1.7489
 IR Inten    --      3.6962               234.3168                19.2235

                     61                     62                     63
                      A                      A                      A
 Frequencies --   1450.5891              1474.8987              1487.9585
 Red. masses --      3.3624                 1.4811                 2.6546
 Frc consts  --      4.1686                 1.8983                 3.4628
 IR Inten    --     12.1752                 2.5639                 7.3524

                     64                     65                     66
                      A                      A                      A
 Frequencies --   1509.2704              1515.7333              1530.7891
 Red. masses --      1.0433                 1.0664                 2.0450
 Frc consts  --      1.4002                 1.4435                 2.8234
 IR Inten    --      6.4202                 3.2613                 6.0203

                     67                     68                     69
                      A                      A                      A
 Frequencies --   1535.1604              1538.4249              1540.9246
 Red. masses --      1.1378                 1.4685                 1.6696
 Frc consts  --      1.5798                 2.0478                 2.3358
 IR Inten    --      8.9630                29.2154                17.5807

                     70                     71                     72
                      A                      A                      A
 Frequencies --   1628.4066              1641.1207              1680.9652
 Red. masses --      8.5663                 6.3336                 7.9356
 Frc consts  --     13.3834                10.0504                13.2113
 IR Inten    --    151.5490                40.0123                26.7271

                     73                     74                     75
                      A                      A                      A
 Frequencies --   3059.9195              3081.4507              3085.9980
 Red. masses --      1.0394                 1.0854                 1.0318
 Frc consts  --      5.7342                 6.0721                 5.7894
 IR Inten    --     22.8103                 9.4941                19.8540

                     76                     77                     78
                      A                      A                      A
 Frequencies --   3135.5538              3157.4786              3161.7204
 Red. masses --      1.0984                 1.1029                 1.1060
 Frc consts  --      6.3629                 6.4786                 6.5140
 IR Inten    --     10.9343                 7.2852                 4.8226

                     79                     80                     81
                      A                      A                      A
 Frequencies --   3174.2881              3191.5656              3213.9843
 Red. masses --      1.1059                 1.0886                 1.0933
 Frc consts  --      6.5653                 6.5334                 6.6541
 IR Inten    --      4.8077                 5.3493                12.3271

                     82                     83                     84
                      A                      A                      A
 Frequencies --   3255.9811              3257.2890              3280.4928
 Red. masses --      1.0911                 1.0927                 1.0987
 Frc consts  --      6.8155                 6.8309                 6.9662
 IR Inten    --      3.0540                 1.7518                 0.1107

 - Thermochemistry -
 -------------------
 Temperature   298.150 Kelvin.  Pressure   1.00000 Atm.
 Atom     1 has atomic number  6 and mass  12.00000

 Molecular mass:   264.06810 amu.
 Principal axes and moments of inertia in atomic units:
                           1         2         3
     Eigenvalues --  3381.360954850.526556261.67786
           X            0.99974  -0.00084   0.02293
           Y            0.00151   0.99958  -0.02897
           Z           -0.02290   0.02899   0.99932
 This molecule is an asymmetric top.
 Rotational symmetry number  1.
 Warning -- assumption of classical behavior for rotation
           may cause significant error
 Rotational temperatures (Kelvin)      0.02562     0.01786     0.01383
 Rotational constants (GHZ):           0.53373     0.37207     0.28822
 Zero-point vibrational energy     603198.8 (Joules/Mol)
                                  144.16796 (Kcal/Mol)
 Warning -- explicit consideration of  24 degrees of freedom as
           vibrations may cause significant error
 Vibrational temperatures:     34.38    56.67    72.05    80.05    99.95
          (Kelvin)            142.08   160.49   218.69   267.50   305.10
                              315.23   370.62   390.33   412.14   425.50
                              502.13   575.72   595.04   639.75   653.83
                              716.38   767.49   779.32   867.46   915.77
                              959.36   992.35  1010.57  1014.93  1028.33
                             1086.79  1167.06  1181.50  1193.17  1316.91
                             1353.81  1391.62  1393.96  1430.54  1452.95
                             1474.29  1529.66  1562.43  1565.66  1573.01
                             1626.29  1632.27  1674.65  1704.32  1729.20
                             1770.64  1780.24  1812.57  1894.69  1951.89
                             1959.78  1996.77  2006.38  2014.31  2079.39
                             2087.07  2122.05  2140.84  2171.50  2180.80
                             2202.46  2208.75  2213.45  2217.05  2342.91
                             2361.21  2418.53  4402.54  4433.52  4440.06
                             4511.36  4542.91  4549.01  4567.09  4591.95
                             4624.21  4684.63  4686.51  4719.90

 Zero-point correction=                           0.229746 (Hartree/Particle)
 Thermal correction to Energy=                    0.246264
 Thermal correction to Enthalpy=                  0.247208
 Thermal correction to Gibbs Free Energy=         0.183604
 Sum of electronic and zero-point Energies=          -1193.761741
 Sum of electronic and thermal Energies=             -1193.745224
 Sum of electronic and thermal Enthalpies=           -1193.744280
 Sum of electronic and thermal Free Energies=        -1193.807884

                     E (Thermal)             CV                S
                      KCal/Mol        Cal/Mol-Kelvin    Cal/Mol-Kelvin
 Total                  154.533             60.853            133.866
 Electronic               0.000              0.000              0.000
 Translational            0.889              2.981             42.612
 Rotational               0.889              2.981             32.996
 Vibrational            152.755             54.891             58.258
 Vibration     1          0.593              1.985              6.281
 Vibration     2          0.594              1.981              5.290
 Vibration     3          0.595              1.978              4.814
 Vibration     4          0.596              1.975              4.606
 Vibration     5          0.598              1.969              4.168
 Vibration     6          0.604              1.950              3.479
 Vibration     7          0.607              1.940              3.242
 Vibration     8          0.619              1.900              2.647
 Vibration     9          0.632              1.859              2.268
 Vibration    10          0.643              1.823              2.026
 Vibration    11          0.647              1.812              1.967
 Vibration    12          0.667              1.750              1.678
 Vibration    13          0.675              1.726              1.588
 Vibration    14          0.684              1.699              1.495
 Vibration    15          0.690              1.682              1.441
 Vibration    16          0.726              1.577              1.171
 Vibration    17          0.766              1.470              0.962
 Vibration    18          0.777              1.441              0.914
 Vibration    19          0.804              1.373              0.812
 Vibration    20          0.813              1.351              0.782
 Vibration    21          0.853              1.255              0.663
 Vibration    22          0.888              1.176              0.580
 Vibration    23          0.897              1.158              0.562
 Vibration    24          0.961              1.026              0.445

                           ! Non-Optimized Parameters !
 Normal termination of Gaussian 16 at Fri Dec 11 20:14:20 2020.

 ----------------------------------------------------------------------
 # B3LYP/6-311++G(d,p) empiricaldispersion=gd3bj scf=xqc pop=npa geom=c
 heck
 ----------------------------------------------------------------------

 --------------------------------------
 CID_17422817_JID_8230_Energie_neutraal
 --------------------------------------
 Structure from the checkpoint file:  "JID_8230.chk"
 Charge =  0 Multiplicity = 1

 SCF Done:  E(RB3LYP) =  -1194.23312379     A.U. after   17 cycles
 Normal termination of Gaussian 16 at Fri Dec 11 20:19:44 2020.

 ----------------------------------------------------------------------
 # B3LYP/6-311++G(d,p) empiricaldispersion=gd3bj scf=xqc pop=npa geom=c
 heck
 ----------------------------------------------------------------------

 ------------------------------------
 CID_17422817_JID_8230_Energie_kation
 ------------------------------------
 Structure from the checkpoint file:  "JID_8230.chk"
 Charge =  1 Multiplicity = 2

 SCF Done:  E(UB3LYP) =  -1193.91164328     A.U. after   31 cycles
 Normal termination of Gaussian 16 at Fri Dec 11 20:33:08 2020.
 Gaussian 16:  ES64L-G16RevA.03 25-Dec-2016

 ----------------------------------------------------------------------
 # B3LYP/6-311++G(d,p) empiricaldispersion=gd3bj scf=xqc pop=npa geom=c
 heck
 ----------------------------------------------------------------------

 -----------------------------------
 CID_17422817_JID_8230_Energie_anion
 -----------------------------------
 Structure from the checkpoint file:  "JID_8230.chk"
 Charge = -1 Multiplicity = 2

                         Standard orientation:
 ---------------------------------------------------------------------
 Center     Atomic      Atomic             Coordinates (Angstroms)
 Number     Number       Type             X           Y           Z
 ---------------------------------------------------------------------
      1          6           0        1.808656   -1.405086    2.155265
      2          6           0        1.476654   -1.777995    0.712626
      3          6           0        0.030325   -1.607903    0.320102
      4          6           0       -0.699742   -0.481489    0.714973
      5          6           0       -1.999066   -0.319485    0.243895
      6          6           0       -2.622994   -1.251046   -0.581496
      7          6           0       -1.899779   -2.381483   -0.954890
      8          6           0       -0.586953   -2.550635   -0.514862
      9          7           0       -2.734638    0.902369    0.610924
     10          8           0       -2.131633    1.760602    1.252899
     11          8           0       -3.904061    0.996860    0.238414
     12         16           0        2.573993   -0.844499   -0.504380
     13          6           0        1.933459    0.775078   -0.283215
     14          7           0        2.184320    1.579458    0.735284
     15          7           0        1.424350    2.714625    0.569759
     16          6           0        0.742574    2.565311   -0.545032
     17          7           0        1.017027    1.364962   -1.130739
     18          6           0        0.443810    0.817746   -2.350906
     19          1           0        1.710382   -0.329857    2.323795
     20          1           0        2.841192   -1.680356    2.384790
     21          1           0        1.138624   -1.937133    2.840741
     22          1           0        1.775101   -2.813383    0.517621
     23          1           0       -0.272917    0.280971    1.353376
     24          1           0       -3.639031   -1.079588   -0.912575
     25          1           0       -2.358655   -3.128335   -1.595054
     26          1           0       -0.023910   -3.425055   -0.830206
     27          1           0        0.046891    3.280917   -0.960132
     28          1           0        1.227153    0.632445   -3.089370
     29          1           0       -0.075269   -0.118551   -2.136851
     30          1           0       -0.266968    1.542238   -2.751919
 ---------------------------------------------------------------------

 SCF Done:  E(UB3LYP) =  -1194.27998789     A.U. after   25 cycles

 The electronic state is 2-A.
 Alpha  occ. eigenvalues --  -88.75559 -18.94806 -18.94754 -14.32545 -14.28811
 Alpha  occ. eigenvalues --  -14.22572 -14.22185 -10.15245 -10.13308 -10.12679
 Alpha  occ. eigenvalues --  -10.11686 -10.06676 -10.06521 -10.06506 -10.05533
 Alpha  occ. eigenvalues --  -10.04564 -10.04380 -10.04343  -7.84191  -5.80602
 Alpha  occ. eigenvalues --   -5.80216  -5.79540  -1.02903  -0.96556  -0.85794
 Alpha  occ. eigenvalues --   -0.83123  -0.75380  -0.73000  -0.69619  -0.64511
 Alpha  occ. eigenvalues --   -0.64210  -0.62512  -0.61152  -0.54380  -0.53122
 Alpha  occ. eigenvalues --   -0.52605  -0.48180  -0.46492  -0.44168  -0.42058
 Alpha  occ. eigenvalues --   -0.39765  -0.39049  -0.36473  -0.35988  -0.35235
 Alpha  occ. eigenvalues --   -0.35029  -0.34666  -0.33177  -0.32954  -0.32043
 Alpha  occ. eigenvalues --   -0.31644  -0.30928  -0.30372  -0.28369  -0.26496
 Alpha  occ. eigenvalues --   -0.25947  -0.24046  -0.23373  -0.22413  -0.21413
 Alpha  occ. eigenvalues --   -0.19426  -0.16673  -0.16122  -0.15187  -0.14347
 Alpha  occ. eigenvalues --   -0.13627  -0.12728  -0.12567  -0.10534   0.01941
 Alpha virt. eigenvalues --    0.06769   0.07222   0.08272   0.08889   0.09791
 Alpha virt. eigenvalues --    0.10275   0.10584   0.11196   0.11774   0.12072
 Alpha virt. eigenvalues --    0.12162   0.12618   0.13477   0.13944   0.14102

  Beta  occ. eigenvalues --  -88.75560 -18.94339 -18.94257 -14.31952 -14.28806
  Beta  occ. eigenvalues --  -14.22572 -14.22185 -10.15243 -10.13308 -10.12679
  Beta  occ. eigenvalues --  -10.11681 -10.06575 -10.06552 -10.06507 -10.05598
  Beta  occ. eigenvalues --  -10.04273 -10.04246 -10.04186  -7.84192  -5.80605
  Beta  occ. eigenvalues --   -5.80218  -5.79543  -1.01877  -0.96552  -0.84886
  Beta  occ. eigenvalues --   -0.83118  -0.75234  -0.72874  -0.69535  -0.64301
  Beta  occ. eigenvalues --   -0.63845  -0.62371  -0.61086  -0.53773  -0.52895
  Beta  occ. eigenvalues --   -0.52328  -0.48149  -0.46368  -0.43907  -0.41961
  Beta  occ. eigenvalues --   -0.39553  -0.38784  -0.36456  -0.35816  -0.34859
  Beta  occ. eigenvalues --   -0.34337  -0.32965  -0.32915  -0.32325  -0.31918
  Beta  occ. eigenvalues --   -0.31411  -0.30842  -0.30130  -0.28262  -0.26403
  Beta  occ. eigenvalues --   -0.25768  -0.23840  -0.22774  -0.22331  -0.21406
  Beta  occ. eigenvalues --   -0.19405  -0.16666  -0.16055  -0.14971  -0.13030
  Beta  occ. eigenvalues --   -0.12090  -0.11883  -0.10552  -0.10042
  Beta virt. eigenvalues --    0.06831   0.07179   0.08297   0.08688   0.08855
  Beta virt. eigenvalues --    0.09768   0.10352   0.10665   0.11169   0.11790
  Beta virt. eigenvalues --    0.12203   0.12277   0.13447   0.13706   0.13917

 Mulliken charges and spin densities:
               1          2
     1  C   -0.817664   0.004284
     2  C    0.076621   0.005428
     3  C    0.356716  -0.048938
     4  C   -0.003241   0.094166
     5  C   -0.104825   0.001447
     6  C   -0.243201   0.194886
     7  C   -0.374900  -0.047677
     8  C   -0.623945   0.247683
     9  N   -0.285123   0.198291
    10  O   -0.194769   0.188322
    11  O   -0.137039   0.179377
    12  S    0.133319  -0.014346
    13  C   -0.540056  -0.023136
    14  N    0.013429   0.007910
    15  N   -0.050082  -0.007567
    16  C   -0.155555   0.027764
    17  N    0.226939   0.002645
    18  C   -0.390853  -0.004908
    19  H    0.187621  -0.002304
    20  H    0.135468   0.000907
    21  H    0.129369  -0.000043
    22  H    0.246001   0.003261
    23  H    0.255481  -0.001491
    24  H    0.215049  -0.009500
    25  H    0.135176   0.003281
    26  H    0.111816  -0.019777
    27  H    0.168291   0.012076
    28  H    0.150895   0.000391
    29  H    0.256124  -0.000838
    30  H    0.122941   0.008410
 Sum of Mulliken charges =  -1.00000   1.00000

 Dipole moment (field-independent basis, Debye):
    X=              6.3015    Y=             -4.8892    Z=             -5.5865  Tot=              9.7377
 Quadrupole moment (field-independent basis, Debye-Ang):
   XX=           -169.4365   YY=           -136.0363   ZZ=           -119.1244
   XY=              3.8973   XZ=              3.4651   YZ=            -14.8651

 Summary of Natural Population Analysis:

                                       Natural Population
                Natural  -----------------------------------------------
    Atom  No    Charge         Core      Valence    Rydberg      Total
 -----------------------------------------------------------------------
      C    1   -0.29304      0.99963     2.28751    0.00589     3.29304
      C    2   -0.14233      0.99952     2.13207    0.01074     3.14233
      C    3   -0.05592      0.99948     2.04267    0.01377     3.05592
      C    4   -0.08141      0.99947     2.07061    0.01134     3.08141
      C    5    0.05745      0.99939     1.92723    0.01593     2.94255
      C    6   -0.06908      0.99952     2.06044    0.00912     3.06908
      C    7   -0.12517      0.99958     2.11666    0.00893     3.12517
      C    8   -0.04796      0.99952     2.04022    0.00822     3.04796
      N    9    0.30099      0.99972     2.17214    0.02715     3.19901
      O   10   -0.18855      0.99990     3.17990    0.00875     4.18855
      O   11   -0.19552      0.99990     3.18813    0.00750     4.19552
      S   12    0.09899      4.99953     2.88385    0.01762     7.90101
      C   13    0.09009      0.99955     1.88715    0.02321     2.90991
      N   14   -0.16224      0.99966     2.64844    0.01413     3.66224
      N   15   -0.15454      0.99973     2.64056    0.01424     3.65454
      C   16    0.10878      0.99965     1.87620    0.01538     2.89122
      N   17   -0.21309      0.99958     2.70095    0.01256     3.71309
      C   18   -0.17659      0.99964     2.17010    0.00685     3.17659
      H   19    0.11603      0.00000     0.38289    0.00107     0.38397
      H   20    0.09775      0.00000     0.40138    0.00087     0.40225
      H   21    0.10185      0.00000     0.39727    0.00089     0.39815
      H   22    0.10109      0.00000     0.39752    0.00139     0.39891
      H   23    0.12044      0.00000     0.37796    0.00160     0.37956
      H   24    0.11353      0.00000     0.38537    0.00110     0.38647
      H   25    0.09340      0.00000     0.40559    0.00101     0.40660
      H   26    0.08831      0.00000     0.41038    0.00130     0.41169
      H   27    0.10028      0.00000     0.39861    0.00110     0.39972
      H   28    0.09688      0.00000     0.40222    0.00090     0.40312
      H   29    0.11846      0.00000     0.38049    0.00105     0.38154
      H   30    0.10111      0.00000     0.39815    0.00074     0.39889
 =======================================================================
   * Total *    0.00000     21.99299    46.76267    0.24434    69.00000

 Normal termination of Gaussian 16 at Fri Dec 11 20:43:59 2020.
