 Gaussian 16, Revision A.03,

 -----------------------------------------------------------
 # opt freq B3LYP/6-31G(d) empiricaldispersion=gd3bj scf=xqc
 -----------------------------------------------------------

 ------------------------------
 CID_87865363_JID_7602_neutraal
 ------------------------------
 Symbolic Z-matrix:
 Charge =  0 Multiplicity = 1

 SCF Done:  E(RB3LYP) =  -913.357179732     A.U. after   17 cycles
 SCF Done:  E(RB3LYP) =  -913.380027524     A.U. after   14 cycles
 SCF Done:  E(RB3LYP) =  -913.386535891     A.U. after   14 cycles
 SCF Done:  E(RB3LYP) =  -913.386178177     A.U. after   14 cycles
 SCF Done:  E(RB3LYP) =  -913.388692104     A.U. after   13 cycles
 SCF Done:  E(RB3LYP) =  -913.388977833     A.U. after   13 cycles
 SCF Done:  E(RB3LYP) =  -913.389264490     A.U. after   12 cycles
 SCF Done:  E(RB3LYP) =  -913.389430095     A.U. after   12 cycles
 SCF Done:  E(RB3LYP) =  -913.389522176     A.U. after   12 cycles
 SCF Done:  E(RB3LYP) =  -913.389654829     A.U. after   12 cycles
 SCF Done:  E(RB3LYP) =  -913.399115403     A.U. after   11 cycles
 SCF Done:  E(RB3LYP) =  -913.399116405     A.U. after    9 cycles
 SCF Done:  E(RB3LYP) =  -913.399116013     A.U. after   10 cycles
 SCF Done:  E(RB3LYP) =  -913.399118839     A.U. after    9 cycles
 SCF Done:  E(RB3LYP) =  -913.399119023     A.U. after    8 cycles
 SCF Done:  E(RB3LYP) =  -913.399119049     A.U. after    7 cycles
 Optimization completed.
    -- Stationary point found.
 Normal termination of Gaussian 16 at Fri Dec 11 13:27:56 2020.

 --------------------------------------------------------------------
 #N Geom=AllCheck Guess=TCheck SCRF=Check GenChk RB3LYP/6-31G(d) Freq
 --------------------------------------------------------------------

 Structure from the checkpoint file:  "JID_7602.chk"
 ------------------------------
 CID_87865363_JID_7602_neutraal
 ------------------------------
 Charge =  0 Multiplicity = 1

 SCF Done:  E(RB3LYP) =  -913.399119049     A.U. after    1 cycles

  Exact polarizability: 148.749   2.051 131.666   2.932   4.937 101.403
 Approx polarizability: 188.677   3.180 191.738  17.320  11.841 174.613

                      1                      2                      3
                      A                      A                      A
 Frequencies --     32.7853                40.2008                53.1488
 Red. masses --      3.5143                 3.0617                 3.9972
 Frc consts  --      0.0022                 0.0029                 0.0067
 IR Inten    --      0.1707                 0.4921                 1.8877

                      4                      5                      6
                      A                      A                      A
 Frequencies --     55.1279                71.6542                82.8732
 Red. masses --      2.9735                 5.1493                 3.2203
 Frc consts  --      0.0053                 0.0156                 0.0130
 IR Inten    --      0.2363                 0.2323                 0.4821

                      7                      8                      9
                      A                      A                      A
 Frequencies --     89.6821                92.4593               117.2457
 Red. masses --      3.1459                 6.2230                 5.4912
 Frc consts  --      0.0149                 0.0313                 0.0445
 IR Inten    --      0.1559                 0.7894                 0.2107

                     10                     11                     12
                      A                      A                      A
 Frequencies --    151.9231               165.2548               198.4139
 Red. masses --      4.6169                 3.5540                 2.0393
 Frc consts  --      0.0628                 0.0572                 0.0473
 IR Inten    --      6.8180                 0.8401                 1.8437

                     13                     14                     15
                      A                      A                      A
 Frequencies --    206.5627               226.3431               227.4149
 Red. masses --      1.7498                 1.4160                 1.6618
 Frc consts  --      0.0440                 0.0427                 0.0506
 IR Inten    --      0.8697                 0.9442                 0.4655

                     16                     17                     18
                      A                      A                      A
 Frequencies --    261.5287               269.5639               285.6016
 Red. masses --      2.3615                 3.7507                 3.5307
 Frc consts  --      0.0952                 0.1606                 0.1697
 IR Inten    --      2.6095                38.6280                15.9721

                     19                     20                     21
                      A                      A                      A
 Frequencies --    317.2189               334.7056               341.6183
 Red. masses --      7.0337                 2.8742                 3.3577
 Frc consts  --      0.4170                 0.1897                 0.2309
 IR Inten    --      0.5622                 1.8233                30.8188

                     22                     23                     24
                      A                      A                      A
 Frequencies --    387.8586               427.9020               436.2094
 Red. masses --      4.2844                 6.4059                 3.5567
 Frc consts  --      0.3797                 0.6911                 0.3987
 IR Inten    --      3.6502                 4.5931                 3.7851

                     25                     26                     27
                      A                      A                      A
 Frequencies --    463.0987               520.2620               578.1609
 Red. masses --      3.5775                 5.1429                 3.7376
 Frc consts  --      0.4520                 0.8202                 0.7361
 IR Inten    --      2.2798                31.5792                35.0854

                     28                     29                     30
                      A                      A                      A
 Frequencies --    616.8731               659.2893               685.7278
 Red. masses --      4.8545                 6.1987                 4.9375
 Frc consts  --      1.0884                 1.5875                 1.3679
 IR Inten    --     68.7947                19.7079                11.7936

                     31                     32                     33
                      A                      A                      A
 Frequencies --    712.4065               755.6295               800.1356
 Red. masses --      5.3549                 2.9588                 1.6501
 Frc consts  --      1.6013                 0.9954                 0.6224
 IR Inten    --     13.2184                16.9649                 0.3069

                     34                     35                     36
                      A                      A                      A
 Frequencies --    806.1508               810.1109               821.2558
 Red. masses --      2.1505                 1.3809                 1.3840
 Frc consts  --      0.8234                 0.5340                 0.5500
 IR Inten    --     41.6170                 2.7833                20.7754

                     37                     38                     39
                      A                      A                      A
 Frequencies --    857.0365               871.7994               886.6362
 Red. masses --      2.1823                 2.8703                 4.7921
 Frc consts  --      0.9444                 1.2853                 2.2195
 IR Inten    --      4.9701                40.2420                18.9880

                     40                     41                     42
                      A                      A                      A
 Frequencies --    902.2825               975.6335               979.7932
 Red. masses --      2.7869                 2.5009                 2.7899
 Frc consts  --      1.3368                 1.4025                 1.5780
 IR Inten    --      5.4174                 9.6593                60.2252

                     43                     44                     45
                      A                      A                      A
 Frequencies --   1016.7464              1042.2818              1069.9844
 Red. masses --      3.5405                 3.1964                 4.9940
 Frc consts  --      2.1565                 2.0459                 3.3687
 IR Inten    --    100.7199                76.6305                66.6104

                     46                     47                     48
                      A                      A                      A
 Frequencies --   1089.1129              1099.2385              1121.4587
 Red. masses --      2.8455                 3.5863                 3.2942
 Frc consts  --      1.9886                 2.5532                 2.4410
 IR Inten    --     61.3887                29.6089                31.7092

                     49                     50                     51
                      A                      A                      A
 Frequencies --   1131.6494              1137.7348              1163.6887
 Red. masses --      1.9838                 2.1490                 1.9741
 Frc consts  --      1.4968                 1.6389                 1.5751
 IR Inten    --     27.5910                61.5617               124.2179

                     52                     53                     54
                      A                      A                      A
 Frequencies --   1209.7582              1215.1419              1261.5692
 Red. masses --      1.7441                 1.7684                 3.7250
 Frc consts  --      1.5039                 1.5385                 3.4930
 IR Inten    --      9.1168                 6.8913               268.3597

                     55                     56                     57
                      A                      A                      A
 Frequencies --   1294.9681              1333.4788              1340.7318
 Red. masses --      1.2566                 1.2294                 1.2243
 Frc consts  --      1.2416                 1.2880                 1.2967
 IR Inten    --     44.9188                45.8400                12.6143

                     58                     59                     60
                      A                      A                      A
 Frequencies --   1351.3644              1359.1992              1419.1017
 Red. masses --      2.4231                 1.5371                 1.2766
 Frc consts  --      2.6071                 1.6731                 1.5147
 IR Inten    --    384.8663                32.0105                 4.0396

                     61                     62                     63
                      A                      A                      A
 Frequencies --   1422.7214              1438.1073              1446.1994
 Red. masses --      1.4173                 1.2044                 1.2856
 Frc consts  --      1.6903                 1.4676                 1.5842
 IR Inten    --     46.7520                 8.6147                10.5189

                     64                     65                     66
                      A                      A                      A
 Frequencies --   1450.4857              1456.0626              1512.4997
 Red. masses --      1.3049                 1.2744                 1.0432
 Frc consts  --      1.6176                 1.5919                 1.4060
 IR Inten    --      9.4789                32.3002                 7.4550

                     67                     68                     69
                      A                      A                      A
 Frequencies --   1515.1178              1519.6466              1520.6881
 Red. masses --      1.0472                 1.0750                 1.0672
 Frc consts  --      1.4164                 1.4627                 1.4540
 IR Inten    --      6.9979                 5.2391                 1.4859

                     70                     71                     72
                      A                      A                      A
 Frequencies --   1522.7999              1527.5273              1530.6586
 Red. masses --      1.0596                 1.0390                 1.0828
 Frc consts  --      1.4477                 1.4284                 1.4946
 IR Inten    --      1.4518                 6.7793                36.5657

                     73                     74                     75
                      A                      A                      A
 Frequencies --   1536.3582              1541.8693              1851.0352
 Red. masses --      1.0770                 1.0669                10.2036
 Frc consts  --      1.4977                 1.4943                20.5983
 IR Inten    --     11.6450                10.6439               427.7680

                     76                     77                     78
                      A                      A                      A
 Frequencies --   1872.5328              1885.8385              3065.4259
 Red. masses --     11.8597                11.1588                 1.0372
 Frc consts  --     24.5010                23.3818                 5.7425
 IR Inten    --     88.6284               325.6414                13.7609

                     79                     80                     81
                      A                      A                      A
 Frequencies --   3068.6669              3069.5472              3091.4159
 Red. masses --      1.0358                 1.0343                 1.0666
 Frc consts  --      5.7468                 5.7420                 6.0056
 IR Inten    --      9.4825                18.7414                 2.6062

                     82                     83                     84
                      A                      A                      A
 Frequencies --   3102.0450              3105.0754              3139.2707
 Red. masses --      1.0594                 1.0600                 1.1001
 Frc consts  --      6.0063                 6.0216                 6.3877
 IR Inten    --     28.4673                16.2792                27.5047

                     85                     86                     87
                      A                      A                      A
 Frequencies --   3140.2489              3141.2246              3143.9248
 Red. masses --      1.0988                 1.1024                 1.1056
 Frc consts  --      6.3840                 6.4092                 6.4387
 IR Inten    --     32.5558                 3.8229                 0.5254

                     88                     89                     90
                      A                      A                      A
 Frequencies --   3144.4703              3148.2827              3161.6627
 Red. masses --      1.1023                 1.1051                 1.1010
 Frc consts  --      6.4218                 6.4537                 6.4843
 IR Inten    --     14.8400                 1.8650                13.7439

                     91                     92                     93
                      A                      A                      A
 Frequencies --   3165.3596              3171.8410              3525.4815
 Red. masses --      1.1077                 1.1092                 1.0753
 Frc consts  --      6.5394                 6.5749                 7.8743
 IR Inten    --     21.0506                18.2587                76.1395

 - Thermochemistry -
 -------------------
 Temperature   298.150 Kelvin.  Pressure   1.00000 Atm.
 Atom     1 has atomic number  6 and mass  12.00000

 Molecular mass:   248.10084 amu.
 Principal axes and moments of inertia in atomic units:
                           1         2         3
     Eigenvalues --  2880.199024366.116566033.33637
           X            0.99992   0.00997   0.00778
           Y           -0.00989   0.99990  -0.00977
           Z           -0.00788   0.00970   0.99992
 This molecule is an asymmetric top.
 Rotational symmetry number  1.
 Warning -- assumption of classical behavior for rotation
           may cause significant error
 Rotational temperatures (Kelvin)      0.03007     0.01984     0.01436
 Rotational constants (GHZ):           0.62660     0.41335     0.29913
 Zero-point vibrational energy     700813.6 (Joules/Mol)
                                  167.49846 (Kcal/Mol)
 Warning -- explicit consideration of  28 degrees of freedom as
           vibrations may cause significant error
 Vibrational temperatures:     47.17    57.84    76.47    79.32   103.09
          (Kelvin)            119.24   129.03   133.03   168.69   218.58
                              237.76   285.47   297.20   325.66   327.20
                              376.28   387.84   410.92   456.41   481.57
                              491.51   558.04   615.66   627.61   666.30
                              748.54   831.84   887.54   948.57   986.61
                             1024.99  1087.18  1151.22  1159.87  1165.57
                             1181.60  1233.08  1254.32  1275.67  1298.18
                             1403.72  1409.70  1462.87  1499.61  1539.47
                             1566.99  1581.56  1613.53  1628.19  1636.95
                             1674.29  1740.57  1748.32  1815.12  1863.17
                             1918.58  1929.01  1944.31  1955.58  2041.77
                             2046.98  2069.12  2080.76  2086.93  2094.95
                             2176.15  2179.92  2186.43  2187.93  2190.97
                             2197.77  2202.28  2210.48  2218.41  2663.23
                             2694.16  2713.30  4410.46  4415.13  4416.39
                             4447.86  4463.15  4467.51  4516.71  4518.12
                             4519.52  4523.41  4524.19  4529.68  4548.93
                             4554.25  4563.57  5072.38

 Zero-point correction=                           0.266926 (Hartree/Particle)
 Thermal correction to Energy=                    0.285966
 Thermal correction to Enthalpy=                  0.286910
 Thermal correction to Gibbs Free Energy=         0.218398
 Sum of electronic and zero-point Energies=           -913.132193
 Sum of electronic and thermal Energies=              -913.113153
 Sum of electronic and thermal Enthalpies=            -913.112209
 Sum of electronic and thermal Free Energies=         -913.180721

                     E (Thermal)             CV                S
                      KCal/Mol        Cal/Mol-Kelvin    Cal/Mol-Kelvin
 Total                  179.447             67.411            144.197
 Electronic               0.000              0.000              0.000
 Translational            0.889              2.981             42.427
 Rotational               0.889              2.981             32.695
 Vibrational            177.669             61.449             69.076
 Vibration     1          0.594              1.983              5.653
 Vibration     2          0.594              1.981              5.249
 Vibration     3          0.596              1.976              4.697
 Vibration     4          0.596              1.976              4.624
 Vibration     5          0.598              1.968              4.107
 Vibration     6          0.600              1.961              3.822
 Vibration     7          0.602              1.956              3.667
 Vibration     8          0.602              1.955              3.607
 Vibration     9          0.608              1.935              3.145
 Vibration    10          0.619              1.901              2.648
 Vibration    11          0.624              1.885              2.489
 Vibration    12          0.637              1.842              2.148
 Vibration    13          0.641              1.831              2.074
 Vibration    14          0.650              1.801              1.908
 Vibration    15          0.651              1.799              1.899
 Vibration    16          0.669              1.743              1.652
 Vibration    17          0.674              1.729              1.599
 Vibration    18          0.683              1.700              1.500
 Vibration    19          0.704              1.641              1.324
 Vibration    20          0.716              1.606              1.237
 Vibration    21          0.721              1.592              1.205
 Vibration    22          0.756              1.496              1.008
 Vibration    23          0.789              1.410              0.866
 Vibration    24          0.797              1.391              0.839
 Vibration    25          0.821              1.332              0.757
 Vibration    26          0.875              1.205              0.609
 Vibration    27          0.935              1.079              0.489
 Vibration    28          0.977              0.996              0.422

 Optimization completed.
    -- Stationary point found.
 Normal termination of Gaussian 16 at Fri Dec 11 13:40:10 2020.

 ----------------------------------------------------------------------
 # B3LYP/6-311++G(d,p) empiricaldispersion=gd3bj scf=xqc pop=npa geom=c
 heck
 ----------------------------------------------------------------------

 --------------------------------------
 CID_87865363_JID_7602_Energie_neutraal
 --------------------------------------
 Structure from the checkpoint file:  "JID_7602.chk"
 Charge =  0 Multiplicity = 1

 SCF Done:  E(RB3LYP) =  -913.675189794     A.U. after   15 cycles
 Normal termination of Gaussian 16 at Fri Dec 11 13:45:47 2020.

 ----------------------------------------------------------------------
 # B3LYP/6-311++G(d,p) empiricaldispersion=gd3bj scf=xqc pop=npa geom=c
 heck
 ----------------------------------------------------------------------

 ------------------------------------
 CID_87865363_JID_7602_Energie_kation
 ------------------------------------
 Structure from the checkpoint file:  "JID_7602.chk"
 Charge =  1 Multiplicity = 2

 SCF Done:  E(UB3LYP) =  -913.350326615     A.U. after   26 cycles
 Normal termination of Gaussian 16 at Fri Dec 11 13:59:12 2020.
 Gaussian 16:  ES64L-G16RevA.03 25-Dec-2016

 ----------------------------------------------------------------------
 # B3LYP/6-311++G(d,p) empiricaldispersion=gd3bj scf=xqc pop=npa geom=c
 heck
 ----------------------------------------------------------------------

 -----------------------------------
 CID_87865363_JID_7602_Energie_anion
 -----------------------------------
 Structure from the checkpoint file:  "JID_7602.chk"
 Charge = -1 Multiplicity = 2

                         Standard orientation:
 ---------------------------------------------------------------------
 Center     Atomic      Atomic             Coordinates (Angstroms)
 Number     Number       Type             X           Y           Z
 ---------------------------------------------------------------------
      1          6           0       -4.065738    0.512720   -0.045497
      2          6           0       -3.000517   -0.030400    0.923180
      3          6           0       -2.123534   -1.031534    0.224180
      4          8           0       -2.428461   -2.116215   -0.183409
      5          7           0       -0.642549   -0.604165    0.148595
      6          6           0       -0.511326    0.830012   -0.380259
      7          8           0       -0.941886    1.118845   -1.463043
      8          8           0        0.002557    1.598319    0.551489
      9          6           0        0.218619    2.987066    0.165677
     10          6           0        1.541314    3.133244   -0.563761
     11          7           0        0.012833   -1.469828   -0.846401
     12          6           0        1.398328   -1.561433   -0.680574
     13          8           0        2.016325   -2.595919   -0.775473
     14          8           0        1.916120   -0.332348   -0.502472
     15          6           0        3.254397   -0.276836    0.046220
     16          6           0        3.193382   -0.380122    1.560401
     17          8           0       -0.304396   -0.810048    1.416666
     18          1           0       -3.602491    1.051978   -0.876869
     19          1           0       -4.733396    1.197910    0.485213
     20          1           0       -4.664076   -0.305482   -0.456062
     21          1           0       -2.393181    0.765515    1.356469
     22          1           0       -3.479239   -0.560153    1.753008
     23          1           0       -0.624197    3.308691   -0.450280
     24          1           0        0.209116    3.524156    1.115117
     25          1           0        1.541372    2.544790   -1.485019
     26          1           0        1.701648    4.185411   -0.822599
     27          1           0        2.369358    2.801177    0.068949
     28          1           0       -0.443700   -2.378161   -0.777407
     29          1           0        3.847009   -1.077110   -0.401656
     30          1           0        3.642100    0.688606   -0.285784
     31          1           0        2.819585   -1.362743    1.860765
     32          1           0        4.192583   -0.238370    1.987347
     33          1           0        2.513899    0.374367    1.965997
 ---------------------------------------------------------------------

 SCF Done:  E(UB3LYP) =  -913.676570146     A.U. after   31 cycles

 The electronic state is 2-A.
 Alpha  occ. eigenvalues --  -19.08227 -19.07458 -19.02274 -19.01707 -19.00421
 Alpha  occ. eigenvalues --  -18.96399 -14.37732 -14.25992 -10.23326 -10.22993
 Alpha  occ. eigenvalues --  -10.16095 -10.14199 -10.13991 -10.07673 -10.07476
 Alpha  occ. eigenvalues --  -10.07411 -10.06143  -1.04533  -1.02353  -0.99157
 Alpha  occ. eigenvalues --   -0.94395  -0.93917  -0.93635  -0.82283  -0.70306
 Alpha  occ. eigenvalues --   -0.68630  -0.68125  -0.65990  -0.58795  -0.57044
 Alpha  occ. eigenvalues --   -0.55491  -0.51144  -0.48151  -0.47221  -0.45800
 Alpha  occ. eigenvalues --   -0.43053  -0.40335  -0.39757  -0.39269  -0.37864
 Alpha  occ. eigenvalues --   -0.37101  -0.36899  -0.35945  -0.35304  -0.34609
 Alpha  occ. eigenvalues --   -0.32865  -0.32167  -0.31613  -0.30934  -0.30513
 Alpha  occ. eigenvalues --   -0.29935  -0.29058  -0.28591  -0.27377  -0.26253
 Alpha  occ. eigenvalues --   -0.25812  -0.25721  -0.24656  -0.22497  -0.22407
 Alpha  occ. eigenvalues --   -0.21633  -0.21334  -0.19445  -0.18101  -0.13250
 Alpha  occ. eigenvalues --   -0.11920   0.03936
 Alpha virt. eigenvalues --    0.05875   0.07192   0.07357   0.08528   0.08999
 Alpha virt. eigenvalues --    0.09652   0.09949   0.10265   0.10665   0.10931
 Alpha virt. eigenvalues --    0.11283   0.11738   0.12735   0.13043   0.13615

  Beta  occ. eigenvalues --  -19.08218 -19.07458 -19.02154 -19.01700 -19.00143
  Beta  occ. eigenvalues --  -18.96316 -14.37761 -14.25973 -10.23321 -10.22880
  Beta  occ. eigenvalues --  -10.15684 -10.14192 -10.13968 -10.07701 -10.07437
  Beta  occ. eigenvalues --  -10.07409 -10.06086  -1.04419  -1.02320  -0.98959
  Beta  occ. eigenvalues --   -0.94228  -0.93628  -0.93471  -0.82195  -0.70133
  Beta  occ. eigenvalues --   -0.68579  -0.67970  -0.65920  -0.58656  -0.56937
  Beta  occ. eigenvalues --   -0.55236  -0.51007  -0.47997  -0.47165  -0.45755
  Beta  occ. eigenvalues --   -0.42918  -0.40281  -0.39455  -0.39099  -0.37670
  Beta  occ. eigenvalues --   -0.36964  -0.36844  -0.35802  -0.35196  -0.34437
  Beta  occ. eigenvalues --   -0.32681  -0.32057  -0.31498  -0.30610  -0.30112
  Beta  occ. eigenvalues --   -0.29808  -0.28906  -0.28534  -0.27157  -0.25944
  Beta  occ. eigenvalues --   -0.25747  -0.25675  -0.24079  -0.22415  -0.22237
  Beta  occ. eigenvalues --   -0.21488  -0.21266  -0.19247  -0.17949  -0.13167
  Beta  occ. eigenvalues --   -0.11596
  Beta virt. eigenvalues --    0.06443   0.07253   0.07817   0.08454   0.09051
  Beta virt. eigenvalues --    0.09821   0.10048   0.10372   0.10687   0.11128
  Beta virt. eigenvalues --    0.11411   0.11473   0.12008   0.12807   0.13088

 Mulliken charges and spin densities:
               1          2
     1  C    0.191528  -0.703739
     2  C   -0.535131   0.485030
     3  C    0.479231  -0.213779
     4  O   -0.312631   0.101786
     5  N    0.161776  -0.017743
     6  C   -0.270492  -0.085985
     7  O   -0.186975   0.038679
     8  O    0.070129   0.028420
     9  C    0.293811  -0.366340
    10  C    0.298753  -0.803065
    11  N   -0.511001   0.008301
    12  C    0.139566  -0.003324
    13  O   -0.283257   0.001433
    14  O   -0.102633  -0.000011
    15  C   -0.088309  -0.133396
    16  C   -0.429827   0.000098
    17  O   -0.117732   0.015298
    18  H    0.065737   0.090670
    19  H   -0.307160   0.444443
    20  H    0.154737  -0.006188
    21  H    0.208743  -0.011982
    22  H   -0.053568   0.284972
    23  H    0.119173   0.054229
    24  H   -0.393871   0.556902
    25  H    0.055445   0.150361
    26  H   -0.736955   0.901268
    27  H    0.076953   0.075158
    28  H    0.341494  -0.002201
    29  H    0.197379  -0.027513
    30  H    0.020522   0.110726
    31  H    0.170423   0.005336
    32  H    0.068927   0.051255
    33  H    0.215219  -0.029099
 Sum of Mulliken charges =  -1.00000   1.00000

 Dipole moment (field-independent basis, Debye):
    X=              3.5756    Y=             -1.5404    Z=             -0.1008  Tot=              3.8946
 Quadrupole moment (field-independent basis, Debye-Ang):
   XX=           -142.6773   YY=           -161.5309   ZZ=           -126.8648
   XY=             -4.7337   XZ=              4.3489   YZ=              1.7535

 Summary of Natural Population Analysis:

                                       Natural Population
                Natural  -----------------------------------------------
    Atom  No    Charge         Core      Valence    Rydberg      Total
 -----------------------------------------------------------------------
      C    1   -0.27992      0.99966     2.27490    0.00537     3.27992
      C    2   -0.24576      0.99957     2.23736    0.00884     3.24576
      C    3    0.43461      0.99966     1.53804    0.02769     2.56539
      O    4   -0.26725      0.99986     3.26114    0.00625     4.26725
      N    5   -0.00118      0.99965     2.48002    0.02151     3.50118
      C    6    0.49532      0.99969     1.47395    0.03103     2.50468
      O    7   -0.28526      0.99986     3.28010    0.00531     4.28526
      O    8   -0.26219      0.99983     3.25332    0.00903     4.26219
      C    9   -0.01397      0.99957     2.00233    0.01207     3.01397
      C   10   -0.29960      0.99966     2.29414    0.00580     3.29960
      N   11   -0.24579      0.99966     2.73429    0.01184     3.74579
      C   12    0.46949      0.99973     1.50447    0.02631     2.53051
      O   13   -0.31455      0.99986     3.30975    0.00493     4.31455
      O   14   -0.28520      0.99986     3.27540    0.00994     4.28520
      C   15   -0.01537      0.99959     2.00450    0.01128     3.01537
      C   16   -0.30092      0.99966     2.29649    0.00477     3.30092
      O   17   -0.31690      0.99993     3.31003    0.00694     4.31690
      H   18    0.10333      0.00000     0.39561    0.00105     0.39667
      H   19    0.09822      0.00000     0.40041    0.00137     0.40178
      H   20    0.09926      0.00000     0.39978    0.00096     0.40074
      H   21    0.11109      0.00000     0.38754    0.00137     0.38891
      H   22    0.11625      0.00000     0.38228    0.00147     0.38375
      H   23    0.09602      0.00000     0.40254    0.00145     0.40398
      H   24    0.09374      0.00000     0.40483    0.00143     0.40626
      H   25    0.10684      0.00000     0.39202    0.00115     0.39316
      H   26    0.10617      0.00000     0.39168    0.00216     0.39383
      H   27    0.09912      0.00000     0.39973    0.00115     0.40088
      H   28    0.20572      0.00000     0.29236    0.00193     0.29428
      H   29    0.09439      0.00000     0.40434    0.00127     0.40561
      H   30    0.08988      0.00000     0.40897    0.00115     0.41012
      H   31    0.10774      0.00000     0.39127    0.00099     0.39226
      H   32    0.09496      0.00000     0.40420    0.00084     0.40504
      H   33    0.11172      0.00000     0.38714    0.00114     0.38828
 =======================================================================
   * Total *   -0.00000     16.99529    48.77493    0.22978    66.00000

 Normal termination of Gaussian 16 at Fri Dec 11 14:15:04 2020.
