 Gaussian 16, Revision A.03,

 -----------------------------------------------------------
 # opt freq B3LYP/6-31G(d) empiricaldispersion=gd3bj scf=xqc
 -----------------------------------------------------------

 -------------------------------
 CID_115619964_JID_7580_neutraal
 -------------------------------
 Symbolic Z-matrix:
 Charge =  0 Multiplicity = 1

 SCF Done:  E(RB3LYP) =  -1123.85422172     A.U. after   16 cycles
 SCF Done:  E(RB3LYP) =  -1123.85855009     A.U. after   13 cycles
 SCF Done:  E(RB3LYP) =  -1123.85912718     A.U. after   12 cycles
 SCF Done:  E(RB3LYP) =  -1123.85980709     A.U. after   13 cycles
 SCF Done:  E(RB3LYP) =  -1123.86006209     A.U. after   12 cycles
 SCF Done:  E(RB3LYP) =  -1123.86000032     A.U. after   13 cycles
 SCF Done:  E(RB3LYP) =  -1123.86018363     A.U. after   12 cycles
 SCF Done:  E(RB3LYP) =  -1123.86049071     A.U. after   12 cycles
 SCF Done:  E(RB3LYP) =  -1123.86057605     A.U. after   12 cycles
 SCF Done:  E(RB3LYP) =  -1123.86063465     A.U. after   11 cycles
 SCF Done:  E(RB3LYP) =  -1123.86757253     A.U. after   12 cycles
 SCF Done:  E(RB3LYP) =  -1123.86758763     A.U. after   11 cycles
 SCF Done:  E(RB3LYP) =  -1123.86759039     A.U. after    9 cycles
 SCF Done:  E(RB3LYP) =  -1123.86759072     A.U. after    8 cycles
 SCF Done:  E(RB3LYP) =  -1123.86759075     A.U. after    7 cycles
 Optimization completed.
    -- Stationary point found.
 Normal termination of Gaussian 16 at Fri Dec 11 13:05:03 2020.

 --------------------------------------------------------------------
 #N Geom=AllCheck Guess=TCheck SCRF=Check GenChk RB3LYP/6-31G(d) Freq
 --------------------------------------------------------------------

 Structure from the checkpoint file:  "JID_7580.chk"
 -------------------------------
 CID_115619964_JID_7580_neutraal
 -------------------------------
 Charge =  0 Multiplicity = 1

 SCF Done:  E(RB3LYP) =  -1123.86759075     A.U. after    1 cycles

  Exact polarizability: 208.976 -22.765 176.855   7.423  -1.803  97.837
 Approx polarizability: 301.283 -42.041 293.037  17.337 -17.578 151.759

                      1                      2                      3
                      A                      A                      A
 Frequencies --     25.7483                35.8772                49.3969
 Red. masses --      4.7869                 4.6678                 6.0110
 Frc consts  --      0.0019                 0.0035                 0.0086
 IR Inten    --      2.4133                 0.8063                 0.6628

                      4                      5                      6
                      A                      A                      A
 Frequencies --     72.9273                89.2088               110.4584
 Red. masses --      4.7416                 8.4292                 4.7538
 Frc consts  --      0.0149                 0.0395                 0.0342
 IR Inten    --      0.5994                10.1927                 1.4578

                      7                      8                      9
                      A                      A                      A
 Frequencies --    122.7879               143.7293               186.3235
 Red. masses --      7.0465                 6.8789                 3.5762
 Frc consts  --      0.0626                 0.0837                 0.0731
 IR Inten    --     11.3358                 0.3163                10.1144

                     10                     11                     12
                      A                      A                      A
 Frequencies --    196.1312               207.0353               223.2202
 Red. masses --      1.3371                 2.7588                 4.3634
 Frc consts  --      0.0303                 0.0697                 0.1281
 IR Inten    --      0.4077                 9.0445                 1.5506

                     13                     14                     15
                      A                      A                      A
 Frequencies --    231.1978               270.7754               289.5646
 Red. masses --      3.0560                 3.9363                 3.5783
 Frc consts  --      0.0962                 0.1700                 0.1768
 IR Inten    --      1.0452                 3.6962                 6.9815

                     16                     17                     18
                      A                      A                      A
 Frequencies --    329.2169               355.9444               372.5685
 Red. masses --      5.2480                 3.4296                 3.3249
 Frc consts  --      0.3351                 0.2560                 0.2719
 IR Inten    --      1.9441                 6.2489                 4.1442

                     19                     20                     21
                      A                      A                      A
 Frequencies --    419.8632               425.3772               454.7298
 Red. masses --      3.1322                 4.0574                 2.6462
 Frc consts  --      0.3253                 0.4326                 0.3224
 IR Inten    --      0.5224                 0.7373                 0.4206

                     22                     23                     24
                      A                      A                      A
 Frequencies --    536.3986               550.0793               566.2708
 Red. masses --      5.2675                 6.9271                 5.6492
 Frc consts  --      0.8930                 1.2350                 1.0673
 IR Inten    --     25.7501                 4.3864                10.5915

                     25                     26                     27
                      A                      A                      A
 Frequencies --    596.0939               625.8598               658.8771
 Red. masses --      3.6616                 3.7255                 6.7784
 Frc consts  --      0.7666                 0.8598                 1.7338
 IR Inten    --     18.4987                 6.8101                 0.7962

                     28                     29                     30
                      A                      A                      A
 Frequencies --    672.2105               675.0824               683.3210
 Red. masses --      4.8716                 3.0017                 2.9762
 Frc consts  --      1.2970                 0.8060                 0.8188
 IR Inten    --     12.1174                26.6956                14.2027

                     31                     32                     33
                      A                      A                      A
 Frequencies --    757.3339               795.8463               817.8115
 Red. masses --      2.3635                 2.9240                 4.7362
 Frc consts  --      0.7987                 1.0912                 1.8663
 IR Inten    --     40.4228                60.7789                 5.4289

                     34                     35                     36
                      A                      A                      A
 Frequencies --    832.1209               866.8198               888.3790
 Red. masses --      1.6111                 1.4473                 1.4650
 Frc consts  --      0.6573                 0.6407                 0.6812
 IR Inten    --      4.2329                 8.5244                21.4989

                     37                     38                     39
                      A                      A                      A
 Frequencies --    892.6556               935.5536               964.5989
 Red. masses --      2.6025                 1.5298                 1.4789
 Frc consts  --      1.2218                 0.7889                 0.8107
 IR Inten    --     12.5943                 6.0644                 9.4735

                     40                     41                     42
                      A                      A                      A
 Frequencies --    983.4548               986.5711              1024.3231
 Red. masses --      1.3306                 1.4803                 1.6902
 Frc consts  --      0.7582                 0.8489                 1.0448
 IR Inten    --      0.1780                20.0447                16.9243

                     43                     44                     45
                      A                      A                      A
 Frequencies --   1030.3355              1047.8080              1082.9287
 Red. masses --      2.0480                 2.1496                 3.8855
 Frc consts  --      1.2809                 1.3905                 2.6847
 IR Inten    --     11.9434                21.8966               140.6503

                     46                     47                     48
                      A                      A                      A
 Frequencies --   1091.5392              1114.2857              1153.0801
 Red. masses --      2.6676                 2.0219                 1.3891
 Frc consts  --      1.8726                 1.4791                 1.0882
 IR Inten    --      4.2801                 0.5444                 3.6713

                     49                     50                     51
                      A                      A                      A
 Frequencies --   1167.3329              1198.9328              1215.1444
 Red. masses --      2.6808                 1.3189                 1.4601
 Frc consts  --      2.1523                 1.1170                 1.2702
 IR Inten    --     32.8722                 3.5254                 2.1869

                     52                     53                     54
                      A                      A                      A
 Frequencies --   1235.6944              1244.2382              1309.8932
 Red. masses --      1.6680                 1.8052                 1.2840
 Frc consts  --      1.5006                 1.6466                 1.2981
 IR Inten    --     40.1862                17.2157                20.2217

                     55                     56                     57
                      A                      A                      A
 Frequencies --   1337.6151              1346.2959              1352.7024
 Red. masses --      1.2154                 3.6923                 1.6910
 Frc consts  --      1.2812                 3.9431                 1.8230
 IR Inten    --     11.5236                11.9754                 4.3721

                     58                     59                     60
                      A                      A                      A
 Frequencies --   1366.4122              1381.4440              1405.6304
 Red. masses --      1.1963                 2.1632                 1.4290
 Frc consts  --      1.3160                 2.4322                 1.6635
 IR Inten    --      4.9137               247.8197                13.3544

                     61                     62                     63
                      A                      A                      A
 Frequencies --   1415.7286              1451.5324              1471.8982
 Red. masses --      1.7159                 2.6838                 1.0848
 Frc consts  --      2.0263                 3.3317                 1.3847
 IR Inten    --     75.9395                41.8462                16.1850

                     64                     65                     66
                      A                      A                      A
 Frequencies --   1480.8153              1489.4644              1496.4786
 Red. masses --      1.0776                 1.4106                 1.0528
 Frc consts  --      1.3923                 1.8438                 1.3891
 IR Inten    --      5.2589                37.3009                10.6805

                     67                     68                     69
                      A                      A                      A
 Frequencies --   1518.2394              1545.7694              1558.5224
 Red. masses --      1.1269                 1.2200                 1.9371
 Frc consts  --      1.5304                 1.7176                 2.7722
 IR Inten    --      1.2726                10.7339                 1.1159

                     70                     71                     72
                      A                      A                      A
 Frequencies --   1613.1997              1668.9629              1764.1148
 Red. masses --      6.2965                 5.5562                 7.7367
 Frc consts  --      9.6545                 9.1185                14.1861
 IR Inten    --      3.9120                 5.2647               311.6537

                     73                     74                     75
                      A                      A                      A
 Frequencies --   2350.5699              3021.2691              3040.4605
 Red. masses --     12.6809                 1.0741                 1.0658
 Frc consts  --     41.2806                 5.7766                 5.8048
 IR Inten    --     32.4418                39.1937                44.1989

                     76                     77                     78
                      A                      A                      A
 Frequencies --   3063.0662              3067.0884              3082.5201
 Red. masses --      1.0497                 1.0386                 1.0979
 Frc consts  --      5.8026                 5.7564                 6.1465
 IR Inten    --      4.4636                10.0235                16.9966

                     79                     80                     81
                      A                      A                      A
 Frequencies --   3125.1860              3163.9281              3173.8605
 Red. masses --      1.1071                 1.1072                 1.1055
 Frc consts  --      6.3710                 6.5303                 6.5613
 IR Inten    --      9.0110                 5.9266                 1.9113

                     82                     83                     84
                      A                      A                      A
 Frequencies --   3191.7377              3215.6376              3216.9661
 Red. masses --      1.0900                 1.0899                 1.0893
 Frc consts  --      6.5424                 6.6402                 6.6421
 IR Inten    --      1.5104                18.7774                28.9419

                     85                     86                     87
                      A                      A                      A
 Frequencies --   3227.0781              3233.1111              3539.6313
 Red. masses --      1.0948                 1.0945                 1.0743
 Frc consts  --      6.7175                 6.7406                 7.9303
 IR Inten    --     11.4273                 3.4545                13.4600

 - Thermochemistry -
 -------------------
 Temperature   298.150 Kelvin.  Pressure   1.00000 Atm.
 Atom     1 has atomic number  6 and mass  12.00000

 Molecular mass:   250.07760 amu.
 Principal axes and moments of inertia in atomic units:
                           1         2         3
     Eigenvalues --  3065.106727483.201619758.37710
           X            0.99994   0.00936   0.00493
           Y           -0.00950   0.99953   0.02901
           Z           -0.00466  -0.02905   0.99957
 This molecule is an asymmetric top.
 Rotational symmetry number  1.
 Warning -- assumption of classical behavior for rotation
           may cause significant error
 Rotational temperatures (Kelvin)      0.02826     0.01157     0.00888
 Rotational constants (GHZ):           0.58880     0.24117     0.18494
 Zero-point vibrational energy     647119.3 (Joules/Mol)
                                  154.66522 (Kcal/Mol)
 Warning -- explicit consideration of  25 degrees of freedom as
           vibrations may cause significant error
 Vibrational temperatures:     37.05    51.62    71.07   104.93   128.35
          (Kelvin)            158.92   176.66   206.79   268.08   282.19
                              297.88   321.16   332.64   389.59   416.62
                              473.67   512.12   536.04   604.09   612.02
                              654.25   771.76   791.44   814.74   857.65
                              900.47   947.98   967.16   971.29   983.15
                             1089.63  1145.05  1176.65  1197.24  1247.16
                             1278.18  1284.33  1346.05  1387.84  1414.97
                             1419.46  1473.77  1482.42  1507.56  1558.09
                             1570.48  1603.21  1659.03  1679.53  1725.00
                             1748.32  1777.89  1790.18  1884.64  1924.53
                             1937.02  1946.24  1965.96  1987.59  2022.39
                             2036.92  2088.43  2117.73  2130.56  2143.01
                             2153.10  2184.41  2224.02  2242.37  2321.03
                             2401.27  2538.17  3381.95  4346.93  4374.54
                             4407.07  4412.86  4435.06  4496.45  4552.19
                             4566.48  4592.20  4626.59  4628.50  4643.05
                             4651.73  5092.74

 Zero-point correction=                           0.246475 (Hartree/Particle)
 Thermal correction to Energy=                    0.263458
 Thermal correction to Enthalpy=                  0.264403
 Thermal correction to Gibbs Free Energy=         0.200065
 Sum of electronic and zero-point Energies=          -1123.621116
 Sum of electronic and thermal Energies=             -1123.604132
 Sum of electronic and thermal Enthalpies=           -1123.603188
 Sum of electronic and thermal Free Energies=        -1123.667526

                     E (Thermal)             CV                S
                      KCal/Mol        Cal/Mol-Kelvin    Cal/Mol-Kelvin
 Total                  165.323             62.647            135.410
 Electronic               0.000              0.000              0.000
 Translational            0.889              2.981             42.450
 Rotational               0.889              2.981             33.770
 Vibrational            163.545             56.686             59.190
 Vibration     1          0.593              1.985              6.133
 Vibration     2          0.594              1.982              5.475
 Vibration     3          0.595              1.978              4.841
 Vibration     4          0.599              1.967              4.073
 Vibration     5          0.602              1.957              3.677
 Vibration     6          0.606              1.941              3.261
 Vibration     7          0.610              1.930              3.056
 Vibration     8          0.616              1.909              2.754
 Vibration     9          0.632              1.859              2.264
 Vibration    10          0.636              1.845              2.169
 Vibration    11          0.641              1.830              2.070
 Vibration    12          0.649              1.806              1.933
 Vibration    13          0.653              1.793              1.870
 Vibration    14          0.674              1.727              1.591
 Vibration    15          0.686              1.693              1.477
 Vibration    16          0.712              1.617              1.264
 Vibration    17          0.731              1.563              1.140
 Vibration    18          0.744              1.528              1.069
 Vibration    19          0.783              1.427              0.892
 Vibration    20          0.787              1.415              0.874
 Vibration    21          0.813              1.350              0.782
 Vibration    22          0.891              1.170              0.573
 Vibration    23          0.905              1.140              0.544
 Vibration    24          0.922              1.104              0.511
 Vibration    25          0.954              1.040              0.456

 Optimization completed.
    -- Stationary point found.
 Normal termination of Gaussian 16 at Fri Dec 11 13:14:47 2020.

 ----------------------------------------------------------------------
 # B3LYP/6-311++G(d,p) empiricaldispersion=gd3bj scf=xqc pop=npa geom=c
 heck
 ----------------------------------------------------------------------

 ---------------------------------------
 CID_115619964_JID_7580_Energie_neutraal
 ---------------------------------------
 Structure from the checkpoint file:  "JID_7580.chk"
 Charge =  0 Multiplicity = 1

 SCF Done:  E(RB3LYP) =  -1124.10115343     A.U. after   16 cycles
 Normal termination of Gaussian 16 at Fri Dec 11 13:19:11 2020.

 ----------------------------------------------------------------------
 # B3LYP/6-311++G(d,p) empiricaldispersion=gd3bj scf=xqc pop=npa geom=c
 heck
 ----------------------------------------------------------------------

 -------------------------------------
 CID_115619964_JID_7580_Energie_kation
 -------------------------------------
 Structure from the checkpoint file:  "JID_7580.chk"
 Charge =  1 Multiplicity = 2

 SCF Done:  E(UB3LYP) =  -1123.78502391     A.U. after   33 cycles
 SCF Done:  E(UB3LYP) =  -1123.78502391     a.u. after    1 cycles
 Normal termination of Gaussian 16 at Fri Dec 11 13:31:10 2020.
 Gaussian 16:  ES64L-G16RevA.03 25-Dec-2016

 ----------------------------------------------------------------------
 # B3LYP/6-311++G(d,p) empiricaldispersion=gd3bj scf=xqc pop=npa geom=c
 heck
 ----------------------------------------------------------------------

 ------------------------------------
 CID_115619964_JID_7580_Energie_anion
 ------------------------------------
 Structure from the checkpoint file:  "JID_7580.chk"
 Charge = -1 Multiplicity = 2

                         Standard orientation:
 ---------------------------------------------------------------------
 Center     Atomic      Atomic             Coordinates (Angstroms)
 Number     Number       Type             X           Y           Z
 ---------------------------------------------------------------------
      1          6           0       -3.551363   -2.045408   -1.457915
      2         16           0       -3.087266   -1.527010    0.234669
      3          8           0       -1.592564   -1.765164    0.374834
      4          6           0       -3.361505    0.275338   -0.033437
      5          6           0       -2.892906    1.103020    1.166738
      6          6           0       -1.377326    1.334551    1.213137
      7          7           0       -0.949552    2.062264    0.016358
      8          6           0        0.338764    2.228121   -0.453334
      9          8           0        0.644473    3.244893   -1.068385
     10          6           0        1.344948    1.135482   -0.244160
     11          6           0        1.022325   -0.226617   -0.275066
     12          6           0        2.022277   -1.183600   -0.132221
     13          6           0        3.355866   -0.784848    0.041718
     14          6           0        3.684517    0.581905    0.055439
     15          6           0        2.682774    1.529708   -0.098923
     16          6           0        4.384866   -1.769337    0.199709
     17          7           0        5.221366   -2.567234    0.328599
     18          1           0       -3.414542   -3.127738   -1.510509
     19          1           0       -2.890966   -1.554247   -2.178157
     20          1           0       -4.598016   -1.792441   -1.650587
     21          1           0       -2.826546    0.576243   -0.940460
     22          1           0       -4.439377    0.386644   -0.197286
     23          1           0       -3.402575    2.075453    1.128726
     24          1           0       -3.209363    0.632146    2.105829
     25          1           0       -1.133323    1.902655    2.122644
     26          1           0       -0.858750    0.380011    1.266580
     27          1           0       -1.475795    2.913331   -0.162497
     28          1           0        0.000859   -0.566465   -0.407061
     29          1           0        1.769597   -2.238141   -0.152112
     30          1           0        4.718879    0.883887    0.180388
     31          1           0        2.918784    2.587890   -0.116594
 ---------------------------------------------------------------------

 SCF Done:  E(UB3LYP) =  -1124.12017548     A.U. after   31 cycles

 The electronic state is 2-A.
 Alpha  occ. eigenvalues --  -88.87071 -19.00219 -18.96064 -14.22008 -14.17269
 Alpha  occ. eigenvalues --  -10.14126 -10.12517 -10.12235 -10.11089 -10.10583
 Alpha  occ. eigenvalues --  -10.07433 -10.06691 -10.05459 -10.05299 -10.04874
 Alpha  occ. eigenvalues --  -10.04598 -10.04362  -7.94772  -5.91041  -5.90918
 Alpha  occ. eigenvalues --   -5.90356  -0.93169  -0.91498  -0.81060  -0.77562
 Alpha  occ. eigenvalues --   -0.73616  -0.73075  -0.68798  -0.64867  -0.62654
 Alpha  occ. eigenvalues --   -0.61929  -0.54990  -0.53736  -0.50893  -0.49032
 Alpha  occ. eigenvalues --   -0.46281  -0.42211  -0.40716  -0.40224  -0.38989
 Alpha  occ. eigenvalues --   -0.38069  -0.36591  -0.36313  -0.34506  -0.33788
 Alpha  occ. eigenvalues --   -0.32183  -0.31837  -0.30836  -0.30200  -0.29740
 Alpha  occ. eigenvalues --   -0.29284  -0.28287  -0.27878  -0.27055  -0.26224
 Alpha  occ. eigenvalues --   -0.25185  -0.23230  -0.22893  -0.21398  -0.20092
 Alpha  occ. eigenvalues --   -0.19107  -0.15789  -0.15197  -0.14210  -0.13682
 Alpha  occ. eigenvalues --   -0.12706   0.02701
 Alpha virt. eigenvalues --    0.04208   0.05835   0.07669   0.08055   0.09327
 Alpha virt. eigenvalues --    0.09466   0.09845   0.09961   0.10486   0.10692
 Alpha virt. eigenvalues --    0.10933   0.11460   0.12070   0.12668   0.12847

  Beta  occ. eigenvalues --  -88.87068 -19.00213 -18.95864 -14.21991 -14.17049
  Beta  occ. eigenvalues --  -10.14010 -10.12499 -10.12208 -10.11085 -10.10574
  Beta  occ. eigenvalues --  -10.07451 -10.06435 -10.05400 -10.05261 -10.04846
  Beta  occ. eigenvalues --  -10.04363 -10.04302  -7.94769  -5.91039  -5.90915
  Beta  occ. eigenvalues --   -5.90351  -0.93157  -0.91163  -0.80939  -0.77227
  Beta  occ. eigenvalues --   -0.73330  -0.72991  -0.68760  -0.64322  -0.62387
  Beta  occ. eigenvalues --   -0.61872  -0.54928  -0.53162  -0.50837  -0.48928
  Beta  occ. eigenvalues --   -0.46071  -0.42045  -0.40617  -0.40168  -0.38949
  Beta  occ. eigenvalues --   -0.37934  -0.36513  -0.36251  -0.34450  -0.33557
  Beta  occ. eigenvalues --   -0.32116  -0.31637  -0.30739  -0.30064  -0.29557
  Beta  occ. eigenvalues --   -0.29205  -0.28232  -0.27488  -0.26703  -0.25430
  Beta  occ. eigenvalues --   -0.24839  -0.22977  -0.22729  -0.20547  -0.19974
  Beta  occ. eigenvalues --   -0.19086  -0.15648  -0.14886  -0.13618  -0.12871
  Beta  occ. eigenvalues --   -0.11497
  Beta virt. eigenvalues --    0.04954   0.05918   0.07400   0.07806   0.08078
  Beta virt. eigenvalues --    0.09351   0.09472   0.09850   0.10002   0.10513
  Beta virt. eigenvalues --    0.10702   0.11040   0.11639   0.12083   0.12699

 Mulliken charges and spin densities:
               1          2
     1  C   -0.373235  -0.204530
     2  S    0.512618  -0.217277
     3  O   -0.363936   0.009383
     4  C   -0.292828  -0.133997
     5  C   -0.066945  -0.273888
     6  C   -0.304974  -0.089074
     7  N   -0.174641   0.018600
     8  C   -0.363204   0.028858
     9  O   -0.371275   0.069861
    10  C    0.916938   0.302795
    11  C   -0.532225   0.089789
    12  C   -0.234655  -0.071596
    13  C    2.178031   0.166463
    14  C   -0.585477   0.112531
    15  C   -0.234104  -0.001964
    16  C   -1.882383  -0.087964
    17  N   -0.284618   0.119099
    18  H    0.142184   0.030391
    19  H    0.153630   0.052276
    20  H   -0.102320   0.255905
    21  H    0.292007  -0.046400
    22  H   -0.447974   0.662230
    23  H    0.050160   0.134433
    24  H    0.117405   0.038153
    25  H    0.167929   0.017263
    26  H    0.158604   0.011611
    27  H    0.240721   0.019733
    28  H    0.175281  -0.013348
    29  H    0.186368   0.005765
    30  H    0.138564  -0.002025
    31  H    0.184357  -0.003077
 Sum of Mulliken charges =  -1.00000   1.00000

 Dipole moment (field-independent basis, Debye):
    X=             -9.7880    Y=              0.9210    Z=              1.1474  Tot=              9.8980
 Quadrupole moment (field-independent basis, Debye-Ang):
   XX=           -190.4786   YY=           -150.2095   ZZ=           -121.3098
   XY=             22.6712   XZ=             -1.1057   YZ=             13.3839

 Summary of Natural Population Analysis:

                                       Natural Population
                Natural  -----------------------------------------------
    Atom  No    Charge         Core      Valence    Rydberg      Total
 -----------------------------------------------------------------------
      C    1   -0.38116      0.99963     2.37408    0.00746     3.38116
      S    2    0.58258      4.99944     2.36315    0.05482     7.41742
      O    3   -0.48050      0.99993     3.47281    0.00777     4.48050
      C    4   -0.28202      0.99959     2.26804    0.01439     3.28202
      C    5   -0.20228      0.99962     2.19194    0.01071     3.20228
      C    6   -0.09339      0.99961     2.08296    0.01082     3.09339
      N    7   -0.32982      0.99967     2.82109    0.00905     3.82982
      C    8    0.35571      0.99963     1.62218    0.02248     2.64429
      O    9   -0.30733      0.99988     3.30201    0.00544     4.30733
      C   10   -0.02195      0.99946     2.01330    0.00919     3.02195
      C   11   -0.09319      0.99953     2.08581    0.00784     3.09319
      C   12   -0.07217      0.99954     2.06481    0.00782     3.07217
      C   13   -0.05515      0.99942     2.04562    0.01011     3.05515
      C   14   -0.07560      0.99955     2.06828    0.00777     3.07560
      C   15   -0.08134      0.99954     2.07327    0.00853     3.08134
      C   16    0.14902      0.99964     1.83316    0.01818     2.85098
      N   17   -0.17240      0.99979     2.66166    0.01096     3.67240
      H   18    0.11058      0.00000     0.38838    0.00104     0.38942
      H   19    0.11214      0.00000     0.38678    0.00109     0.38786
      H   20    0.10771      0.00000     0.39024    0.00205     0.39229
      H   21    0.11462      0.00000     0.38362    0.00176     0.38538
      H   22    0.10760      0.00000     0.38924    0.00316     0.39240
      H   23    0.10006      0.00000     0.39875    0.00119     0.39994
      H   24    0.10210      0.00000     0.39685    0.00105     0.39790
      H   25    0.08578      0.00000     0.41318    0.00104     0.41422
      H   26    0.11972      0.00000     0.37890    0.00138     0.38028
      H   27    0.18192      0.00000     0.31475    0.00333     0.31808
      H   28    0.11531      0.00000     0.38271    0.00198     0.38469
      H   29    0.10131      0.00000     0.39782    0.00087     0.39869
      H   30    0.09734      0.00000     0.40179    0.00087     0.40266
      H   31    0.10479      0.00000     0.39417    0.00104     0.39521
 =======================================================================
   * Total *    0.00000     20.99347    44.76132    0.24521    66.00000

 Normal termination of Gaussian 16 at Fri Dec 11 13:42:16 2020.
