 Gaussian 16, Revision A.03,

 -----------------------------------------------------------
 # opt freq B3LYP/6-31G(d) empiricaldispersion=gd3bj scf=xqc
 -----------------------------------------------------------

 ------------------------------
 CID_43797310_JID_9346_neutraal
 ------------------------------
 Symbolic Z-matrix:
 Charge =  0 Multiplicity = 1

 SCF Done:  E(RB3LYP) =  -1169.01824559     A.U. after   15 cycles
 SCF Done:  E(RB3LYP) =  -1169.02235057     A.U. after   13 cycles
 SCF Done:  E(RB3LYP) =  -1169.02239955     A.U. after   12 cycles
 SCF Done:  E(RB3LYP) =  -1169.02250757     A.U. after   12 cycles
 SCF Done:  E(RB3LYP) =  -1169.02292777     A.U. after   12 cycles
 SCF Done:  E(RB3LYP) =  -1169.02297847     A.U. after   10 cycles
 SCF Done:  E(RB3LYP) =  -1169.02301644     A.U. after   11 cycles
 SCF Done:  E(RB3LYP) =  -1169.02304367     A.U. after   10 cycles
 SCF Done:  E(RB3LYP) =  -1169.02308331     A.U. after   11 cycles
 SCF Done:  E(RB3LYP) =  -1169.02311292     A.U. after   10 cycles
 SCF Done:  E(RB3LYP) =  -1169.02311877     A.U. after   10 cycles
 SCF Done:  E(RB3LYP) =  -1169.02312379     A.U. after   11 cycles
 SCF Done:  E(RB3LYP) =  -1169.02312532     A.U. after    8 cycles
 SCF Done:  E(RB3LYP) =  -1169.02312582     A.U. after    9 cycles
 SCF Done:  E(RB3LYP) =  -1169.02312584     A.U. after    7 cycles
 SCF Done:  E(RB3LYP) =  -1169.02312582     A.U. after    6 cycles
 Optimization completed.
    -- Stationary point found.
 Normal termination of Gaussian 16 at Sat Dec 12 09:34:04 2020.

 --------------------------------------------------------------------
 #N Geom=AllCheck Guess=TCheck SCRF=Check GenChk RB3LYP/6-31G(d) Freq
 --------------------------------------------------------------------

 Structure from the checkpoint file:  "JID_9346.chk"
 ------------------------------
 CID_43797310_JID_9346_neutraal
 ------------------------------
 Charge =  0 Multiplicity = 1

 SCF Done:  E(RB3LYP) =  -1169.02312582     A.U. after    1 cycles

  Exact polarizability: 255.373  24.846 160.761  -5.619  11.798 163.887
 Approx polarizability: 301.632  48.515 261.058  -8.236  46.129 293.628

                      1                      2                      3
                      A                      A                      A
 Frequencies --     14.5770                21.9146                27.6147
 Red. masses --      4.7026                 2.8461                 3.1044
 Frc consts  --      0.0006                 0.0008                 0.0014
 IR Inten    --      1.0264                 0.0664                 0.2229

                      4                      5                      6
                      A                      A                      A
 Frequencies --     41.8740                69.4257                77.0582
 Red. masses --      4.1306                 2.8615                 2.9535
 Frc consts  --      0.0043                 0.0081                 0.0103
 IR Inten    --      1.0213                 0.4097                 0.4051

                      7                      8                      9
                      A                      A                      A
 Frequencies --     88.5591               113.4206               152.9023
 Red. masses --      5.4504                 5.8803                 3.6225
 Frc consts  --      0.0252                 0.0446                 0.0499
 IR Inten    --      0.0682                 1.1079                 0.8808

                     10                     11                     12
                      A                      A                      A
 Frequencies --    157.8739               199.8213               218.6500
 Red. masses --      3.3413                 3.2142                 1.9191
 Frc consts  --      0.0491                 0.0756                 0.0541
 IR Inten    --      2.4254                 0.3723                 0.2396

                     13                     14                     15
                      A                      A                      A
 Frequencies --    233.4873               239.7846               250.2109
 Red. masses --      1.9178                 1.5551                 1.3328
 Frc consts  --      0.0616                 0.0527                 0.0492
 IR Inten    --      1.7764                 0.0275                 1.0245

                     16                     17                     18
                      A                      A                      A
 Frequencies --    255.0925               265.1888               316.8907
 Red. masses --      1.1886                 2.5193                 3.1347
 Frc consts  --      0.0456                 0.1044                 0.1855
 IR Inten    --      0.3083                 1.2916                 0.2710

                     19                     20                     21
                      A                      A                      A
 Frequencies --    324.9659               333.0839               346.3535
 Red. masses --      2.4800                 2.7307                 4.0702
 Frc consts  --      0.1543                 0.1785                 0.2877
 IR Inten    --      3.2463                 1.7606                 1.2899

                     22                     23                     24
                      A                      A                      A
 Frequencies --    386.7879               398.7090               422.8615
 Red. masses --      2.3270                 2.5487                 2.7716
 Frc consts  --      0.2051                 0.2387                 0.2920
 IR Inten    --      1.3924                 3.9023                 6.4411

                     25                     26                     27
                      A                      A                      A
 Frequencies --    453.8745               478.1187               501.5575
 Red. masses --      4.3059                 3.3224                 2.8773
 Frc consts  --      0.5226                 0.4475                 0.4265
 IR Inten    --      0.8662                 1.1424                 0.6804

                     28                     29                     30
                      A                      A                      A
 Frequencies --    519.1389               530.2842               575.6992
 Red. masses --      2.5853                 3.3050                 4.1552
 Frc consts  --      0.4105                 0.5476                 0.8114
 IR Inten    --      0.1621                 6.5602                 8.1754

                     31                     32                     33
                      A                      A                      A
 Frequencies --    600.4865               623.6582               652.5332
 Red. masses --      3.2944                 3.1995                 3.3132
 Frc consts  --      0.6999                 0.7332                 0.8312
 IR Inten    --      0.8498                12.6290                11.1074

                     34                     35                     36
                      A                      A                      A
 Frequencies --    690.0928               743.1508               764.9138
 Red. masses --      6.2140                 5.5190                 4.6033
 Frc consts  --      1.7436                 1.7958                 1.5869
 IR Inten    --      2.2095                 6.3076                20.3023

                     37                     38                     39
                      A                      A                      A
 Frequencies --    801.9847               811.2762               826.7145
 Red. masses --      1.2449                 1.7832                 1.7371
 Frc consts  --      0.4717                 0.6915                 0.6995
 IR Inten    --      5.6117                25.9928                 4.9582

                     40                     41                     42
                      A                      A                      A
 Frequencies --    832.6436               850.7586               896.3233
 Red. masses --      1.7006                 2.6346                 2.7940
 Frc consts  --      0.6947                 1.1235                 1.3225
 IR Inten    --      4.1938                 9.1568                 6.5315

                     43                     44                     45
                      A                      A                      A
 Frequencies --    903.5282               939.2341               963.8140
 Red. masses --      1.4721                 3.2962                 1.8907
 Frc consts  --      0.7080                 1.7132                 1.0348
 IR Inten    --      0.8943                18.4617                 5.4628

                     46                     47                     48
                      A                      A                      A
 Frequencies --    966.7887              1005.1741              1013.5663
 Red. masses --      2.2869                 1.5005                 2.0687
 Frc consts  --      1.2594                 0.8933                 1.2521
 IR Inten    --      6.1236                 5.4549                 1.2554

                     49                     50                     51
                      A                      A                      A
 Frequencies --   1039.3056              1041.4467              1063.2229
 Red. masses --      2.2530                 1.9862                 2.1842
 Frc consts  --      1.4338                 1.2693                 1.4548
 IR Inten    --      5.6336                20.0335                20.7788

                     52                     53                     54
                      A                      A                      A
 Frequencies --   1077.4743              1089.3481              1097.1686
 Red. masses --      1.8065                 1.8556                 1.6892
 Frc consts  --      1.2356                 1.2974                 1.1980
 IR Inten    --     48.8799                59.7204                 1.6851

                     55                     56                     57
                      A                      A                      A
 Frequencies --   1104.7578              1122.4239              1132.8191
 Red. masses --      1.3439                 2.3448                 1.4532
 Frc consts  --      0.9664                 1.7405                 1.0988
 IR Inten    --     21.9336                 4.1320                 7.2763

                     58                     59                     60
                      A                      A                      A
 Frequencies --   1141.1396              1160.2220              1180.6021
 Red. masses --      2.1081                 2.3512                 2.0870
 Frc consts  --      1.6174                 1.8648                 1.7139
 IR Inten    --      3.9092                40.2164                17.6055

                     61                     62                     63
                      A                      A                      A
 Frequencies --   1198.4437              1198.9109              1205.3611
 Red. masses --      2.2757                 1.6325                 1.4981
 Frc consts  --      1.9257                 1.3825                 1.2824
 IR Inten    --     12.7028                16.2620                14.7760

                     64                     65                     66
                      A                      A                      A
 Frequencies --   1237.2945              1238.9818              1255.2200
 Red. masses --      1.7741                 2.3435                 1.3177
 Frc consts  --      1.6002                 2.1195                 1.2233
 IR Inten    --     19.2530                26.1928                16.7706

                     67                     68                     69
                      A                      A                      A
 Frequencies --   1282.4337              1304.1458              1307.8428
 Red. masses --      1.7436                 1.3741                 1.3844
 Frc consts  --      1.6896                 1.3770                 1.3951
 IR Inten    --     51.9049                 9.4851                 8.2162

                     70                     71                     72
                      A                      A                      A
 Frequencies --   1321.0180              1332.2551              1341.5201
 Red. masses --      2.3410                 1.6354                 1.6164
 Frc consts  --      2.4070                 1.7102                 1.7139
 IR Inten    --     12.4842                62.4360                45.2393

                     73                     74                     75
                      A                      A                      A
 Frequencies --   1349.9019              1360.6813              1385.0683
 Red. masses --      1.2937                 1.5457                 1.3440
 Frc consts  --      1.3889                 1.6861                 1.5191
 IR Inten    --      1.2434                33.0033                 8.1232

                     76                     77                     78
                      A                      A                      A
 Frequencies --   1391.1618              1395.0132              1399.9266
 Red. masses --      1.4004                 2.2676                 1.4191
 Frc consts  --      1.5968                 2.6000                 1.6386
 IR Inten    --      6.5268                 0.7759                 1.7843

                     79                     80                     81
                      A                      A                      A
 Frequencies --   1418.1368              1437.9471              1438.6386
 Red. masses --      1.4662                 1.2279                 1.4469
 Frc consts  --      1.7373                 1.4958                 1.7644
 IR Inten    --      5.4520                 4.3817                25.8246

                     82                     83                     84
                      A                      A                      A
 Frequencies --   1451.4055              1471.4146              1500.9179
 Red. masses --      1.4639                 1.1574                 1.1643
 Frc consts  --      1.8169                 1.4764                 1.5453
 IR Inten    --     10.4080                 0.4389                 1.7342

                     85                     86                     87
                      A                      A                      A
 Frequencies --   1505.1324              1509.5190              1510.5852
 Red. masses --      1.1002                 1.7706                 1.1085
 Frc consts  --      1.4685                 2.3771                 1.4903
 IR Inten    --      0.2807                69.5820                21.2594

                     88                     89                     90
                      A                      A                      A
 Frequencies --   1513.0796              1516.6435              1519.8556
 Red. masses --      1.1315                 1.4854                 1.0944
 Frc consts  --      1.5262                 2.0131                 1.4895
 IR Inten    --      2.4919                66.0021                 6.1569

                     91                     92                     93
                      A                      A                      A
 Frequencies --   1524.1983              1526.1885              1528.6878
 Red. masses --      1.0948                 1.0434                 1.0661
 Frc consts  --      1.4985                 1.4320                 1.4679
 IR Inten    --      7.8070                 9.0515                17.3563

                     94                     95                     96
                      A                      A                      A
 Frequencies --   1535.8514              1536.4681              1540.4903
 Red. masses --      1.0533                 1.1439                 1.1059
 Frc consts  --      1.4639                 1.5911                 1.5462
 IR Inten    --      4.7757                22.7994                 4.8747

                     97                     98                     99
                      A                      A                      A
 Frequencies --   1549.1487              1595.9437              1753.7921
 Red. masses --      1.0519                 5.2005                11.8452
 Frc consts  --      1.4874                 7.8043                21.4659
 IR Inten    --      5.1835                 5.9663               190.6986

                    100                    101                    102
                      A                      A                      A
 Frequencies --   2886.8457              2896.4643              2941.0803
 Red. masses --      1.0740                 1.0728                 1.0610
 Frc consts  --      5.2736                 5.3027                 5.4072
 IR Inten    --     28.2600                86.2655                56.0025

                    103                    104                    105
                      A                      A                      A
 Frequencies --   2950.2687              2955.5425              3010.0040
 Red. masses --      1.0712                 1.0621                 1.0832
 Frc consts  --      5.4935                 5.4661                 5.7824
 IR Inten    --     83.6392                99.2550                24.2103

                    106                    107                    108
                      A                      A                      A
 Frequencies --   3046.1633              3055.8400              3056.7509
 Red. masses --      1.0619                 1.0604                 1.0346
 Frc consts  --      5.8052                 5.8342                 5.6956
 IR Inten    --     24.5580                26.9982                29.0249

                    109                    110                    111
                      A                      A                      A
 Frequencies --   3063.3881              3068.4898              3076.3560
 Red. masses --      1.0607                 1.0703                 1.0852
 Frc consts  --      5.8645                 5.9377                 6.0514
 IR Inten    --     19.4735                41.1735                42.6450

                    112                    113                    114
                      A                      A                      A
 Frequencies --   3079.2909              3086.0031              3093.4904
 Red. masses --      1.0748                 1.1015                 1.0876
 Frc consts  --      6.0047                 6.1806                 6.1320
 IR Inten    --     57.3722                 8.4038                23.6421

                    115                    116                    117
                      A                      A                      A
 Frequencies --   3098.7365              3101.3878              3109.3865
 Red. masses --      1.0861                 1.1044                 1.1050
 Frc consts  --      6.1447                 6.2587                 6.2947
 IR Inten    --     32.7855                26.1489                23.0270

                    118                    119                    120
                      A                      A                      A
 Frequencies --   3114.1276              3128.6896              3133.0529
 Red. masses --      1.1032                 1.1030                 1.1038
 Frc consts  --      6.3036                 6.3613                 6.3837
 IR Inten    --     46.7151                40.1720                26.2476

                    121                    122                    123
                      A                      A                      A
 Frequencies --   3138.6104              3214.1764              3239.6359
 Red. masses --      1.0979                 1.0909                 1.0949
 Frc consts  --      6.3722                 6.6401                 6.7705
 IR Inten    --     33.0732                11.7880                 4.8996

 - Thermochemistry -
 -------------------
 Temperature   298.150 Kelvin.  Pressure   1.00000 Atm.
 Atom     1 has atomic number  6 and mass  12.00000

 Molecular mass:   280.16094 amu.
 Principal axes and moments of inertia in atomic units:
                           1         2         3
     Eigenvalues --  1938.76110********************
           X            0.99999   0.00382   0.00250
           Y           -0.00368   0.99842  -0.05598
           Z           -0.00271   0.05597   0.99843
 This molecule is an asymmetric top.
 Rotational symmetry number  1.
 Warning -- assumption of classical behavior for rotation
           may cause significant error
 Rotational temperatures (Kelvin)      0.04467     0.00575     0.00556
 Rotational constants (GHZ):           0.93087     0.11971     0.11584
 Zero-point vibrational energy     987429.7 (Joules/Mol)
                                  236.00137 (Kcal/Mol)
 Warning -- explicit consideration of  31 degrees of freedom as
           vibrations may cause significant error
 Vibrational temperatures:     20.97    31.53    39.73    60.25    99.89
          (Kelvin)            110.87   127.42   163.19   219.99   227.15
                              287.50   314.59   335.94   345.00   360.00
                              367.02   381.55   455.93   467.55   479.23
                              498.33   556.50   573.65   608.40   653.02
                              687.91   721.63   746.93   762.96   828.30
                              863.97   897.31   938.85   992.89  1069.23
                             1100.54  1153.88  1167.25  1189.46  1197.99
                             1224.05  1289.61  1299.98  1351.35  1386.71
                             1390.99  1446.22  1458.30  1495.33  1498.41
                             1529.74  1550.25  1567.33  1578.58  1589.50
                             1614.92  1629.87  1641.85  1669.30  1698.62
                             1724.29  1724.97  1734.25  1780.19  1782.62
                             1805.98  1845.14  1876.37  1881.69  1900.65
                             1916.82  1930.15  1942.21  1957.72  1992.80
                             2001.57  2007.11  2014.18  2040.38  2068.89
                             2069.88  2088.25  2117.04  2159.49  2165.55
                             2171.86  2173.40  2176.98  2182.11  2186.73
                             2192.98  2195.84  2199.44  2209.75  2210.63
                             2216.42  2228.88  2296.21  2523.32  4153.53
                             4167.37  4231.56  4244.78  4252.37  4330.72
                             4382.75  4396.67  4397.98  4407.53  4414.87
                             4426.19  4430.41  4440.07  4450.84  4458.39
                             4462.21  4473.71  4480.54  4501.49  4507.76
                             4515.76  4624.48  4661.11

 Zero-point correction=                           0.376092 (Hartree/Particle)
 Thermal correction to Energy=                    0.396089
 Thermal correction to Enthalpy=                  0.397033
 Thermal correction to Gibbs Free Energy=         0.324714
 Sum of electronic and zero-point Energies=          -1168.647034
 Sum of electronic and thermal Energies=             -1168.627037
 Sum of electronic and thermal Enthalpies=           -1168.626093
 Sum of electronic and thermal Free Energies=        -1168.698412

                     E (Thermal)             CV                S
                      KCal/Mol        Cal/Mol-Kelvin    Cal/Mol-Kelvin
 Total                  248.550             75.064            152.208
 Electronic               0.000              0.000              0.000
 Translational            0.889              2.981             42.789
 Rotational               0.889              2.981             34.476
 Vibrational            246.772             69.103             74.944
 Vibration     1          0.593              1.986              7.262
 Vibration     2          0.593              1.985              6.453
 Vibration     3          0.593              1.984              5.994
 Vibration     4          0.594              1.980              5.168
 Vibration     5          0.598              1.969              4.170
 Vibration     6          0.599              1.964              3.964
 Vibration     7          0.601              1.957              3.692
 Vibration     8          0.607              1.938              3.210
 Vibration     9          0.619              1.899              2.636
 Vibration    10          0.621              1.894              2.575
 Vibration    11          0.638              1.840              2.135
 Vibration    12          0.646              1.813              1.970
 Vibration    13          0.654              1.790              1.852
 Vibration    14          0.657              1.780              1.804
 Vibration    15          0.663              1.762              1.729
 Vibration    16          0.665              1.754              1.695
 Vibration    17          0.671              1.737              1.627
 Vibration    18          0.704              1.641              1.326
 Vibration    19          0.709              1.626              1.285
 Vibration    20          0.715              1.609              1.245
 Vibration    21          0.724              1.583              1.183
 Vibration    22          0.755              1.498              1.013
 Vibration    23          0.765              1.473              0.967
 Vibration    24          0.785              1.421              0.882
 Vibration    25          0.812              1.352              0.784
 Vibration    26          0.835              1.299              0.715
 Vibration    27          0.857              1.247              0.654
 Vibration    28          0.874              1.208              0.612
 Vibration    29          0.885              1.183              0.587
 Vibration    30          0.932              1.084              0.493
 Vibration    31          0.959              1.031              0.449

 Optimization completed.
    -- Stationary point found.
 Normal termination of Gaussian 16 at Sat Dec 12 09:53:43 2020.

 ----------------------------------------------------------------------
 # B3LYP/6-311++G(d,p) empiricaldispersion=gd3bj scf=xqc pop=npa geom=c
 heck
 ----------------------------------------------------------------------

 --------------------------------------
 CID_43797310_JID_9346_Energie_neutraal
 --------------------------------------
 Structure from the checkpoint file:  "JID_9346.chk"
 Charge =  0 Multiplicity = 1

 SCF Done:  E(RB3LYP) =  -1169.25948649     A.U. after   16 cycles
 Normal termination of Gaussian 16 at Sat Dec 12 10:04:54 2020.

 ----------------------------------------------------------------------
 # B3LYP/6-311++G(d,p) empiricaldispersion=gd3bj scf=xqc pop=npa geom=c
 heck
 ----------------------------------------------------------------------

 ------------------------------------
 CID_43797310_JID_9346_Energie_kation
 ------------------------------------
 Structure from the checkpoint file:  "JID_9346.chk"
 Charge =  1 Multiplicity = 2

 SCF Done:  E(UB3LYP) =  -1168.98574077     A.U. after   32 cycles
 Normal termination of Gaussian 16 at Sat Dec 12 10:36:52 2020.
 Gaussian 16:  ES64L-G16RevA.03 25-Dec-2016

 ----------------------------------------------------------------------
 # B3LYP/6-311++G(d,p) empiricaldispersion=gd3bj scf=xqc pop=npa geom=c
 heck
 ----------------------------------------------------------------------

 -----------------------------------
 CID_43797310_JID_9346_Energie_anion
 -----------------------------------
 Structure from the checkpoint file:  "JID_9346.chk"
 Charge = -1 Multiplicity = 2

                         Standard orientation:
 ---------------------------------------------------------------------
 Center     Atomic      Atomic             Coordinates (Angstroms)
 Number     Number       Type             X           Y           Z
 ---------------------------------------------------------------------
      1          6           0       -6.733430   -0.490602    0.190267
      2          6           0       -5.567513   -1.493519    0.179821
      3          6           0       -4.247016   -0.863330   -0.155105
      4          6           0       -3.497402   -1.042919   -1.296131
      5          6           0       -2.308739   -0.269832   -1.313186
      6          6           0       -2.150032    0.503900   -0.181059
      7         16           0       -3.489414    0.272726    0.923446
      8          6           0       -1.074176    1.413754    0.218049
      9          8           0       -1.102839    1.990801    1.296669
     10          6           0        0.102459    1.633941   -0.741893
     11          7           0        1.324727    1.036460   -0.220318
     12          6           0        1.260392   -0.424749   -0.204454
     13          6           0        2.502790   -1.018594    0.459387
     14          6           0        3.774061   -0.556950   -0.260632
     15          6           0        3.786260    0.983091   -0.314804
     16          6           0        2.498703    1.508607   -0.951265
     17          7           0        4.978332   -1.194695    0.286570
     18          6           0        6.119968   -1.113960   -0.609849
     19          6           0        5.344022   -0.780167    1.633451
     20          1           0       -6.576850    0.286269    0.945809
     21          1           0       -7.676890   -0.999295    0.415048
     22          1           0       -6.828929    0.002437   -0.782591
     23          1           0       -5.506564   -1.990273    1.156713
     24          1           0       -5.761898   -2.280071   -0.558592
     25          1           0       -3.796478   -1.713233   -2.095196
     26          1           0       -1.592907   -0.287329   -2.126152
     27          1           0       -0.134803    1.278527   -1.762210
     28          1           0        0.248343    2.717631   -0.797761
     29          1           0        1.157857   -0.829410   -1.234525
     30          1           0        0.365452   -0.730575    0.345938
     31          1           0        2.451885   -2.112707    0.448457
     32          1           0        2.515335   -0.694000    1.505797
     33          1           0        3.700059   -0.918794   -1.297153
     34          1           0        3.865299    1.390805    0.699404
     35          1           0        4.647743    1.346030   -0.887726
     36          1           0        2.491153    2.604424   -0.938156
     37          1           0        2.460939    1.197341   -2.017343
     38          1           0        6.531956   -0.093040   -0.727888
     39          1           0        6.926401   -1.750580   -0.228048
     40          1           0        5.838184   -1.482622   -1.602205
     41          1           0        5.720546    0.257927    1.696740
     42          1           0        4.489202   -0.872608    2.308030
     43          1           0        6.134792   -1.441250    2.005778
 ---------------------------------------------------------------------

 SCF Done:  E(UB3LYP) =  -1169.27669000     A.U. after   28 cycles

 The electronic state is 2-A.
 Alpha  occ. eigenvalues --  -88.71393 -18.92104 -14.22447 -14.19232 -10.11373
 Alpha  occ. eigenvalues --  -10.10966 -10.10905 -10.09336 -10.08146 -10.07336
 Alpha  occ. eigenvalues --  -10.07114 -10.06641 -10.06393 -10.06311 -10.05539
 Alpha  occ. eigenvalues --  -10.04690 -10.03716 -10.03058 -10.02127  -7.80050
 Alpha  occ. eigenvalues --   -5.76339  -5.75983  -5.75662  -0.86443  -0.84547
 Alpha  occ. eigenvalues --   -0.81688  -0.73280  -0.69654  -0.66286  -0.65650
 Alpha  occ. eigenvalues --   -0.63094  -0.60584  -0.58661  -0.58165  -0.55266
 Alpha  occ. eigenvalues --   -0.53010  -0.51345  -0.49170  -0.46085  -0.44714
 Alpha  occ. eigenvalues --   -0.40980  -0.39871  -0.38751  -0.38208  -0.37534
 Alpha  occ. eigenvalues --   -0.36740  -0.36054  -0.35388  -0.33943  -0.33138
 Alpha  occ. eigenvalues --   -0.32791  -0.31417  -0.30924  -0.30273  -0.29967
 Alpha  occ. eigenvalues --   -0.29302  -0.28874  -0.28498  -0.27166  -0.26283
 Alpha  occ. eigenvalues --   -0.25546  -0.25223  -0.24769  -0.24285  -0.23568
 Alpha  occ. eigenvalues --   -0.22937  -0.22781  -0.22432  -0.21063  -0.19786
 Alpha  occ. eigenvalues --   -0.19080  -0.13370  -0.11228  -0.11131  -0.09238
 Alpha  occ. eigenvalues --   -0.08558   0.03757
 Alpha virt. eigenvalues --    0.05255   0.07193   0.07472   0.07770   0.08352
 Alpha virt. eigenvalues --    0.09498   0.09582   0.09984   0.10337   0.10658
 Alpha virt. eigenvalues --    0.10791   0.10944   0.11746   0.12394   0.12704

  Beta  occ. eigenvalues --  -88.71343 -18.91590 -14.22446 -14.19198 -10.11369
  Beta  occ. eigenvalues --  -10.10965 -10.10902 -10.09330 -10.08143 -10.07335
  Beta  occ. eigenvalues --  -10.06808 -10.06642 -10.06418 -10.06339 -10.05499
  Beta  occ. eigenvalues --  -10.04299 -10.03660 -10.03180 -10.01853  -7.80005
  Beta  occ. eigenvalues --   -5.76319  -5.75963  -5.75495  -0.85560  -0.84532
  Beta  occ. eigenvalues --   -0.81600  -0.72927  -0.69626  -0.66094  -0.65635
  Beta  occ. eigenvalues --   -0.63089  -0.60354  -0.58434  -0.57803  -0.55103
  Beta  occ. eigenvalues --   -0.52995  -0.51189  -0.49119  -0.46024  -0.44127
  Beta  occ. eigenvalues --   -0.40949  -0.39617  -0.38687  -0.38062  -0.37462
  Beta  occ. eigenvalues --   -0.36646  -0.35952  -0.35290  -0.33835  -0.33062
  Beta  occ. eigenvalues --   -0.32740  -0.31339  -0.30776  -0.30180  -0.29805
  Beta  occ. eigenvalues --   -0.29264  -0.28835  -0.28371  -0.26893  -0.26055
  Beta  occ. eigenvalues --   -0.25436  -0.25204  -0.24500  -0.23566  -0.23391
  Beta  occ. eigenvalues --   -0.22726  -0.22449  -0.22285  -0.20919  -0.18829
  Beta  occ. eigenvalues --   -0.17851  -0.13364  -0.11100  -0.10185  -0.08179
  Beta  occ. eigenvalues --   -0.07420
  Beta virt. eigenvalues --    0.05199   0.07111   0.07303   0.07667   0.08239
  Beta virt. eigenvalues --    0.09309   0.09404   0.09832   0.10165   0.10418
  Beta virt. eigenvalues --    0.10646   0.10795   0.10840   0.11682   0.12334

 Mulliken charges and spin densities:
               1          2
     1  C   -0.398415  -0.135400
     2  C   -0.672990   0.079835
     3  C    0.532905   0.166338
     4  C   -0.157767  -0.116958
     5  C    0.023595   0.204552
     6  C    0.814361  -0.017843
     7  S   -0.534422   0.105342
     8  C   -0.479664   0.191601
     9  O   -0.385985   0.188425
    10  C   -0.466658   0.050321
    11  N    0.302066  -0.023868
    12  C   -0.503979   0.012880
    13  C   -0.285676  -0.035883
    14  C   -0.862545   0.014869
    15  C   -0.076164  -0.036037
    16  C   -0.339158  -0.045415
    17  N    0.287668   0.014518
    18  C   -0.147669  -0.068836
    19  C   -0.260306  -0.033324
    20  H    0.139355  -0.014160
    21  H   -0.004894   0.105266
    22  H    0.129706   0.008668
    23  H    0.036840   0.110964
    24  H    0.108646   0.023362
    25  H    0.111516   0.008106
    26  H    0.083411  -0.006960
    27  H    0.057738   0.008817
    28  H    0.114648   0.056457
    29  H    0.072494  -0.000254
    30  H    0.213989   0.009234
    31  H    0.180184   0.001336
    32  H    0.163273  -0.000849
    33  H    0.142019  -0.010627
    34  H    0.160979  -0.006038
    35  H    0.089243   0.031474
    36  H    0.140229   0.025802
    37  H    0.068058   0.013416
    38  H    0.081239   0.024539
    39  H    0.093908   0.032538
    40  H    0.084260   0.033089
    41  H    0.097029   0.015336
    42  H    0.118527   0.003340
    43  H    0.128408   0.012029
 Sum of Mulliken charges =  -1.00000   1.00000

 Dipole moment (field-independent basis, Debye):
    X=              8.2285    Y=             -2.8315    Z=             -3.0231  Tot=              9.2122
 Quadrupole moment (field-independent basis, Debye-Ang):
   XX=           -192.0604   YY=           -148.2469   ZZ=           -141.0948
   XY=              3.9732   XZ=              4.9867   YZ=             -5.8751

 Summary of Natural Population Analysis:

                                       Natural Population
                Natural  -----------------------------------------------
    Atom  No    Charge         Core      Valence    Rydberg      Total
 -----------------------------------------------------------------------
      C    1   -0.27736      0.99966     2.27266    0.00504     3.27736
      C    2   -0.20471      0.99959     2.19648    0.00864     3.20471
      C    3   -0.02662      0.99951     2.01355    0.01356     3.02662
      C    4   -0.17176      0.99948     2.16255    0.00973     3.17176
      C    5   -0.06330      0.99950     2.05551    0.00830     3.06330
      C    6   -0.13805      0.99945     2.12471    0.01389     3.13805
      S    7    0.22114      4.99939     2.75781    0.02166     7.77886
      C    8    0.28209      0.99956     1.69735    0.02099     2.71791
      O    9   -0.24894      0.99988     3.24277    0.00630     4.24894
      C   10   -0.11626      0.99959     2.10506    0.01161     3.11626
      N   11   -0.27222      0.99970     2.75855    0.01397     3.77222
      C   12   -0.08362      0.99962     2.07497    0.00903     3.08362
      C   13   -0.19572      0.99961     2.18860    0.00752     3.19572
      C   14   -0.00601      0.99957     1.98924    0.01721     3.00601
      C   15   -0.20497      0.99961     2.19758    0.00779     3.20497
      C   16   -0.07835      0.99963     2.06898    0.00975     3.07835
      N   17   -0.27881      0.99972     2.76605    0.01305     3.77881
      C   18   -0.17449      0.99966     2.16802    0.00682     3.17449
      C   19   -0.17897      0.99965     2.17213    0.00718     3.17897
      H   20    0.09889      0.00000     0.39993    0.00118     0.40111
      H   21    0.08803      0.00000     0.41006    0.00191     0.41197
      H   22    0.09586      0.00000     0.40282    0.00133     0.40414
      H   23    0.09905      0.00000     0.39891    0.00204     0.40095
      H   24    0.09585      0.00000     0.40239    0.00176     0.40415
      H   25    0.09435      0.00000     0.40448    0.00118     0.40565
      H   26    0.09504      0.00000     0.40389    0.00107     0.40496
      H   27    0.07855      0.00000     0.41922    0.00223     0.42145
      H   28    0.09995      0.00000     0.39782    0.00223     0.40005
      H   29    0.07442      0.00000     0.42412    0.00146     0.42558
      H   30    0.11214      0.00000     0.38674    0.00112     0.38786
      H   31    0.10081      0.00000     0.39803    0.00115     0.39919
      H   32    0.09897      0.00000     0.39965    0.00138     0.40103
      H   33    0.09148      0.00000     0.40652    0.00199     0.40852
      H   34    0.09986      0.00000     0.39834    0.00180     0.40014
      H   35    0.09494      0.00000     0.40344    0.00162     0.40506
      H   36    0.09635      0.00000     0.40206    0.00159     0.40365
      H   37    0.07192      0.00000     0.42524    0.00284     0.42808
      H   38    0.07685      0.00000     0.42077    0.00238     0.42315
      H   39    0.09125      0.00000     0.40763    0.00112     0.40875
      H   40    0.09426      0.00000     0.40465    0.00109     0.40574
      H   41    0.07828      0.00000     0.41957    0.00215     0.42172
      H   42    0.09892      0.00000     0.39999    0.00109     0.40108
      H   43    0.09094      0.00000     0.40795    0.00112     0.40906
 =======================================================================
   * Total *   -0.00000     22.99236    52.75677    0.25087    76.00000

 Normal termination of Gaussian 16 at Sat Dec 12 11:04:54 2020.
