 Gaussian 16, Revision A.03,

 -----------------------------------------------------------
 # opt freq B3LYP/6-31G(d) empiricaldispersion=gd3bj scf=xqc
 -----------------------------------------------------------

 ------------------------------
 CID_63988323_JID_5755_neutraal
 ------------------------------
 Symbolic Z-matrix:
 Charge =  0 Multiplicity = 1

 SCF Done:  E(RB3LYP) =  -668.923878751     A.U. after   14 cycles
 SCF Done:  E(RB3LYP) =  -668.926162582     A.U. after   12 cycles
 SCF Done:  E(RB3LYP) =  -668.926468286     A.U. after   11 cycles
 SCF Done:  E(RB3LYP) =  -668.926509935     A.U. after   11 cycles
 SCF Done:  E(RB3LYP) =  -668.926536748     A.U. after   10 cycles
 SCF Done:  E(RB3LYP) =  -668.926625317     A.U. after   12 cycles
 SCF Done:  E(RB3LYP) =  -668.926684003     A.U. after   12 cycles
 SCF Done:  E(RB3LYP) =  -668.926708765     A.U. after   11 cycles
 SCF Done:  E(RB3LYP) =  -668.926720481     A.U. after   11 cycles
 SCF Done:  E(RB3LYP) =  -668.926736228     A.U. after   10 cycles
 SCF Done:  E(RB3LYP) =  -668.926736486     A.U. after   10 cycles
 SCF Done:  E(RB3LYP) =  -668.926736742     A.U. after    8 cycles
 SCF Done:  E(RB3LYP) =  -668.926736743     A.U. after    7 cycles
 Optimization completed.
    -- Stationary point found.
 Normal termination of Gaussian 16 at Thu Dec 10 16:29:47 2020.

 --------------------------------------------------------------------
 #N Geom=AllCheck Guess=TCheck SCRF=Check GenChk RB3LYP/6-31G(d) Freq
 --------------------------------------------------------------------

 Structure from the checkpoint file:  "JID_5755.chk"
 ------------------------------
 CID_63988323_JID_5755_neutraal
 ------------------------------
 Charge =  0 Multiplicity = 1

 SCF Done:  E(RB3LYP) =  -668.926736743     A.U. after    1 cycles

  Exact polarizability: 142.553  11.826 125.443  -8.828  10.009 117.783
 Approx polarizability: 188.829  24.238 201.257 -22.709  21.107 190.819

                      1                      2                      3
                      A                      A                      A
 Frequencies --     20.8699                41.7075                49.6011
 Red. masses --      3.8142                 4.2021                 5.5276
 Frc consts  --      0.0010                 0.0043                 0.0080
 IR Inten    --      0.8252                 0.7441                 0.2962

                      4                      5                      6
                      A                      A                      A
 Frequencies --     96.6171               143.7618               178.1501
 Red. masses --      4.3011                 3.2462                 4.4941
 Frc consts  --      0.0237                 0.0395                 0.0840
 IR Inten    --      0.1639                 0.0641                 1.6837

                      7                      8                      9
                      A                      A                      A
 Frequencies --    219.1992               233.6598               264.8234
 Red. masses --      3.5343                 2.3254                 2.4301
 Frc consts  --      0.1001                 0.0748                 0.1004
 IR Inten    --      2.2252                 2.6853                 8.7720

                     10                     11                     12
                      A                      A                      A
 Frequencies --    302.3225               320.2028               345.5283
 Red. masses --      1.3139                 2.4483                 3.1250
 Frc consts  --      0.0708                 0.1479                 0.2198
 IR Inten    --     31.1979                 7.4472                 1.7477

                     13                     14                     15
                      A                      A                      A
 Frequencies --    376.2715               398.2211               441.8682
 Red. masses --      2.9362                 2.3161                 2.4128
 Frc consts  --      0.2449                 0.2164                 0.2776
 IR Inten    --      4.0274                 2.1706                 1.3035

                     16                     17                     18
                      A                      A                      A
 Frequencies --    487.0514               497.7197               527.1263
 Red. masses --      4.6124                 3.1985                 2.5962
 Frc consts  --      0.6447                 0.4668                 0.4250
 IR Inten    --      5.8777                 2.0091                 1.6551

                     19                     20                     21
                      A                      A                      A
 Frequencies --    591.8024               602.0913               648.4044
 Red. masses --      2.7423                 2.9749                 1.8910
 Frc consts  --      0.5659                 0.6354                 0.4684
 IR Inten    --      4.8859                19.2221                15.1197

                     22                     23                     24
                      A                      A                      A
 Frequencies --    695.6931               787.1328               808.8099
 Red. masses --      6.6815                 3.5335                 3.2813
 Frc consts  --      1.9053                 1.2899                 1.2647
 IR Inten    --      5.0056                28.8158                14.9221

                     25                     26                     27
                      A                      A                      A
 Frequencies --    812.8259               831.8684               852.0708
 Red. masses --      3.7938                 1.5921                 1.5242
 Frc consts  --      1.4768                 0.6491                 0.6520
 IR Inten    --     10.1969                 1.4113                 9.8472

                     28                     29                     30
                      A                      A                      A
 Frequencies --    866.3818               888.6775               894.2619
 Red. masses --      2.8587                 1.7001                 2.3889
 Frc consts  --      1.2643                 0.7911                 1.1256
 IR Inten    --     20.3040               174.4392                16.2132

                     31                     32                     33
                      A                      A                      A
 Frequencies --    967.2949               977.4271               979.7516
 Red. masses --      2.0883                 1.4330                 1.8609
 Frc consts  --      1.1512                 0.8066                 1.0525
 IR Inten    --      4.3355                 1.5561                19.7854

                     34                     35                     36
                      A                      A                      A
 Frequencies --   1012.2446              1012.5538              1020.0504
 Red. masses --      1.4777                 5.9344                 2.6203
 Frc consts  --      0.8921                 3.5848                 1.6064
 IR Inten    --      0.3676                 5.0851                 5.1862

                     37                     38                     39
                      A                      A                      A
 Frequencies --   1030.3961              1047.7374              1070.7153
 Red. masses --      1.9991                 1.4984                 2.1408
 Frc consts  --      1.2505                 0.9692                 1.4460
 IR Inten    --     11.6307                 1.9897                 6.0593

                     40                     41                     42
                      A                      A                      A
 Frequencies --   1103.9109              1107.9050              1115.9727
 Red. masses --      1.7166                 1.6896                 2.0119
 Frc consts  --      1.2325                 1.2219                 1.4763
 IR Inten    --     22.6243                12.2807                20.1417

                     43                     44                     45
                      A                      A                      A
 Frequencies --   1125.6191              1162.8318              1195.3041
 Red. masses --      3.6911                 2.2036                 1.9631
 Frc consts  --      2.7554                 1.7555                 1.6526
 IR Inten    --     35.4662                 8.2391                 5.5476

                     46                     47                     48
                      A                      A                      A
 Frequencies --   1203.6755              1228.1124              1234.4059
 Red. masses --      1.7192                 1.2647                 2.4313
 Frc consts  --      1.4676                 1.1239                 2.1827
 IR Inten    --      1.1544                10.9777                 1.2641

                     49                     50                     51
                      A                      A                      A
 Frequencies --   1249.5508              1262.9640              1287.8671
 Red. masses --      1.9963                 1.6458                 2.0995
 Frc consts  --      1.8365                 1.5467                 2.0517
 IR Inten    --     10.3774                16.2675                 2.4296

                     52                     53                     54
                      A                      A                      A
 Frequencies --   1304.3198              1327.9730              1338.4540
 Red. masses --      1.3667                 1.7389                 1.2405
 Frc consts  --      1.3699                 1.8068                 1.3094
 IR Inten    --     11.7603                 4.2924                10.1118

                     55                     56                     57
                      A                      A                      A
 Frequencies --   1340.1747              1377.6971              1381.8438
 Red. masses --      1.3339                 1.5028                 1.2968
 Frc consts  --      1.4115                 1.6806                 1.4590
 IR Inten    --      5.2020                22.5815                 1.0174

                     58                     59                     60
                      A                      A                      A
 Frequencies --   1388.5681              1400.6488              1414.7024
 Red. masses --      1.3772                 1.4932                 1.3240
 Frc consts  --      1.5645                 1.7259                 1.5613
 IR Inten    --      8.0830                 1.6686                11.9795

                     61                     62                     63
                      A                      A                      A
 Frequencies --   1418.7370              1427.9806              1432.9634
 Red. masses --      1.3206                 1.3946                 1.7015
 Frc consts  --      1.5661                 1.6755                 2.0586
 IR Inten    --      3.3488                10.7027                30.6289

                     64                     65                     66
                      A                      A                      A
 Frequencies --   1450.2197              1504.7019              1513.1700
 Red. masses --      1.3654                 1.0913                 1.3334
 Frc consts  --      1.6919                 1.4557                 1.7988
 IR Inten    --      4.2300                 3.6982                 7.6066

                     67                     68                     69
                      A                      A                      A
 Frequencies --   1519.1420              1524.9806              1529.5218
 Red. masses --      1.5152                 1.1005                 1.0950
 Frc consts  --      2.0602                 1.5079                 1.5093
 IR Inten    --      4.5225                 8.6990                 0.2935

                     70                     71                     72
                      A                      A                      A
 Frequencies --   1539.7713              1608.9598              1635.8798
 Red. masses --      1.0991                 5.8371                 5.6275
 Frc consts  --      1.5353                 8.9031                 8.8729
 IR Inten    --      3.5649                49.0941               135.1304

                     73                     74                     75
                      A                      A                      A
 Frequencies --   1694.4135              2978.2227              2984.5471
 Red. masses --      1.0947                 1.0721                 1.0722
 Frc consts  --      1.8518                 5.6029                 5.6270
 IR Inten    --     28.7436                22.2444                80.4278

                     76                     77                     78
                      A                      A                      A
 Frequencies --   3014.6708              3033.7647              3044.0032
 Red. masses --      1.0717                 1.0733                 1.0684
 Frc consts  --      5.7387                 5.8200                 5.8330
 IR Inten    --     23.1814                16.6392                37.9202

                     79                     80                     81
                      A                      A                      A
 Frequencies --   3057.3955              3082.6654              3090.9690
 Red. masses --      1.0692                 1.1020                 1.0853
 Frc consts  --      5.8884                 6.1698                 6.1093
 IR Inten    --     28.9285                36.8071                14.2359

                     82                     83                     84
                      A                      A                      A
 Frequencies --   3103.4391              3105.4194              3108.3870
 Red. masses --      1.0918                 1.0929                 1.0924
 Frc consts  --      6.1957                 6.2095                 6.2185
 IR Inten    --     64.0952                45.7422                24.9383

                     85                     86                     87
                      A                      A                      A
 Frequencies --   3111.7342              3175.7497              3189.1078
 Red. masses --      1.0958                 1.0892                 1.0912
 Frc consts  --      6.2518                 6.4723                 6.5387
 IR Inten    --     26.4030                23.1286                32.0014

                     88                     89                     90
                      A                      A                      A
 Frequencies --   3207.3531              3465.3561              3554.3528
 Red. masses --      1.0940                 1.0490                 1.0930
 Frc consts  --      6.6309                 7.4222                 8.1358
 IR Inten    --      9.7929                 1.4477                 0.1110

 - Thermochemistry -
 -------------------
 Temperature   298.150 Kelvin.  Pressure   1.00000 Atm.
 Atom     1 has atomic number  6 and mass  12.00000

 Molecular mass:   207.13716 amu.
 Principal axes and moments of inertia in atomic units:
                           1         2         3
     Eigenvalues --  1575.787105380.925685753.76577
           X            0.99998  -0.00538   0.00137
           Y            0.00533   0.99931   0.03675
           Z           -0.00157  -0.03674   0.99932
 This molecule is an asymmetric top.
 Rotational symmetry number  1.
 Warning -- assumption of classical behavior for rotation
           may cause significant error
 Rotational temperatures (Kelvin)      0.05497     0.01610     0.01505
 Rotational constants (GHZ):           1.14530     0.33540     0.31366
 Zero-point vibrational energy     735721.2 (Joules/Mol)
                                  175.84158 (Kcal/Mol)
 Warning -- explicit consideration of  20 degrees of freedom as
           vibrations may cause significant error
 Vibrational temperatures:     30.03    60.01    71.36   139.01   206.84
          (Kelvin)            256.32   315.38   336.18   381.02   434.97
                              460.70   497.14   541.37   572.95   635.75
                              700.76   716.11   758.42   851.47   866.28
                              932.91  1000.95  1132.51  1163.70  1169.48
                             1196.87  1225.94  1246.53  1278.61  1286.64
                             1391.72  1406.30  1409.64  1456.39  1456.84
                             1467.62  1482.51  1507.46  1540.52  1588.28
                             1594.03  1605.64  1619.51  1673.06  1719.78
                             1731.82  1766.98  1776.03  1797.82  1817.12
                             1852.95  1876.63  1910.66  1925.74  1928.21
                             1982.20  1988.17  1997.84  2015.22  2035.44
                             2041.25  2054.55  2061.71  2086.54  2164.93
                             2177.11  2185.71  2194.11  2200.64  2215.39
                             2314.93  2353.67  2437.88  4285.00  4294.10
                             4337.44  4364.91  4379.64  4398.91  4435.27
                             4447.21  4465.16  4468.01  4472.28  4477.09
                             4569.20  4588.41  4614.67  4985.87  5113.92

 Zero-point correction=                           0.280221 (Hartree/Particle)
 Thermal correction to Energy=                    0.293682
 Thermal correction to Enthalpy=                  0.294626
 Thermal correction to Gibbs Free Energy=         0.238489
 Sum of electronic and zero-point Energies=           -668.646515
 Sum of electronic and thermal Energies=              -668.633055
 Sum of electronic and thermal Enthalpies=            -668.632111
 Sum of electronic and thermal Free Energies=         -668.688248

                     E (Thermal)             CV                S
                      KCal/Mol        Cal/Mol-Kelvin    Cal/Mol-Kelvin
 Total                  184.288             52.361            118.151
 Electronic               0.000              0.000              0.000
 Translational            0.889              2.981             41.889
 Rotational               0.889              2.981             32.256
 Vibrational            182.511             46.400             44.006
 Vibration     1          0.593              1.986              6.550
 Vibration     2          0.594              1.981              5.176
 Vibration     3          0.595              1.978              4.833
 Vibration     4          0.603              1.952              3.521
 Vibration     5          0.616              1.909              2.753
 Vibration     6          0.629              1.869              2.348
 Vibration     7          0.647              1.812              1.966
 Vibration     8          0.654              1.789              1.851
 Vibration     9          0.671              1.737              1.630
 Vibration    10          0.694              1.669              1.404
 Vibration    11          0.706              1.635              1.309
 Vibration    12          0.724              1.584              1.187
 Vibration    13          0.747              1.521              1.054
 Vibration    14          0.764              1.474              0.969
 Vibration    15          0.802              1.379              0.821
 Vibration    16          0.843              1.279              0.691
 Vibration    17          0.853              1.255              0.664
 Vibration    18          0.882              1.190              0.594
 Vibration    19          0.949              1.049              0.464
 Vibration    20          0.960              1.027              0.446

 Optimization completed.
    -- Stationary point found.
 Normal termination of Gaussian 16 at Thu Dec 10 16:40:10 2020.

 ----------------------------------------------------------------------
 # B3LYP/6-311++G(d,p) empiricaldispersion=gd3bj scf=xqc pop=npa geom=c
 heck
 ----------------------------------------------------------------------

 --------------------------------------
 CID_63988323_JID_5755_Energie_neutraal
 --------------------------------------
 Structure from the checkpoint file:  "JID_5755.chk"
 Charge =  0 Multiplicity = 1

 SCF Done:  E(RB3LYP) =  -669.115486359     A.U. after   15 cycles
 Normal termination of Gaussian 16 at Thu Dec 10 16:45:34 2020.

 ----------------------------------------------------------------------
 # B3LYP/6-311++G(d,p) empiricaldispersion=gd3bj scf=xqc pop=npa geom=c
 heck
 ----------------------------------------------------------------------

 ------------------------------------
 CID_63988323_JID_5755_Energie_kation
 ------------------------------------
 Structure from the checkpoint file:  "JID_5755.chk"
 Charge =  1 Multiplicity = 2

 SCF Done:  E(UB3LYP) =  -668.801489685     A.U. after   27 cycles
 Normal termination of Gaussian 16 at Thu Dec 10 16:55:32 2020.
 Gaussian 16:  ES64L-G16RevA.03 25-Dec-2016

 ----------------------------------------------------------------------
 # B3LYP/6-311++G(d,p) empiricaldispersion=gd3bj scf=xqc pop=npa geom=c
 heck
 ----------------------------------------------------------------------

 -----------------------------------
 CID_63988323_JID_5755_Energie_anion
 -----------------------------------
 Structure from the checkpoint file:  "JID_5755.chk"
 Charge = -1 Multiplicity = 2

                         Standard orientation:
 ---------------------------------------------------------------------
 Center     Atomic      Atomic             Coordinates (Angstroms)
 Number     Number       Type             X           Y           Z
 ---------------------------------------------------------------------
      1          6           0        1.519102   -1.112657   -0.642846
      2          6           0        2.840773   -0.624665   -1.234458
      3          8           0        3.887830   -0.659985   -0.270452
      4          6           0        3.606159    0.172132    0.846084
      5          6           0        2.318992   -0.249270    1.560904
      6          6           0        1.116439   -0.285292    0.594944
      7          6           0        0.630664    1.139301    0.269050
      8          6           0       -0.549048    1.236219   -0.713452
      9          6           0       -1.705414    0.346949   -0.284483
     10          7           0       -1.945378   -0.746147   -1.027262
     11          6           0       -2.957656   -1.529519   -0.637867
     12          7           0       -3.761949   -1.352068    0.412984
     13          6           0       -3.511594   -0.257678    1.146818
     14          6           0       -2.491668    0.633271    0.837593
     15          7           0       -0.898151    2.651593   -0.881427
     16          1           0        1.652992   -2.156725   -0.332935
     17          1           0        0.728983   -1.106427   -1.400649
     18          1           0        3.165855   -1.271468   -2.054626
     19          1           0        2.736626    0.398210   -1.636122
     20          1           0        3.543532    1.224825    0.521277
     21          1           0        4.468263    0.083434    1.514089
     22          1           0        2.124486    0.429307    2.402312
     23          1           0        2.472146   -1.251893    1.978800
     24          1           0        0.290771   -0.806713    1.096231
     25          1           0        0.333939    1.620918    1.213414
     26          1           0        1.434795    1.755535   -0.145072
     27          1           0       -0.231654    0.866834   -1.693053
     28          1           0       -3.145538   -2.410538   -1.248425
     29          1           0       -4.154695   -0.097367    2.010473
     30          1           0       -2.312346    1.513420    1.447233
     31          1           0       -1.698766    2.744052   -1.504499
     32          1           0       -1.174175    3.058094    0.011386
 ---------------------------------------------------------------------

 SCF Done:  E(UB3LYP) =  -669.110727760     A.U. after   33 cycles
 SCF Done:  E(UB3LYP) =  -669.110727760     a.u. after    2 cycles

 The electronic state is 2-A.
 Alpha  occ. eigenvalues --  -19.02144 -14.18942 -14.16801 -14.16509 -10.11351
 Alpha  occ. eigenvalues --  -10.11095 -10.10111 -10.08597 -10.06912 -10.06785
 Alpha  occ. eigenvalues --  -10.06767 -10.06255 -10.05798 -10.05656 -10.05088
 Alpha  occ. eigenvalues --   -0.93557  -0.84430  -0.78610  -0.74557  -0.70947
 Alpha  occ. eigenvalues --   -0.66122  -0.65565  -0.61766  -0.55114  -0.53399
 Alpha  occ. eigenvalues --   -0.52338  -0.51726  -0.47678  -0.43695  -0.40497
 Alpha  occ. eigenvalues --   -0.39152  -0.38541  -0.37399  -0.36820  -0.35072
 Alpha  occ. eigenvalues --   -0.34280  -0.33542  -0.32185  -0.32011  -0.30175
 Alpha  occ. eigenvalues --   -0.29207  -0.28418  -0.27894  -0.27201  -0.25213
 Alpha  occ. eigenvalues --   -0.24640  -0.23480  -0.22270  -0.20843  -0.20126
 Alpha  occ. eigenvalues --   -0.18026  -0.16566  -0.15835  -0.15224  -0.13829
 Alpha  occ. eigenvalues --   -0.11514   0.04934
 Alpha virt. eigenvalues --    0.06710   0.07527   0.08329   0.08702   0.09534
 Alpha virt. eigenvalues --    0.09873   0.09990   0.10199   0.10895   0.11270
 Alpha virt. eigenvalues --    0.12116   0.12872   0.13434   0.13878   0.14174

  Beta  occ. eigenvalues --  -19.02141 -14.18904 -14.16574 -14.16210 -10.11345
  Beta  occ. eigenvalues --  -10.11074 -10.10164 -10.08625 -10.06764 -10.06634
  Beta  occ. eigenvalues --  -10.06409 -10.06240 -10.05798 -10.05616 -10.05184
  Beta  occ. eigenvalues --   -0.93550  -0.83977  -0.78472  -0.73970  -0.70916
  Beta  occ. eigenvalues --   -0.66097  -0.65239  -0.61671  -0.54933  -0.53372
  Beta  occ. eigenvalues --   -0.52221  -0.51403  -0.47437  -0.43638  -0.40420
  Beta  occ. eigenvalues --   -0.39056  -0.38406  -0.37363  -0.36663  -0.35042
  Beta  occ. eigenvalues --   -0.34186  -0.33404  -0.32036  -0.31965  -0.30104
  Beta  occ. eigenvalues --   -0.28655  -0.28168  -0.27723  -0.26849  -0.25191
  Beta  occ. eigenvalues --   -0.24528  -0.23368  -0.22225  -0.20742  -0.20095
  Beta  occ. eigenvalues --   -0.16355  -0.16148  -0.15355  -0.15129  -0.13312
  Beta  occ. eigenvalues --   -0.11211
  Beta virt. eigenvalues --    0.07200   0.07966   0.08434   0.08764   0.09706
  Beta virt. eigenvalues --    0.09863   0.10124   0.10412   0.10660   0.10993
  Beta virt. eigenvalues --    0.11436   0.12270   0.12832   0.13386   0.14054

 Mulliken charges and spin densities:
               1          2
     1  C   -0.248365  -0.163139
     2  C   -0.493590  -0.102730
     3  O   -0.144598   0.031410
     4  C    0.624713  -1.034216
     5  C   -0.602546   0.377110
     6  C    0.017129   0.438838
     7  C   -0.116176  -0.363067
     8  C    1.102994  -1.484667
     9  C   -1.088365   0.764833
    10  N   -0.004097   0.121215
    11  C   -0.069418   0.059837
    12  N   -0.173498   0.130201
    13  C   -0.280523  -0.134753
    14  C    0.132313   0.095056
    15  N   -0.287386   0.017963
    16  H    0.121781   0.031608
    17  H    0.204156  -0.061367
    18  H    0.153280   0.021369
    19  H    0.080502   0.061723
    20  H   -0.108949   0.238903
    21  H   -0.407236   0.609045
    22  H   -0.312295   0.448687
    23  H    0.066956   0.095732
    24  H    0.187609   0.022911
    25  H   -0.003908   0.133837
    26  H    0.313550  -0.145796
    27  H    0.210541   0.055596
    28  H    0.122787   0.023679
    29  H   -0.000594   0.112186
    30  H   -0.342282   0.488536
    31  H    0.211473   0.010569
    32  H    0.134043   0.098894
 Sum of Mulliken charges =  -1.00000   1.00000

 Dipole moment (field-independent basis, Debye):
    X=              1.2227    Y=             -0.2235    Z=             -2.6155  Tot=              2.8959
 Quadrupole moment (field-independent basis, Debye-Ang):
   XX=           -169.2627   YY=           -117.7308   ZZ=           -115.2632
   XY=             -8.0888   XZ=             -3.7777   YZ=             -2.2630

 Summary of Natural Population Analysis:

                                       Natural Population
                Natural  -----------------------------------------------
    Atom  No    Charge         Core      Valence    Rydberg      Total
 -----------------------------------------------------------------------
      C    1   -0.20831      0.99961     2.20122    0.00747     3.20831
      C    2   -0.01004      0.99958     1.99924    0.01122     3.01004
      O    3   -0.30436      0.99989     3.29516    0.00931     4.30436
      C    4   -0.01150      0.99958     1.99778    0.01414     3.01150
      C    5   -0.20141      0.99962     2.19197    0.00983     3.20141
      C    6   -0.11345      0.99959     2.10393    0.00992     3.11345
      C    7   -0.18709      0.99959     2.17696    0.01053     3.18709
      C    8   -0.03178      0.99955     2.01973    0.01249     3.03178
      C    9    0.17040      0.99951     1.81416    0.01592     2.82960
      N   10   -0.23929      0.99968     2.72914    0.01047     3.73929
      C   11    0.12647      0.99967     1.85507    0.01879     2.87353
      N   12   -0.22248      0.99972     2.71197    0.01080     3.72248
      C   13    0.08048      0.99960     1.90274    0.01717     2.91952
      C   14   -0.16981      0.99949     2.16104    0.00927     3.16981
      N   15   -0.41544      0.99977     2.90675    0.00891     3.91544
      H   16    0.09669      0.00000     0.40223    0.00107     0.40331
      H   17    0.11382      0.00000     0.38491    0.00127     0.38618
      H   18    0.08740      0.00000     0.41154    0.00106     0.41260
      H   19    0.07662      0.00000     0.42215    0.00123     0.42338
      H   20    0.07684      0.00000     0.42178    0.00137     0.42316
      H   21    0.09055      0.00000     0.40788    0.00158     0.40945
      H   22    0.10225      0.00000     0.39652    0.00124     0.39775
      H   23    0.09708      0.00000     0.40184    0.00108     0.40292
      H   24    0.10503      0.00000     0.39314    0.00183     0.39497
      H   25    0.09697      0.00000     0.40183    0.00120     0.40303
      H   26    0.10019      0.00000     0.39821    0.00161     0.39981
      H   27    0.09600      0.00000     0.40202    0.00198     0.40400
      H   28    0.07398      0.00000     0.42473    0.00129     0.42602
      H   29    0.08075      0.00000     0.41797    0.00128     0.41925
      H   30    0.09913      0.00000     0.39926    0.00161     0.40087
      H   31    0.17368      0.00000     0.32490    0.00142     0.32632
      H   32    0.17062      0.00000     0.32767    0.00171     0.32938
 =======================================================================
   * Total *   -0.00000     14.99446    40.80546    0.20008    56.00000

 Normal termination of Gaussian 16 at Thu Dec 10 17:18:11 2020.
