 Gaussian 16, Revision A.03,

 -----------------------------------------------------------
 # opt freq B3LYP/6-31G(d) empiricaldispersion=gd3bj scf=xqc
 -----------------------------------------------------------

 ------------------------------
 CID_69591618_JID_4800_neutraal
 ------------------------------
 Symbolic Z-matrix:
 Charge =  0 Multiplicity = 1

 SCF Done:  E(RB3LYP) =  -1009.50695559     A.U. after   15 cycles
 SCF Done:  E(RB3LYP) =  -1009.51101145     A.U. after   12 cycles
 SCF Done:  E(RB3LYP) =  -1009.50975702     A.U. after   15 cycles
 SCF Done:  E(RB3LYP) =  -1009.51173546     A.U. after   12 cycles
 SCF Done:  E(RB3LYP) =  -1009.51202108     A.U. after   12 cycles
 SCF Done:  E(RB3LYP) =  -1009.51218042     A.U. after   12 cycles
 SCF Done:  E(RB3LYP) =  -1009.51221112     A.U. after   11 cycles
 SCF Done:  E(RB3LYP) =  -1009.51222086     A.U. after   11 cycles
 SCF Done:  E(RB3LYP) =  -1009.51222514     A.U. after   10 cycles
 SCF Done:  E(RB3LYP) =  -1009.51222731     A.U. after   10 cycles
 SCF Done:  E(RB3LYP) =  -1009.51222757     A.U. after    8 cycles
 Optimization completed.
    -- Stationary point found.
 Normal termination of Gaussian 16 at Thu Dec 10 10:41:03 2020.

 --------------------------------------------------------------------
 #N Geom=AllCheck Guess=TCheck SCRF=Check GenChk RB3LYP/6-31G(d) Freq
 --------------------------------------------------------------------

 Structure from the checkpoint file:  "JID_4800.chk"
 ------------------------------
 CID_69591618_JID_4800_neutraal
 ------------------------------
 Charge =  0 Multiplicity = 1

 SCF Done:  E(RB3LYP) =  -1009.51222757     A.U. after    1 cycles

  Exact polarizability: 124.938  16.473 135.205   9.890  -3.444 108.957
 Approx polarizability: 168.876  23.525 202.886  20.624 -11.228 200.568

                      1                      2                      3
                      A                      A                      A
 Frequencies --     24.0882                39.2284                53.5965
 Red. masses --      4.3190                 4.1385                 2.9831
 Frc consts  --      0.0015                 0.0038                 0.0050
 IR Inten    --      0.0456                 2.7896                 0.7550

                      4                      5                      6
                      A                      A                      A
 Frequencies --     73.2869               111.9256               146.9057
 Red. masses --      3.7158                 3.1398                 4.8465
 Frc consts  --      0.0118                 0.0232                 0.0616
 IR Inten    --      0.1710                 1.8213                 0.6116

                      7                      8                      9
                      A                      A                      A
 Frequencies --    157.1789               204.7203               229.8277
 Red. masses --      3.5231                 2.3668                 2.5733
 Frc consts  --      0.0513                 0.0584                 0.0801
 IR Inten    --      1.7421                 1.8282                 0.8306

                     10                     11                     12
                      A                      A                      A
 Frequencies --    263.0420               289.1321               297.2274
 Red. masses --      4.4690                 2.8553                 2.7321
 Frc consts  --      0.1822                 0.1406                 0.1422
 IR Inten    --      4.6253                 3.9927                 0.0769

                     13                     14                     15
                      A                      A                      A
 Frequencies --    337.7501               374.1699               404.3964
 Red. masses --      3.2188                 2.7434                 4.2335
 Frc consts  --      0.2163                 0.2263                 0.4079
 IR Inten    --      2.7348                 1.8869                 0.3817

                     16                     17                     18
                      A                      A                      A
 Frequencies --    423.0774               451.3252               487.2999
 Red. masses --      2.7536                 2.9812                 2.6838
 Frc consts  --      0.2904                 0.3578                 0.3755
 IR Inten    --      8.9401                12.6603                 2.1971

                     19                     20                     21
                      A                      A                      A
 Frequencies --    520.3671               556.7392               636.8556
 Red. masses --      7.8094                 3.4261                 7.9899
 Frc consts  --      1.2459                 0.6257                 1.9093
 IR Inten    --     60.6314                28.0537                14.6883

                     22                     23                     24
                      A                      A                      A
 Frequencies --    681.8355               751.8008               766.8783
 Red. masses --      3.2907                 1.9599                 1.9940
 Frc consts  --      0.9014                 0.6527                 0.6909
 IR Inten    --     62.2982                 9.4150                 2.4266

                     25                     26                     27
                      A                      A                      A
 Frequencies --    788.2408               805.9170               826.6807
 Red. masses --      3.0625                 8.3567                 1.2355
 Frc consts  --      1.1211                 3.1979                 0.4975
 IR Inten    --     12.9045                 4.5490                12.4914

                     28                     29                     30
                      A                      A                      A
 Frequencies --    864.5334               887.9060               954.8246
 Red. masses --      1.5146                 2.0921                 1.5590
 Frc consts  --      0.6670                 0.9718                 0.8374
 IR Inten    --      1.7387                17.3782                 0.0774

                     31                     32                     33
                      A                      A                      A
 Frequencies --    982.1941              1001.5106              1008.0346
 Red. masses --      1.6944                 1.3794                 1.4184
 Frc consts  --      0.9631                 0.8152                 0.8492
 IR Inten    --     12.3216                 0.0122                 0.0040

                     34                     35                     36
                      A                      A                      A
 Frequencies --   1012.2788              1035.7137              1085.8989
 Red. masses --      9.6613                 1.6608                 2.1531
 Frc consts  --      5.8329                 1.0496                 1.4959
 IR Inten    --      4.9085                 0.6652                 6.9240

                     37                     38                     39
                      A                      A                      A
 Frequencies --   1098.2146              1104.7674              1123.0087
 Red. masses --      2.9612                 2.8857                 1.5642
 Frc consts  --      2.1042                 2.0751                 1.1623
 IR Inten    --      9.4025                86.2924                32.5389

                     40                     41                     42
                      A                      A                      A
 Frequencies --   1130.3088              1139.5420              1200.2463
 Red. masses --      1.6261                 2.0622                 1.3222
 Frc consts  --      1.2240                 1.5778                 1.1222
 IR Inten    --     37.2330                 1.2758                 4.7010

                     43                     44                     45
                      A                      A                      A
 Frequencies --   1228.1506              1243.5089              1255.3598
 Red. masses --      1.8951                 2.2713                 5.0153
 Frc consts  --      1.6841                 2.0693                 4.6568
 IR Inten    --      2.1699                 6.9435                 0.4228

                     46                     47                     48
                      A                      A                      A
 Frequencies --   1301.2057              1310.5928              1318.5406
 Red. masses --      1.2575                 2.9887                 2.0198
 Frc consts  --      1.2544                 3.0246                 2.0689
 IR Inten    --      1.7646                97.5863                17.0381

                     49                     50                     51
                      A                      A                      A
 Frequencies --   1331.7983              1356.7552              1389.7432
 Red. masses --      1.6632                 1.2038                 1.3733
 Frc consts  --      1.7381                 1.3055                 1.5627
 IR Inten    --     42.8843                 2.4105                 4.7972

                     52                     53                     54
                      A                      A                      A
 Frequencies --   1412.5335              1419.6221              1442.2193
 Red. masses --      1.4406                 1.4052                 2.2914
 Frc consts  --      1.6935                 1.6685                 2.8081
 IR Inten    --      2.5437                 4.8303                85.2376

                     55                     56                     57
                      A                      A                      A
 Frequencies --   1444.3696              1477.9367              1485.9124
 Red. masses --      1.2652                 1.9308                 1.1111
 Frc consts  --      1.5552                 2.4848                 1.4454
 IR Inten    --      3.9722                 3.8873                13.4252

                     58                     59                     60
                      A                      A                      A
 Frequencies --   1510.3297              1526.3703              1528.1363
 Red. masses --      1.0733                 1.0602                 1.0667
 Frc consts  --      1.4425                 1.4553                 1.4676
 IR Inten    --      5.4621                 3.4654                 6.0051

                     61                     62                     63
                      A                      A                      A
 Frequencies --   1537.4360              1543.5288              1616.1463
 Red. masses --      1.0548                 1.0816                 5.1128
 Frc consts  --      1.4690                 1.5183                 7.8681
 IR Inten    --      6.7327                 3.7705                53.1870

                     64                     65                     66
                      A                      A                      A
 Frequencies --   1620.6531              3039.1273              3045.1221
 Red. masses --      5.7572                 1.0651                 1.0549
 Frc consts  --      8.9092                 5.7963                 5.7632
 IR Inten    --     72.5995                14.2855                36.0218

                     67                     68                     69
                      A                      A                      A
 Frequencies --   3045.6774              3059.8715              3078.1491
 Red. masses --      1.0480                 1.0677                 1.0944
 Frc consts  --      5.7279                 5.8898                 6.1098
 IR Inten    --     12.7169                11.6156                14.1602

                     70                     71                     72
                      A                      A                      A
 Frequencies --   3087.1789              3092.2473              3110.1637
 Red. masses --      1.0959                 1.0628                 1.0989
 Frc consts  --      6.1540                 5.9878                 6.2629
 IR Inten    --     49.4961                 2.5482                19.0835

                     73                     74                     75
                      A                      A                      A
 Frequencies --   3113.2278              3116.1937              3154.8935
 Red. masses --      1.1013                 1.1019                 1.1022
 Frc consts  --      6.2891                 6.3043                 6.4639
 IR Inten    --     49.4084                37.3139                 1.3769

                     76                     77                     78
                      A                      A                      A
 Frequencies --   3193.3324              3196.2593              3233.8944
 Red. masses --      1.0902                 1.0923                 1.0965
 Frc consts  --      6.5500                 6.5749                 6.7566
 IR Inten    --     10.8500                16.7044                 7.9423

 - Thermochemistry -
 -------------------
 Temperature   298.150 Kelvin.  Pressure   1.00000 Atm.
 Atom     1 has atomic number  6 and mass  12.00000

 Molecular mass:   214.07760 amu.
 Principal axes and moments of inertia in atomic units:
                           1         2         3
     Eigenvalues --  2546.682433123.777004571.20049
           X            0.99986  -0.01539   0.00576
           Y            0.01541   0.99988  -0.00268
           Z           -0.00572   0.00277   0.99998
 This molecule is an asymmetric top.
 Rotational symmetry number  1.
 Warning -- assumption of classical behavior for rotation
           may cause significant error
 Rotational temperatures (Kelvin)      0.03401     0.02773     0.01895
 Rotational constants (GHZ):           0.70866     0.57774     0.39481
 Zero-point vibrational energy     605302.4 (Joules/Mol)
                                  144.67075 (Kcal/Mol)
 Warning -- explicit consideration of  20 degrees of freedom as
           vibrations may cause significant error
 Vibrational temperatures:     34.66    56.44    77.11   105.44   161.04
          (Kelvin)            211.36   226.15   294.55   330.67   378.46
                              416.00   427.64   485.95   538.35   581.84
                              608.71   649.36   701.12   748.69   801.02
                              916.29   981.01  1081.67  1103.37  1134.10
                             1159.53  1189.41  1243.87  1277.50  1373.78
                             1413.16  1440.95  1450.34  1456.44  1490.16
                             1562.37  1580.09  1589.51  1615.76  1626.26
                             1639.55  1726.89  1767.03  1789.13  1806.18
                             1872.14  1885.65  1897.09  1916.16  1952.07
                             1999.53  2032.32  2042.52  2075.03  2078.13
                             2126.42  2137.90  2173.03  2196.11  2198.65
                             2212.03  2220.79  2325.27  2331.76  4372.63
                             4381.25  4382.05  4402.47  4428.77  4441.76
                             4449.05  4474.83  4479.24  4483.51  4539.19
                             4594.49  4598.70  4652.85

 Zero-point correction=                           0.230548 (Hartree/Particle)
 Thermal correction to Energy=                    0.244662
 Thermal correction to Enthalpy=                  0.245606
 Thermal correction to Gibbs Free Energy=         0.187863
 Sum of electronic and zero-point Energies=          -1009.281680
 Sum of electronic and thermal Energies=             -1009.267566
 Sum of electronic and thermal Enthalpies=           -1009.266622
 Sum of electronic and thermal Free Energies=        -1009.324364

                     E (Thermal)             CV                S
                      KCal/Mol        Cal/Mol-Kelvin    Cal/Mol-Kelvin
 Total                  153.528             51.975            121.530
 Electronic               0.000              0.000              0.000
 Translational            0.889              2.981             41.987
 Rotational               0.889              2.981             31.964
 Vibrational            151.750             46.014             47.579
 Vibration     1          0.593              1.985              6.265
 Vibration     2          0.594              1.981              5.298
 Vibration     3          0.596              1.976              4.680
 Vibration     4          0.599              1.967              4.063
 Vibration     5          0.607              1.940              3.235
 Vibration     6          0.617              1.906              2.712
 Vibration     7          0.621              1.895              2.583
 Vibration     8          0.640              1.833              2.090
 Vibration     9          0.652              1.795              1.880
 Vibration    10          0.670              1.741              1.641
 Vibration    11          0.686              1.694              1.479
 Vibration    12          0.691              1.679              1.432
 Vibration    13          0.718              1.600              1.223
 Vibration    14          0.745              1.525              1.063
 Vibration    15          0.770              1.461              0.947
 Vibration    16          0.785              1.420              0.882
 Vibration    17          0.810              1.358              0.792
 Vibration    18          0.843              1.278              0.691
 Vibration    19          0.875              1.205              0.609
 Vibration    20          0.912              1.125              0.530

 Optimization completed.
    -- Stationary point found.
 Normal termination of Gaussian 16 at Thu Dec 10 10:49:34 2020.

 ----------------------------------------------------------------------
 # B3LYP/6-311++G(d,p) empiricaldispersion=gd3bj scf=xqc pop=npa geom=c
 heck
 ----------------------------------------------------------------------

 --------------------------------------
 CID_69591618_JID_4800_Energie_neutraal
 --------------------------------------
 Structure from the checkpoint file:  "JID_4800.chk"
 Charge =  0 Multiplicity = 1

 SCF Done:  E(RB3LYP) =  -1009.70709170     A.U. after   15 cycles
 Normal termination of Gaussian 16 at Thu Dec 10 10:53:14 2020.

 ----------------------------------------------------------------------
 # B3LYP/6-311++G(d,p) empiricaldispersion=gd3bj scf=xqc pop=npa geom=c
 heck
 ----------------------------------------------------------------------

 ------------------------------------
 CID_69591618_JID_4800_Energie_kation
 ------------------------------------
 Structure from the checkpoint file:  "JID_4800.chk"
 Charge =  1 Multiplicity = 2

 SCF Done:  E(UB3LYP) =  -1009.35339313     A.U. after   31 cycles
 Normal termination of Gaussian 16 at Thu Dec 10 11:02:46 2020.
 Gaussian 16:  ES64L-G16RevA.03 25-Dec-2016

 ----------------------------------------------------------------------
 # B3LYP/6-311++G(d,p) empiricaldispersion=gd3bj scf=xqc pop=npa geom=c
 heck
 ----------------------------------------------------------------------

 -----------------------------------
 CID_69591618_JID_4800_Energie_anion
 -----------------------------------
 Structure from the checkpoint file:  "JID_4800.chk"
 Charge = -1 Multiplicity = 2

                         Standard orientation:
 ---------------------------------------------------------------------
 Center     Atomic      Atomic             Coordinates (Angstroms)
 Number     Number       Type             X           Y           Z
 ---------------------------------------------------------------------
      1          6           0       -3.512842    1.854153   -0.419666
      2          6           0       -2.102181    1.675035    0.149691
      3          6           0       -1.958052    0.466646    1.087312
      4          6           0       -2.236232   -0.901028    0.445983
      5          6           0       -1.300225   -1.299653   -0.695602
      6         16           0        0.396064   -1.677567   -0.152669
      7          8           0        0.348526   -2.241941    1.200904
      8          8           0        1.070934   -2.388097   -1.250309
      9          6           0        1.202371   -0.030268   -0.053611
     10          7           0        1.008842    0.760442   -1.105520
     11          6           0        1.646500    1.937074   -1.065981
     12          6           0        2.463777    2.296066    0.004246
     13          6           0        2.580314    1.372862    1.041794
     14          7           0        1.940796    0.195639    1.023606
     15          1           0       -3.799104    1.019366   -1.069292
     16          1           0       -3.583860    2.770333   -1.016125
     17          1           0       -4.257501    1.918963    0.383193
     18          1           0       -1.383244    1.597629   -0.674499
     19          1           0       -1.822699    2.577680    0.709064
     20          1           0       -0.954978    0.459739    1.531363
     21          1           0       -2.652924    0.588526    1.928867
     22          1           0       -2.181545   -1.676425    1.216481
     23          1           0       -3.257902   -0.925261    0.047874
     24          1           0       -1.610016   -2.242122   -1.158751
     25          1           0       -1.205901   -0.548769   -1.483501
     26          1           0        1.492432    2.600693   -1.913526
     27          1           0        2.981144    3.248630    0.029368
     28          1           0        3.195348    1.574491    1.915829
 ---------------------------------------------------------------------

 SCF Done:  E(UB3LYP) =  -1009.72309803     A.U. after   33 cycles
 SCF Done:  E(UB3LYP) =  -1009.72309803     a.u. after    1 cycles

 The electronic state is 2-A.
 Alpha  occ. eigenvalues --  -88.89907 -18.97453 -18.97259 -14.16757 -14.14065
 Alpha  occ. eigenvalues --  -10.09581 -10.08366 -10.06974 -10.06463 -10.06411
 Alpha  occ. eigenvalues --  -10.05757 -10.05697 -10.03866 -10.03189  -7.96424
 Alpha  occ. eigenvalues --   -5.92698  -5.92581  -5.92500  -0.96556  -0.86341
 Alpha  occ. eigenvalues --   -0.83416  -0.73683  -0.70830  -0.66318  -0.64242
 Alpha  occ. eigenvalues --   -0.59856  -0.55001  -0.51936  -0.50688  -0.47007
 Alpha  occ. eigenvalues --   -0.44334  -0.39679  -0.37220  -0.36635  -0.36249
 Alpha  occ. eigenvalues --   -0.34127  -0.33476  -0.32525  -0.31561  -0.30470
 Alpha  occ. eigenvalues --   -0.29153  -0.28558  -0.27670  -0.26949  -0.26242
 Alpha  occ. eigenvalues --   -0.26039  -0.22835  -0.22069  -0.21889  -0.19894
 Alpha  occ. eigenvalues --   -0.18524  -0.17462  -0.17124  -0.17020  -0.14139
 Alpha  occ. eigenvalues --   -0.13734  -0.10379   0.04675
 Alpha virt. eigenvalues --    0.06727   0.08587   0.09155   0.09267   0.10135
 Alpha virt. eigenvalues --    0.10650   0.11170   0.11951   0.12010   0.12665
 Alpha virt. eigenvalues --    0.13118   0.14207   0.14740   0.16082   0.16246

  Beta  occ. eigenvalues --  -88.89909 -18.97432 -18.97237 -14.16850 -14.13345
  Beta  occ. eigenvalues --  -10.09417 -10.08363 -10.06970 -10.06454 -10.06310
  Beta  occ. eigenvalues --  -10.05752 -10.05695 -10.03274 -10.03156  -7.96425
  Beta  occ. eigenvalues --   -5.92698  -5.92576  -5.92508  -0.96502  -0.86293
  Beta  occ. eigenvalues --   -0.82788  -0.72904  -0.70807  -0.66266  -0.63685
  Beta  occ. eigenvalues --   -0.59799  -0.54865  -0.51704  -0.49889  -0.46872
  Beta  occ. eigenvalues --   -0.44180  -0.39539  -0.37147  -0.36535  -0.35918
  Beta  occ. eigenvalues --   -0.34007  -0.33401  -0.32484  -0.31482  -0.30409
  Beta  occ. eigenvalues --   -0.28656  -0.28274  -0.27314  -0.26463  -0.25944
  Beta  occ. eigenvalues --   -0.25724  -0.22759  -0.22024  -0.21875  -0.19748
  Beta  occ. eigenvalues --   -0.18418  -0.17167  -0.16866  -0.15021  -0.13546
  Beta  occ. eigenvalues --   -0.12168  -0.09935
  Beta virt. eigenvalues --    0.06680   0.08551   0.09067   0.09191   0.10448
  Beta virt. eigenvalues --    0.10572   0.11072   0.11804   0.11888   0.12223
  Beta virt. eigenvalues --    0.12607   0.13023   0.14152   0.14630   0.16080

 Mulliken charges and spin densities:
               1          2
     1  C   -0.346171  -0.293961
     2  C   -0.288406   0.036626
     3  C    0.065982   0.063997
     4  C   -0.459236  -0.123900
     5  C   -0.656462   0.063599
     6  S    0.689840   0.052556
     7  O   -0.210172  -0.002636
     8  O   -0.177592  -0.014513
     9  C   -1.292285   0.109641
    10  N    0.065909   0.302877
    11  C   -0.044517   0.163423
    12  C   -0.255708   0.027581
    13  C   -0.064902   0.419029
    14  N    0.132064  -0.065818
    15  H    0.089411   0.046372
    16  H    0.037710   0.093123
    17  H    0.059450   0.065398
    18  H    0.171982  -0.045132
    19  H    0.057169   0.077701
    20  H    0.174719  -0.000026
    21  H    0.142682   0.021965
    22  H    0.211237  -0.001721
    23  H    0.083389   0.023185
    24  H    0.197914   0.008293
    25  H    0.255259  -0.000185
    26  H    0.123348   0.005047
    27  H    0.101542   0.003658
    28  H    0.135843  -0.036178
 Sum of Mulliken charges =  -1.00000   1.00000

 Dipole moment (field-independent basis, Debye):
    X=             -5.5445    Y=              2.3740    Z=             -0.3120  Tot=              6.0394
 Quadrupole moment (field-independent basis, Debye-Ang):
   XX=           -117.8232   YY=           -120.1548   ZZ=           -110.0821
   XY=              8.3085   XZ=              0.5679   YZ=              1.4248

 Summary of Natural Population Analysis:

                                       Natural Population
                Natural  -----------------------------------------------
    Atom  No    Charge         Core      Valence    Rydberg      Total
 -----------------------------------------------------------------------
      C    1   -0.28634      0.99967     2.28234    0.00432     3.28634
      C    2   -0.20327      0.99964     2.19330    0.01033     3.20327
      C    3   -0.19379      0.99963     2.18552    0.00864     3.19379
      C    4   -0.20164      0.99962     2.19303    0.00899     3.20164
      C    5   -0.29607      0.99958     2.28390    0.01259     3.29607
      S    6    1.00882      4.99921     1.89638    0.09559     6.99118
      O    7   -0.46873      0.99991     3.46306    0.00577     4.46873
      O    8   -0.47137      0.99991     3.46559    0.00587     4.47137
      C    9    0.13002      0.99949     1.84364    0.02685     2.86998
      N   10   -0.17589      0.99964     2.66202    0.01422     3.67589
      C   11    0.05319      0.99960     1.93291    0.01430     2.94681
      C   12   -0.14246      0.99956     2.13519    0.00771     3.14246
      C   13    0.13709      0.99960     1.84853    0.01478     2.86291
      N   14   -0.25804      0.99966     2.74839    0.01000     3.75804
      H   15    0.09294      0.00000     0.40590    0.00116     0.40706
      H   16    0.09644      0.00000     0.40256    0.00099     0.40356
      H   17    0.09072      0.00000     0.40797    0.00131     0.40928
      H   18    0.11012      0.00000     0.38811    0.00177     0.38988
      H   19    0.09528      0.00000     0.40365    0.00107     0.40472
      H   20    0.11240      0.00000     0.38620    0.00141     0.38760
      H   21    0.09053      0.00000     0.40828    0.00118     0.40947
      H   22    0.10808      0.00000     0.38962    0.00231     0.39192
      H   23    0.09403      0.00000     0.40432    0.00165     0.40597
      H   24    0.10979      0.00000     0.38909    0.00113     0.39021
      H   25    0.12285      0.00000     0.37544    0.00171     0.37715
      H   26    0.07943      0.00000     0.41931    0.00126     0.42057
      H   27    0.09364      0.00000     0.40518    0.00117     0.40636
      H   28    0.07222      0.00000     0.42615    0.00163     0.42778
 =======================================================================
   * Total *    0.00000     17.99472    38.74559    0.25970    57.00000

 Normal termination of Gaussian 16 at Thu Dec 10 11:12:22 2020.
