 Gaussian 16, Revision A.03,

 -----------------------------------------------------------
 # opt freq B3LYP/6-31G(d) empiricaldispersion=gd3bj scf=xqc
 -----------------------------------------------------------

 -------------------------------
 CID_141770659_JID_6810_neutraal
 -------------------------------
 Symbolic Z-matrix:
 Charge =  0 Multiplicity = 1

 SCF Done:  E(RB3LYP) =  -995.534748006     A.U. after   15 cycles
 SCF Done:  E(RB3LYP) =  -995.541145776     A.U. after   12 cycles
 SCF Done:  E(RB3LYP) =  -995.541716451     A.U. after   12 cycles
 SCF Done:  E(RB3LYP) =  -995.541898018     A.U. after   11 cycles
 SCF Done:  E(RB3LYP) =  -995.542300678     A.U. after   13 cycles
 SCF Done:  E(RB3LYP) =  -995.542289880     A.U. after   13 cycles
 SCF Done:  E(RB3LYP) =  -995.542864299     A.U. after   12 cycles
 SCF Done:  E(RB3LYP) =  -995.542503758     A.U. after   12 cycles
 SCF Done:  E(RB3LYP) =  -995.534104800     A.U. after   13 cycles
 SCF Done:  E(RB3LYP) =  -995.543042777     A.U. after   12 cycles
 SCF Done:  E(RB3LYP) =  -995.543064489     A.U. after   10 cycles
 SCF Done:  E(RB3LYP) =  -995.543071141     A.U. after    9 cycles
 SCF Done:  E(RB3LYP) =  -995.543073340     A.U. after    9 cycles
 SCF Done:  E(RB3LYP) =  -995.543073690     A.U. after    7 cycles
 SCF Done:  E(RB3LYP) =  -995.543073814     A.U. after    8 cycles
 Optimization completed.
    -- Stationary point found.
 Normal termination of Gaussian 16 at Fri Dec 11 00:45:26 2020.

 --------------------------------------------------------------------
 #N Geom=AllCheck Guess=TCheck SCRF=Check GenChk RB3LYP/6-31G(d) Freq
 --------------------------------------------------------------------

 Structure from the checkpoint file:  "JID_6810.chk"
 -------------------------------
 CID_141770659_JID_6810_neutraal
 -------------------------------
 Charge =  0 Multiplicity = 1

 SCF Done:  E(RB3LYP) =  -995.543073815     A.U. after    1 cycles

  Exact polarizability: 216.058  -6.236 194.425  19.068  10.526  94.450
 Approx polarizability: 320.743  -9.955 344.721  42.029  27.911 147.435

                      1                      2                      3
                      A                      A                      A
 Frequencies --     43.3390                69.5481                78.8828
 Red. masses --      3.5648                 3.7981                 3.9253
 Frc consts  --      0.0039                 0.0108                 0.0144
 IR Inten    --      0.1474                 0.0836                 0.8164

                      4                      5                      6
                      A                      A                      A
 Frequencies --    129.7154               152.6199               178.1789
 Red. masses --      2.0413                 1.2127                 2.9930
 Frc consts  --      0.0202                 0.0166                 0.0560
 IR Inten    --      5.5140                14.4085                 4.5266

                      7                      8                      9
                      A                      A                      A
 Frequencies --    214.5520               226.8212               259.3908
 Red. masses --      7.7334                 2.0046                 2.0891
 Frc consts  --      0.2097                 0.0608                 0.0828
 IR Inten    --      1.0609                 0.7801                 0.6708

                     10                     11                     12
                      A                      A                      A
 Frequencies --    282.5439               326.9089               335.4892
 Red. masses --      2.7519                 3.6941                 4.0719
 Frc consts  --      0.1294                 0.2326                 0.2700
 IR Inten    --      0.2831                 0.6120                 1.1606

                     13                     14                     15
                      A                      A                      A
 Frequencies --    376.5729               390.6414               461.0841
 Red. masses --      4.0846                 2.0301                 4.4069
 Frc consts  --      0.3413                 0.1825                 0.5520
 IR Inten    --      0.7142                 1.6141                 0.5259

                     16                     17                     18
                      A                      A                      A
 Frequencies --    474.4456               476.0215               496.1115
 Red. masses --      3.8219                 3.4377                 3.9641
 Frc consts  --      0.5069                 0.4590                 0.5748
 IR Inten    --      1.1262                 0.6022                 0.8431

                     19                     20                     21
                      A                      A                      A
 Frequencies --    518.3487               538.6220               606.0487
 Red. masses --      4.8226                 4.0526                 4.8998
 Frc consts  --      0.7634                 0.6927                 1.0603
 IR Inten    --      1.0655                 6.8157                 2.1493

                     22                     23                     24
                      A                      A                      A
 Frequencies --    611.4651               638.5130               661.1551
 Red. masses --      3.8500                 4.2122                 5.2547
 Frc consts  --      0.8481                 1.0118                 1.3533
 IR Inten    --      0.6590                 2.6043                 8.3759

                     25                     26                     27
                      A                      A                      A
 Frequencies --    727.1039               771.9909               802.5032
 Red. masses --      2.1389                 1.5141                 4.1118
 Frc consts  --      0.6662                 0.5317                 1.5602
 IR Inten    --     38.3703                32.9411                 4.3581

                     28                     29                     30
                      A                      A                      A
 Frequencies --    812.8419               821.4287               838.7264
 Red. masses --      2.3381                 1.5389                 2.7192
 Frc consts  --      0.9102                 0.6118                 1.1270
 IR Inten    --     23.2616                17.2340                 8.6469

                     31                     32                     33
                      A                      A                      A
 Frequencies --    849.1321               879.3024               893.3775
 Red. masses --      3.3928                 3.0872                 1.4549
 Frc consts  --      1.4413                 1.4063                 0.6842
 IR Inten    --      9.4166                24.1458                 2.6182

                     34                     35                     36
                      A                      A                      A
 Frequencies --    920.2872               939.0407               954.6810
 Red. masses --      1.4297                 1.6378                 2.0239
 Frc consts  --      0.7134                 0.8509                 1.0868
 IR Inten    --      1.3102                 0.5555                 1.3730

                     37                     38                     39
                      A                      A                      A
 Frequencies --    961.9770               967.5650              1047.7559
 Red. masses --      1.2238                 1.3048                 2.7855
 Frc consts  --      0.6672                 0.7197                 1.8016
 IR Inten    --      6.6737                 0.3116                 7.0760

                     40                     41                     42
                      A                      A                      A
 Frequencies --   1056.0119              1070.1808              1096.5285
 Red. masses --      2.0039                 2.7785                 3.0515
 Frc consts  --      1.3167                 1.8749                 2.1617
 IR Inten    --      1.1775                 1.2830                26.5656

                     43                     44                     45
                      A                      A                      A
 Frequencies --   1136.2391              1146.1676              1168.3845
 Red. masses --      2.0362                 1.5376                 2.2555
 Frc consts  --      1.5489                 1.1901                 1.8142
 IR Inten    --      4.6565                 2.1075                13.6016

                     46                     47                     48
                      A                      A                      A
 Frequencies --   1173.0344              1186.2393              1198.9550
 Red. masses --      1.9615                 1.2869                 1.2796
 Frc consts  --      1.5902                 1.0669                 1.0838
 IR Inten    --     27.7672                 1.5602                 1.8051

                     49                     50                     51
                      A                      A                      A
 Frequencies --   1210.9908              1251.0624              1264.2273
 Red. masses --      1.2680                 1.6385                 1.8281
 Frc consts  --      1.0956                 1.5110                 1.7215
 IR Inten    --      1.8744                11.0942                 3.7869

                     52                     53                     54
                      A                      A                      A
 Frequencies --   1270.7717              1287.8522              1314.9028
 Red. masses --      1.4986                 1.4649                 2.1259
 Frc consts  --      1.4258                 1.4315                 2.1656
 IR Inten    --      5.6656                12.7537                 5.9509

                     55                     56                     57
                      A                      A                      A
 Frequencies --   1365.6957              1380.3247              1399.1863
 Red. masses --      2.7750                 2.1164                 3.3023
 Frc consts  --      3.0495                 2.3758                 3.8091
 IR Inten    --      4.4437                13.2496                 5.6770

                     58                     59                     60
                      A                      A                      A
 Frequencies --   1401.4444              1414.8145              1439.6142
 Red. masses --      1.8484                 1.5975                 2.4492
 Frc consts  --      2.1389                 1.8841                 2.9907
 IR Inten    --     39.0808                19.7612                19.8463

                     61                     62                     63
                      A                      A                      A
 Frequencies --   1461.4402              1484.3702              1499.1802
 Red. masses --      2.4550                 1.1972                 1.1512
 Frc consts  --      3.0893                 1.5542                 1.5244
 IR Inten    --      4.3368                 2.5591                 5.8905

                     64                     65                     66
                      A                      A                      A
 Frequencies --   1505.9179              1512.4421              1525.3023
 Red. masses --      1.3014                 1.8990                 1.1247
 Frc consts  --      1.7389                 2.5593                 1.5417
 IR Inten    --      6.2267                 2.9290                 2.1125

                     67                     68                     69
                      A                      A                      A
 Frequencies --   1527.3674              1549.1313              1564.1609
 Red. masses --      1.0915                 1.0769                 3.9782
 Frc consts  --      1.5003                 1.5226                 5.7346
 IR Inten    --      5.8124                10.1433                12.5248

                     70                     71                     72
                      A                      A                      A
 Frequencies --   1633.5817              1657.0326              1671.8668
 Red. masses --      6.6119                 6.3076                 5.9368
 Frc consts  --     10.3958                10.2041                 9.7769
 IR Inten    --      8.2364                 5.7573                 4.6343

                     73                     74                     75
                      A                      A                      A
 Frequencies --   2702.0561              2919.6024              2945.2778
 Red. masses --      1.0384                 1.0820                 1.0622
 Frc consts  --      4.4670                 5.4340                 5.4286
 IR Inten    --     16.2483                89.7931               137.2453

                     76                     77                     78
                      A                      A                      A
 Frequencies --   3022.3737              3030.0790              3062.2817
 Red. masses --      1.0686                 1.0649                 1.1004
 Frc consts  --      5.7514                 5.7608                 6.0796
 IR Inten    --     12.9034                64.3446                29.6063

                     79                     80                     81
                      A                      A                      A
 Frequencies --   3081.8466              3091.9216              3126.7797
 Red. masses --      1.0776                 1.0850                 1.1025
 Frc consts  --      6.0302                 6.1112                 6.3505
 IR Inten    --     16.0144                42.6151                29.1880

                     82                     83                     84
                      A                      A                      A
 Frequencies --   3175.1366              3175.4941              3193.3247
 Red. masses --      1.0873                 1.0878                 1.0901
 Frc consts  --      6.4584                 6.4630                 6.5494
 IR Inten    --     20.4165                10.5309                 0.9918

                     85                     86                     87
                      A                      A                      A
 Frequencies --   3194.0247              3210.0484              3500.8124
 Red. masses --      1.0921                 1.0958                 1.0743
 Frc consts  --      6.5640                 6.6530                 7.7572
 IR Inten    --     41.1281                19.8310                 0.5285

 - Thermochemistry -
 -------------------
 Temperature   298.150 Kelvin.  Pressure   1.00000 Atm.
 Atom     1 has atomic number  6 and mass  12.00000

 Molecular mass:   229.09252 amu.
 Principal axes and moments of inertia in atomic units:
                           1         2         3
     Eigenvalues --  2210.258434986.225526403.30647
           X            0.99993   0.01055  -0.00487
           Y           -0.01056   0.99994  -0.00257
           Z            0.00484   0.00262   0.99998
 This molecule is an asymmetric top.
 Rotational symmetry number  1.
 Warning -- assumption of classical behavior for rotation
           may cause significant error
 Rotational temperatures (Kelvin)      0.03919     0.01737     0.01353
 Rotational constants (GHZ):           0.81653     0.36195     0.28185
 Zero-point vibrational energy     675831.6 (Joules/Mol)
                                  161.52762 (Kcal/Mol)
 Warning -- explicit consideration of  22 degrees of freedom as
           vibrations may cause significant error
 Vibrational temperatures:     62.36   100.06   113.49   186.63   219.59
          (Kelvin)            256.36   308.69   326.35   373.21   406.52
                              470.35   482.69   541.80   562.05   663.40
                              682.62   684.89   713.79   745.79   774.96
                              871.97   879.76   918.68   951.25  1046.14
                             1110.72  1154.62  1169.50  1181.85  1206.74
                             1221.71  1265.12  1285.37  1324.09  1351.07
                             1373.57  1384.07  1392.11  1507.49  1519.37
                             1539.75  1577.66  1634.79  1649.08  1681.04
                             1687.73  1706.73  1725.03  1742.35  1800.00
                             1818.94  1828.36  1852.93  1891.85  1964.93
                             1985.98  2013.12  2016.37  2035.60  2071.28
                             2102.69  2135.68  2156.99  2166.68  2176.07
                             2194.57  2197.54  2228.85  2250.48  2350.36
                             2384.10  2405.44  3887.66  4200.66  4237.60
                             4348.52  4359.61  4405.94  4434.09  4448.59
                             4498.74  4568.31  4568.83  4594.48  4595.49
                             4618.54  5036.89

 Zero-point correction=                           0.257411 (Hartree/Particle)
 Thermal correction to Energy=                    0.271208
 Thermal correction to Enthalpy=                  0.272153
 Thermal correction to Gibbs Free Energy=         0.216769
 Sum of electronic and zero-point Energies=           -995.285663
 Sum of electronic and thermal Energies=              -995.271865
 Sum of electronic and thermal Enthalpies=            -995.270921
 Sum of electronic and thermal Free Energies=         -995.326305

                     E (Thermal)             CV                S
                      KCal/Mol        Cal/Mol-Kelvin    Cal/Mol-Kelvin
 Total                  170.186             55.101            116.564
 Electronic               0.000              0.000              0.000
 Translational            0.889              2.981             42.189
 Rotational               0.889              2.981             32.623
 Vibrational            168.408             49.139             41.752
 Vibration     1          0.595              1.980              5.100
 Vibration     2          0.598              1.969              4.166
 Vibration     3          0.600              1.963              3.918
 Vibration     4          0.612              1.924              2.950
 Vibration     5          0.619              1.900              2.639
 Vibration     6          0.629              1.869              2.347
 Vibration     7          0.644              1.819              2.005
 Vibration     8          0.650              1.800              1.904
 Vibration     9          0.668              1.747              1.666
 Vibration    10          0.682              1.706              1.518
 Vibration    11          0.711              1.622              1.275
 Vibration    12          0.717              1.605              1.234
 Vibration    13          0.747              1.520              1.053
 Vibration    14          0.758              1.490              0.998
 Vibration    15          0.819              1.336              0.763
 Vibration    16          0.831              1.307              0.725
 Vibration    17          0.833              1.303              0.721
 Vibration    18          0.852              1.259              0.668
 Vibration    19          0.873              1.209              0.614
 Vibration    20          0.894              1.165              0.568
 Vibration    21          0.965              1.019              0.439
 Vibration    22          0.971              1.008              0.430

                           ! Non-Optimized Parameters !
 Normal termination of Gaussian 16 at Fri Dec 11 00:57:06 2020.

 ----------------------------------------------------------------------
 # B3LYP/6-311++G(d,p) empiricaldispersion=gd3bj scf=xqc pop=npa geom=c
 heck
 ----------------------------------------------------------------------

 ---------------------------------------
 CID_141770659_JID_6810_Energie_neutraal
 ---------------------------------------
 Structure from the checkpoint file:  "JID_6810.chk"
 Charge =  0 Multiplicity = 1

 SCF Done:  E(RB3LYP) =  -995.724189596     A.U. after   16 cycles
 Normal termination of Gaussian 16 at Fri Dec 11 01:02:10 2020.

 ----------------------------------------------------------------------
 # B3LYP/6-311++G(d,p) empiricaldispersion=gd3bj scf=xqc pop=npa geom=c
 heck
 ----------------------------------------------------------------------

 -------------------------------------
 CID_141770659_JID_6810_Energie_kation
 -------------------------------------
 Structure from the checkpoint file:  "JID_6810.chk"
 Charge =  1 Multiplicity = 2

 SCF Done:  E(UB3LYP) =  -995.462209431     A.U. after   26 cycles
 Normal termination of Gaussian 16 at Fri Dec 11 01:13:07 2020.
 Gaussian 16:  ES64L-G16RevA.03 25-Dec-2016

 ----------------------------------------------------------------------
 # B3LYP/6-311++G(d,p) empiricaldispersion=gd3bj scf=xqc pop=npa geom=c
 heck
 ----------------------------------------------------------------------

 ------------------------------------
 CID_141770659_JID_6810_Energie_anion
 ------------------------------------
 Structure from the checkpoint file:  "JID_6810.chk"
 Charge = -1 Multiplicity = 2

                         Standard orientation:
 ---------------------------------------------------------------------
 Center     Atomic      Atomic             Coordinates (Angstroms)
 Number     Number       Type             X           Y           Z
 ---------------------------------------------------------------------
      1          6           0       -3.585993   -1.381940    1.546750
      2          7           0       -2.879571   -0.203061    1.066306
      3          6           0       -2.878477   -0.042007   -0.385096
      4          6           0       -2.296155    1.329530   -0.742538
      5          6           0       -0.834908    1.453265   -0.371291
      6          6           0       -0.008777    0.288308   -0.365169
      7          6           0       -0.556387   -0.993455   -0.670325
      8          6           0        0.263323   -2.098160   -0.619001
      9          6           0        1.631367   -1.989823   -0.294263
     10          6           0        2.190013   -0.762616   -0.004277
     11          6           0        1.378264    0.414608   -0.025388
     12          6           0        1.893866    1.700711    0.281902
     13          6           0        1.077379    2.806999    0.268847
     14          6           0       -0.291067    2.678679   -0.051436
     15         16           0        3.923540   -0.593050    0.411410
     16          6           0       -2.010110   -1.114472   -1.058259
     17          1           0       -3.010662   -2.285353    1.318571
     18          1           0       -4.598192   -1.509369    1.116963
     19          1           0       -3.680150   -1.324540    2.635410
     20          1           0       -3.286703    0.629339    1.486240
     21          1           0       -3.899871   -0.115143   -0.807477
     22          1           0       -2.420377    1.480735   -1.824344
     23          1           0       -2.871648    2.128153   -0.256239
     24          1           0       -0.147118   -3.081740   -0.834909
     25          1           0        2.240637   -2.888919   -0.270883
     26          1           0        2.943321    1.811552    0.536024
     27          1           0        1.482955    3.784608    0.513160
     28          1           0       -0.927737    3.560357   -0.044304
     29          1           0        4.219120   -1.902603    0.296812
     30          1           0       -2.376772   -2.120429   -0.828431
     31          1           0       -2.120483   -0.994180   -2.146022
 ---------------------------------------------------------------------

 SCF Done:  E(UB3LYP) =  -995.718532223     A.U. after   33 cycles
 SCF Done:  E(UB3LYP) =  -995.718532223     a.u. after    1 cycles

 The electronic state is 2-A.
 Alpha  occ. eigenvalues --  -88.73690 -14.18423 -10.08375 -10.08103 -10.06596
 Alpha  occ. eigenvalues --  -10.05305 -10.05225 -10.05054 -10.04599 -10.04112
 Alpha  occ. eigenvalues --  -10.03861 -10.03694 -10.03665 -10.03386 -10.03302
 Alpha  occ. eigenvalues --  -10.02953  -7.82358  -5.78747  -5.78347  -5.77769
 Alpha  occ. eigenvalues --   -0.79907  -0.74728  -0.70025  -0.68708  -0.64946
 Alpha  occ. eigenvalues --   -0.61889  -0.60756  -0.59462  -0.55301  -0.53719
 Alpha  occ. eigenvalues --   -0.49135  -0.48171  -0.47013  -0.41960  -0.38323
 Alpha  occ. eigenvalues --   -0.37674  -0.37407  -0.36636  -0.34816  -0.33983
 Alpha  occ. eigenvalues --   -0.31382  -0.30939  -0.29260  -0.28826  -0.28091
 Alpha  occ. eigenvalues --   -0.27642  -0.27543  -0.26782  -0.26198  -0.24615
 Alpha  occ. eigenvalues --   -0.24144  -0.23506  -0.22039  -0.20314  -0.19565
 Alpha  occ. eigenvalues --   -0.18622  -0.16942  -0.12606  -0.11828  -0.11095
 Alpha  occ. eigenvalues --   -0.07686   0.04872
 Alpha virt. eigenvalues --    0.06690   0.08036   0.08443   0.08660   0.09514
 Alpha virt. eigenvalues --    0.09793   0.10580   0.10989   0.11442   0.11506
 Alpha virt. eigenvalues --    0.12208   0.12722   0.12979   0.14005   0.14141

  Beta  occ. eigenvalues --  -88.73693 -14.18413 -10.08354 -10.08088 -10.06344
  Beta  occ. eigenvalues --  -10.05311 -10.05276 -10.05070 -10.04656 -10.04049
  Beta  occ. eigenvalues --  -10.03823 -10.03657 -10.03461 -10.03260 -10.03142
  Beta  occ. eigenvalues --  -10.02759  -7.82360  -5.78752  -5.78354  -5.77766
  Beta  occ. eigenvalues --   -0.79872  -0.74494  -0.69739  -0.68471  -0.64816
  Beta  occ. eigenvalues --   -0.61636  -0.60625  -0.59310  -0.55229  -0.53533
  Beta  occ. eigenvalues --   -0.49039  -0.47809  -0.46882  -0.41824  -0.38066
  Beta  occ. eigenvalues --   -0.37611  -0.37260  -0.36500  -0.34714  -0.33933
  Beta  occ. eigenvalues --   -0.31315  -0.30869  -0.29136  -0.28634  -0.27974
  Beta  occ. eigenvalues --   -0.27484  -0.27386  -0.26692  -0.25843  -0.24503
  Beta  occ. eigenvalues --   -0.23935  -0.23375  -0.21941  -0.19642  -0.19434
  Beta  occ. eigenvalues --   -0.18508  -0.16421  -0.12180  -0.11372  -0.10795
  Beta  occ. eigenvalues --   -0.06518
  Beta virt. eigenvalues --    0.07082   0.07999   0.08520   0.08859   0.09205
  Beta virt. eigenvalues --    0.09567   0.09920   0.10739   0.11030   0.11438
  Beta virt. eigenvalues --    0.11543   0.12265   0.12903   0.13031   0.14121

 Mulliken charges and spin densities:
               1          2
     1  C    0.071749  -0.448742
     2  N   -0.107534   0.031313
     3  C    0.100714   0.168626
     4  C    0.040085  -0.856183
     5  C   -0.022340   0.395962
     6  C    0.120039   0.054971
     7  C    0.242343   0.192387
     8  C   -0.273472   0.017838
     9  C   -0.162752   0.144009
    10  C    0.167788   0.047878
    11  C    0.217695   0.045585
    12  C   -0.482063   0.150406
    13  C   -0.460717  -0.032558
    14  C    0.063524  -0.007737
    15  S   -0.797244   0.008985
    16  C   -0.024057  -0.446523
    17  H    0.113506   0.023841
    18  H   -0.189827   0.306193
    19  H   -0.025544   0.139776
    20  H    0.180472   0.045870
    21  H   -0.338904   0.491504
    22  H    0.225319  -0.076506
    23  H   -0.225735   0.366220
    24  H    0.039270   0.074462
    25  H    0.091183   0.001758
    26  H    0.031102  -0.013280
    27  H    0.119520   0.007142
    28  H    0.070913   0.032907
    29  H    0.070073   0.008252
    30  H    0.164633  -0.055684
    31  H   -0.019738   0.181327
 Sum of Mulliken charges =  -1.00000   1.00000

 Dipole moment (field-independent basis, Debye):
    X=              1.4343    Y=             -1.1979    Z=             -0.2006  Tot=              1.8795
 Quadrupole moment (field-independent basis, Debye-Ang):
   XX=           -159.1455   YY=           -123.1968   ZZ=           -123.6967
   XY=             -3.4886   XZ=              1.2486   YZ=             -1.8374

 Summary of Natural Population Analysis:

                                       Natural Population
                Natural  -----------------------------------------------
    Atom  No    Charge         Core      Valence    Rydberg      Total
 -----------------------------------------------------------------------
      C    1   -0.17879      0.99966     2.17065    0.00848     3.17879
      N    2   -0.33525      0.99973     2.82385    0.01167     3.83525
      C    3    0.00078      0.99960     1.98623    0.01339     2.99922
      C    4   -0.19614      0.99959     2.18645    0.01009     3.19614
      C    5    0.03624      0.99948     1.95385    0.01043     2.96376
      C    6   -0.02498      0.99943     2.01701    0.00854     3.02498
      C    7    0.03422      0.99948     1.95714    0.00916     2.96578
      C    8   -0.10350      0.99951     2.09435    0.00964     3.10350
      C    9   -0.10738      0.99950     2.09632    0.01157     3.10738
      C   10   -0.03502      0.99936     2.02529    0.01037     3.03502
      C   11   -0.05132      0.99948     2.04036    0.01147     3.05132
      C   12   -0.04317      0.99955     2.03895    0.00468     3.04317
      C   13   -0.10571      0.99960     2.09324    0.01287     3.10571
      C   14   -0.10517      0.99951     2.09501    0.01065     3.10517
      S   15    0.00199      4.99958     2.98299    0.01544     7.99801
      C   16   -0.19954      0.99959     2.19037    0.00958     3.19954
      H   17    0.09087      0.00000     0.40800    0.00112     0.40913
      H   18    0.07609      0.00000     0.42219    0.00173     0.42391
      H   19    0.09228      0.00000     0.40709    0.00063     0.40772
      H   20    0.17048      0.00000     0.32693    0.00259     0.32952
      H   21    0.07741      0.00000     0.41989    0.00269     0.42259
      H   22    0.10219      0.00000     0.39675    0.00106     0.39781
      H   23    0.09917      0.00000     0.39948    0.00136     0.40083
      H   24    0.09053      0.00000     0.40801    0.00146     0.40947
      H   25    0.08941      0.00000     0.40924    0.00135     0.41059
      H   26    0.09286      0.00000     0.40582    0.00132     0.40714
      H   27    0.08922      0.00000     0.40871    0.00207     0.41078
      H   28    0.09036      0.00000     0.40821    0.00143     0.40964
      H   29    0.05096      0.00000     0.44583    0.00321     0.44904
      H   30    0.09865      0.00000     0.40031    0.00104     0.40135
      H   31    0.10322      0.00000     0.39560    0.00118     0.39678
 =======================================================================
   * Total *    0.00097     19.99266    40.81410    0.19227    60.99903

 Normal termination of Gaussian 16 at Fri Dec 11 01:27:33 2020.
