 Gaussian 16, Revision A.03,

 -----------------------------------------------------------
 # opt freq B3LYP/6-31G(d) empiricaldispersion=gd3bj scf=xqc
 -----------------------------------------------------------

 --------------------------------
 CID_150762121_JID_10956_neutraal
 --------------------------------
 Symbolic Z-matrix:
 Charge =  0 Multiplicity = 1

 SCF Done:  E(RB3LYP) =  -963.235156757     A.U. after   16 cycles
 SCF Done:  E(RB3LYP) =  -963.242503432     A.U. after   14 cycles
 SCF Done:  E(RB3LYP) =  -963.243573123     A.U. after   13 cycles
 SCF Done:  E(RB3LYP) =  -963.244436550     A.U. after   13 cycles
 SCF Done:  E(RB3LYP) =  -963.244684165     A.U. after   12 cycles
 SCF Done:  E(RB3LYP) =  -963.244974064     A.U. after   14 cycles
 SCF Done:  E(RB3LYP) =  -963.245156943     A.U. after   13 cycles
 SCF Done:  E(RB3LYP) =  -963.245414163     A.U. after   13 cycles
 SCF Done:  E(RB3LYP) =  -963.245610727     A.U. after   12 cycles
 SCF Done:  E(RB3LYP) =  -963.245763055     A.U. after   13 cycles
 SCF Done:  E(RB3LYP) =  -963.250752042     A.U. after   12 cycles
 SCF Done:  E(RB3LYP) =  -963.250752012     A.U. after    8 cycles
 SCF Done:  E(RB3LYP) =  -963.250752187     A.U. after    9 cycles
 SCF Done:  E(RB3LYP) =  -963.250752200     A.U. after    7 cycles
 SCF Done:  E(RB3LYP) =  -963.250752198     A.U. after    7 cycles
 Optimization completed.
    -- Stationary point found.
 Normal termination of Gaussian 16 at Sat Dec 12 17:08:54 2020.

 --------------------------------------------------------------------
 #N Geom=AllCheck Guess=TCheck SCRF=Check GenChk RB3LYP/6-31G(d) Freq
 --------------------------------------------------------------------

 Structure from the checkpoint file:  "JID_10956.chk"
 --------------------------------
 CID_150762121_JID_10956_neutraal
 --------------------------------
 Charge =  0 Multiplicity = 1

 SCF Done:  E(RB3LYP) =  -963.250752198     A.U. after    1 cycles

  Exact polarizability: 236.417   5.289 174.558 -12.021   5.638 112.145
 Approx polarizability: 313.493  -0.296 318.743 -18.463  25.677 191.908

                      1                      2                      3
                      A                      A                      A
 Frequencies --     10.3440                33.2758                34.0003
 Red. masses --      4.9615                 6.0015                 5.9982
 Frc consts  --      0.0003                 0.0039                 0.0041
 IR Inten    --      0.5133                 1.8802                 3.5353

                      4                      5                      6
                      A                      A                      A
 Frequencies --     71.1886                79.5464                82.1226
 Red. masses --      6.0044                 3.0936                 3.7945
 Frc consts  --      0.0179                 0.0115                 0.0151
 IR Inten    --      2.6837                 1.8118                 1.9335

                      7                      8                      9
                      A                      A                      A
 Frequencies --    121.9649               133.9098               139.7396
 Red. masses --      6.3227                 2.9179                 6.8307
 Frc consts  --      0.0554                 0.0308                 0.0786
 IR Inten    --      1.4350                 0.6698                 1.7861

                     10                     11                     12
                      A                      A                      A
 Frequencies --    162.2332               189.3375               221.9966
 Red. masses --      1.4107                 4.1506                 3.9717
 Frc consts  --      0.0219                 0.0877                 0.1153
 IR Inten    --      0.4236                 1.9926                 0.9029

                     13                     14                     15
                      A                      A                      A
 Frequencies --    260.3297               265.4886               292.2361
 Red. masses --      1.6836                 2.9183                 4.9389
 Frc consts  --      0.0672                 0.1212                 0.2485
 IR Inten    --      0.7013                 0.2412                 5.9830

                     16                     17                     18
                      A                      A                      A
 Frequencies --    323.7860               353.5454               385.9687
 Red. masses --      4.4196                 4.7216                 4.8679
 Frc consts  --      0.2730                 0.3477                 0.4273
 IR Inten    --      5.6468                 1.1017                 0.7189

                     19                     20                     21
                      A                      A                      A
 Frequencies --    396.2624               415.3516               440.1444
 Red. masses --      6.1102                 6.0700                10.1611
 Frc consts  --      0.5653                 0.6170                 1.1598
 IR Inten    --      8.3538                 8.8812                 0.4033

                     22                     23                     24
                      A                      A                      A
 Frequencies --    474.9142               492.0523               515.4993
 Red. masses --      5.7383                 5.3817                 4.1113
 Frc consts  --      0.7625                 0.7677                 0.6437
 IR Inten    --      3.8888                 3.2856                 1.1202

                     25                     26                     27
                      A                      A                      A
 Frequencies --    544.9763               554.5360               557.6098
 Red. masses --      5.1293                 6.0308                 6.0730
 Frc consts  --      0.8976                 1.0927                 1.1125
 IR Inten    --      0.9847                 1.5704                10.9093

                     28                     29                     30
                      A                      A                      A
 Frequencies --    621.5699               632.1401               654.4044
 Red. masses --      6.4687                 5.2393                 7.7748
 Frc consts  --      1.4725                 1.2335                 1.9617
 IR Inten    --     12.5194                 0.9255                 5.9714

                     31                     32                     33
                      A                      A                      A
 Frequencies --    689.9292               727.7375               751.2574
 Red. masses --      5.5821                 4.1899                 7.8749
 Frc consts  --      1.5655                 1.3074                 2.6186
 IR Inten    --      6.6099                 1.8654                 1.1790

                     34                     35                     36
                      A                      A                      A
 Frequencies --    760.1327               776.7681               816.1193
 Red. masses --      5.3841                 4.5975                 1.7753
 Frc consts  --      1.8329                 1.6344                 0.6967
 IR Inten    --      3.6102                20.2305                28.8510

                     37                     38                     39
                      A                      A                      A
 Frequencies --    844.5353               855.3675               879.4218
 Red. masses --      6.1617                 1.5665                 5.5174
 Frc consts  --      2.5893                 0.6753                 2.5141
 IR Inten    --     11.9574                33.9653                 7.0741

                     40                     41                     42
                      A                      A                      A
 Frequencies --    892.4642               916.3904               971.0693
 Red. masses --      1.7123                 1.3305                 4.8813
 Frc consts  --      0.8035                 0.6583                 2.7120
 IR Inten    --     17.0133                 0.6117                66.2881

                     43                     44                     45
                      A                      A                      A
 Frequencies --    987.1382              1049.7594              1057.5261
 Red. masses --      1.2779                 3.7474                 3.8882
 Frc consts  --      0.7337                 2.4331                 2.5620
 IR Inten    --      0.0318                15.3306                65.3362

                     46                     47                     48
                      A                      A                      A
 Frequencies --   1079.3136              1135.1090              1150.0662
 Red. masses --      6.5755                 1.3474                 1.5807
 Frc consts  --      4.5131                 1.0228                 1.2318
 IR Inten    --     62.7687                17.7111                61.4214

                     49                     50                     51
                      A                      A                      A
 Frequencies --   1183.6787              1185.6873              1187.1039
 Red. masses --      1.8982                 1.2685                 1.2725
 Frc consts  --      1.5670                 1.0507                 1.0565
 IR Inten    --    110.2572                14.9917                 3.4094

                     52                     53                     54
                      A                      A                      A
 Frequencies --   1196.4353              1217.0193              1222.6419
 Red. masses --      3.7665                 1.5385                 1.3609
 Frc consts  --      3.1766                 1.3425                 1.1986
 IR Inten    --      9.2988                49.8147                 2.2793

                     55                     56                     57
                      A                      A                      A
 Frequencies --   1239.8489              1264.5580              1296.7720
 Red. masses --      7.3161                 3.1233                 1.5631
 Frc consts  --      6.6262                 2.9426                 1.5487
 IR Inten    --      3.6069               165.0965                35.3430

                     58                     59                     60
                      A                      A                      A
 Frequencies --   1306.8972              1334.4757              1357.4731
 Red. masses --      3.8243                 4.7282                 7.2781
 Frc consts  --      3.8484                 4.9610                 7.9019
 IR Inten    --    468.2709               201.5439                32.4116

                     61                     62                     63
                      A                      A                      A
 Frequencies --   1368.5178              1408.5793              1457.5173
 Red. masses --      7.6649                 9.7025                 3.1488
 Frc consts  --      8.4578                11.3422                 3.9412
 IR Inten    --     12.7548               100.9804               306.2690

                     64                     65                     66
                      A                      A                      A
 Frequencies --   1466.4835              1495.2906              1507.7945
 Red. masses --      2.9929                 1.2572                 1.4172
 Frc consts  --      3.7922                 1.6561                 1.8983
 IR Inten    --    466.8412                28.9612                 2.2931

                     67                     68                     69
                      A                      A                      A
 Frequencies --   1515.4928              1520.9761              1535.1034
 Red. masses --      1.0601                 1.0478                 1.0934
 Frc consts  --      1.4346                 1.4281                 1.5181
 IR Inten    --     11.2969                 5.6827                67.7408

                     70                     71                     72
                      A                      A                      A
 Frequencies --   1540.7692              1557.8533              1601.3719
 Red. masses --      1.0523                 2.6148                 6.6293
 Frc consts  --      1.4719                 3.7389                10.0162
 IR Inten    --      3.3616               237.4513                60.3215

                     73                     74                     75
                      A                      A                      A
 Frequencies --   1646.9733              1650.5564              1668.5256
 Red. masses --      6.6836                 7.3627                 6.4289
 Frc consts  --     10.6816                11.8181                10.5451
 IR Inten    --     29.7015                17.7871                 6.1599

                     76                     77                     78
                      A                      A                      A
 Frequencies --   2290.9028              3026.6375              3040.8642
 Red. masses --     13.9929                 1.0347                 1.0367
 Frc consts  --     43.2684                 5.5846                 5.6479
 IR Inten    --    669.0496                61.1651                51.5102

                     79                     80                     81
                      A                      A                      A
 Frequencies --   3085.9308              3118.2378              3156.9251
 Red. masses --      1.1067                 1.0990                 1.1053
 Frc consts  --      6.2093                 6.2961                 6.4900
 IR Inten    --     40.9260                34.2643                27.6987

                     82                     83                     84
                      A                      A                      A
 Frequencies --   3161.6261              3218.3177              3225.0339
 Red. masses --      1.0998                 1.0889                 1.0892
 Frc consts  --      6.4774                 6.6447                 6.6746
 IR Inten    --     25.2982                 7.6354                 2.6838

                     85                     86                     87
                      A                      A                      A
 Frequencies --   3235.1880              3236.9271              3238.8562
 Red. masses --      1.0927                 1.0923                 1.0980
 Frc consts  --      6.7385                 6.7432                 6.7865
 IR Inten    --      9.4113                 0.1895                 1.9047

 - Thermochemistry -
 -------------------
 Temperature   298.150 Kelvin.  Pressure   1.00000 Atm.
 Atom     1 has atomic number  6 and mass  12.00000

 Molecular mass:   273.08619 amu.
 Principal axes and moments of inertia in atomic units:
                           1         2         3
     Eigenvalues --  2675.92471********************
           X            0.99983  -0.01421  -0.01141
           Y            0.01390   0.99954  -0.02683
           Z            0.01179   0.02667   0.99957
 This molecule is an asymmetric top.
 Rotational symmetry number  1.
 Warning -- assumption of classical behavior for rotation
           may cause significant error
 Rotational temperatures (Kelvin)      0.03237     0.00726     0.00657
 Rotational constants (GHZ):           0.67444     0.15133     0.13680
 Zero-point vibrational energy     602741.0 (Joules/Mol)
                                  144.05855 (Kcal/Mol)
 Warning -- explicit consideration of  27 degrees of freedom as
           vibrations may cause significant error
 Vibrational temperatures:     14.88    47.88    48.92   102.42   114.45
          (Kelvin)            118.16   175.48   192.67   201.05   233.42
                              272.41   319.40   374.56   381.98   420.46
                              465.86   508.67   555.32   570.13   597.60
                              633.27   683.30   707.95   741.69   784.10
                              797.85   802.28   894.30   909.51   941.54
                              992.65  1047.05  1080.89  1093.66  1117.60
                             1174.21  1215.10  1230.68  1265.29  1284.06
                             1318.48  1397.15  1420.27  1510.37  1521.54
                             1552.89  1633.17  1654.69  1703.05  1705.94
                             1707.98  1721.40  1751.02  1759.11  1783.87
                             1819.42  1865.77  1880.33  1920.01  1953.10
                             1968.99  2026.63  2097.04  2109.94  2151.39
                             2169.38  2180.46  2188.35  2208.67  2216.82
                             2241.40  2304.02  2369.63  2374.78  2400.64
                             3296.10  4354.66  4375.13  4439.97  4486.45
                             4542.11  4548.87  4630.44  4640.10  4654.71
                             4657.22  4659.99

 Zero-point correction=                           0.229572 (Hartree/Particle)
 Thermal correction to Energy=                    0.247452
 Thermal correction to Enthalpy=                  0.248396
 Thermal correction to Gibbs Free Energy=         0.180594
 Sum of electronic and zero-point Energies=           -963.021180
 Sum of electronic and thermal Energies=              -963.003300
 Sum of electronic and thermal Enthalpies=            -963.002356
 Sum of electronic and thermal Free Energies=         -963.070158

                     E (Thermal)             CV                S
                      KCal/Mol        Cal/Mol-Kelvin    Cal/Mol-Kelvin
 Total                  155.279             65.827            142.702
 Electronic               0.000              0.000              0.000
 Translational            0.889              2.981             42.713
 Rotational               0.889              2.981             34.398
 Vibrational            153.501             59.865             65.591
 Vibration     1          0.593              1.987              7.944
 Vibration     2          0.594              1.983              5.624
 Vibration     3          0.594              1.983              5.581
 Vibration     4          0.598              1.968              4.120
 Vibration     5          0.600              1.963              3.902
 Vibration     6          0.600              1.961              3.839
 Vibration     7          0.609              1.931              3.069
 Vibration     8          0.613              1.919              2.889
 Vibration     9          0.615              1.914              2.807
 Vibration    10          0.622              1.889              2.524
 Vibration    11          0.633              1.855              2.234
 Vibration    12          0.648              1.808              1.943
 Vibration    13          0.668              1.745              1.660
 Vibration    14          0.671              1.736              1.625
 Vibration    15          0.688              1.688              1.461
 Vibration    16          0.708              1.628              1.291
 Vibration    17          0.730              1.568              1.150
 Vibration    18          0.755              1.500              1.016
 Vibration    19          0.763              1.478              0.976
 Vibration    20          0.779              1.437              0.908
 Vibration    21          0.800              1.383              0.826
 Vibration    22          0.832              1.306              0.724
 Vibration    23          0.848              1.268              0.678
 Vibration    24          0.871              1.216              0.620
 Vibration    25          0.900              1.151              0.555
 Vibration    26          0.910              1.130              0.535
 Vibration    27          0.913              1.123              0.529

 Optimization completed.
    -- Stationary point found.
 Normal termination of Gaussian 16 at Sat Dec 12 17:22:29 2020.

 ----------------------------------------------------------------------
 # B3LYP/6-311++G(d,p) empiricaldispersion=gd3bj scf=xqc pop=npa geom=c
 heck
 ----------------------------------------------------------------------

 ----------------------------------------
 CID_150762121_JID_10956_Energie_neutraal
 ----------------------------------------
 Structure from the checkpoint file:  "JID_10956.chk"
 Charge =  0 Multiplicity = 1

 SCF Done:  E(RB3LYP) =  -963.509914016     A.U. after   16 cycles
 Normal termination of Gaussian 16 at Sat Dec 12 17:28:27 2020.

 ----------------------------------------------------------------------
 # B3LYP/6-311++G(d,p) empiricaldispersion=gd3bj scf=xqc pop=npa geom=c
 heck
 ----------------------------------------------------------------------

 --------------------------------------
 CID_150762121_JID_10956_Energie_kation
 --------------------------------------
 Structure from the checkpoint file:  "JID_10956.chk"
 Charge =  1 Multiplicity = 2

 SCF Done:  E(UB3LYP) =  -963.226911214     A.U. after   29 cycles
 Normal termination of Gaussian 16 at Sat Dec 12 17:43:44 2020.
 Gaussian 16:  ES64L-G16RevA.03 25-Dec-2016

 ----------------------------------------------------------------------
 # B3LYP/6-311++G(d,p) empiricaldispersion=gd3bj scf=xqc pop=npa geom=c
 heck
 ----------------------------------------------------------------------

 -------------------------------------
 CID_150762121_JID_10956_Energie_anion
 -------------------------------------
 Structure from the checkpoint file:  "JID_10956.chk"
 Charge = -1 Multiplicity = 2

                         Standard orientation:
 ---------------------------------------------------------------------
 Center     Atomic      Atomic             Coordinates (Angstroms)
 Number     Number       Type             X           Y           Z
 ---------------------------------------------------------------------
      1          6           0       -5.381731    0.127475    1.479439
      2          8           0       -4.532253    0.557528    0.429266
      3          6           0       -3.337299   -0.084280    0.276125
      4          6           0       -2.526145    0.368260   -0.790534
      5          6           0       -1.302197   -0.238404   -1.036463
      6          6           0       -0.874500   -1.286447   -0.223228
      7          6           0       -1.650562   -1.737115    0.830136
      8          6           0       -2.888399   -1.133852    1.078494
      9          8           0        0.316674   -1.965023   -0.507907
     10          6           0        1.502216   -1.328850   -0.337784
     11          7           0        1.530300   -0.116109    0.191770
     12          7           0        2.705414    0.498468    0.364395
     13          6           0        3.827674   -0.115991    0.005690
     14          6           0        3.860929   -1.406367   -0.561931
     15          6           0        2.654836   -2.034896   -0.741319
     16          7           0        5.059159    0.540592    0.193655
     17          7           0        5.004505    1.679125    0.695470
     18          7           0        5.116666    2.717812    1.139986
     19          8           0       -2.949514    1.365667   -1.630510
     20          6           0       -2.989024    2.670239   -1.044689
     21          1           0       -6.270613    0.757599    1.421975
     22          1           0       -4.905883    0.255878    2.460629
     23          1           0       -5.671859   -0.923879    1.354478
     24          1           0       -0.693650    0.120162   -1.858027
     25          1           0       -1.296821   -2.554667    1.448547
     26          1           0       -3.494802   -1.496637    1.899353
     27          1           0        4.806379   -1.859640   -0.837770
     28          1           0        2.562993   -3.026268   -1.170420
     29          1           0       -3.713786    2.716484   -0.226417
     30          1           0       -1.996046    2.957757   -0.675934
     31          1           0       -3.292258    3.350005   -1.843763
 ---------------------------------------------------------------------

 SCF Done:  E(UB3LYP) =  -963.525003113     A.U. after   33 cycles
 SCF Done:  E(UB3LYP) =  -963.525003113     a.u. after    1 cycles

 The electronic state is 2-A.
 Alpha  occ. eigenvalues --  -19.07183 -19.04885 -19.04674 -14.35796 -14.26096
 Alpha  occ. eigenvalues --  -14.24125 -14.17963 -14.16992 -10.14740 -10.14178
 Alpha  occ. eigenvalues --  -10.13248 -10.12970 -10.12773 -10.12612 -10.10280
 Alpha  occ. eigenvalues --  -10.08473 -10.07754 -10.07453 -10.04595 -10.03464
 Alpha  occ. eigenvalues --   -1.02144  -0.99171  -0.97181  -0.96104  -0.87871
 Alpha  occ. eigenvalues --   -0.84719  -0.76027  -0.68633  -0.68204  -0.66501
 Alpha  occ. eigenvalues --   -0.65837  -0.62006  -0.59487  -0.55942  -0.54025
 Alpha  occ. eigenvalues --   -0.52170  -0.48722  -0.45359  -0.44725  -0.43857
 Alpha  occ. eigenvalues --   -0.41955  -0.40069  -0.39776  -0.39374  -0.39315
 Alpha  occ. eigenvalues --   -0.37064  -0.36774  -0.36009  -0.35037  -0.34575
 Alpha  occ. eigenvalues --   -0.33832  -0.32949  -0.31268  -0.30467  -0.29345
 Alpha  occ. eigenvalues --   -0.28655  -0.28436  -0.27340  -0.26836  -0.25417
 Alpha  occ. eigenvalues --   -0.24334  -0.22579  -0.21048  -0.19364  -0.18699
 Alpha  occ. eigenvalues --   -0.17909  -0.16111  -0.15367  -0.12638  -0.09999
 Alpha  occ. eigenvalues --   -0.09052   0.03717
 Alpha virt. eigenvalues --    0.04833   0.07106   0.07833   0.08168   0.08387
 Alpha virt. eigenvalues --    0.09164   0.09252   0.09540   0.10141   0.10279
 Alpha virt. eigenvalues --    0.10620   0.11024   0.11433   0.12044   0.12842

  Beta  occ. eigenvalues --  -19.07181 -19.04885 -19.04698 -14.35691 -14.25949
  Beta  occ. eigenvalues --  -14.24186 -14.17626 -14.16357 -10.14720 -10.14183
  Beta  occ. eigenvalues --  -10.13229 -10.12972 -10.12769 -10.12714 -10.10310
  Beta  occ. eigenvalues --  -10.08451 -10.07751 -10.07440 -10.04464 -10.03094
  Beta  occ. eigenvalues --   -1.01956  -0.99165  -0.97203  -0.96097  -0.87535
  Beta  occ. eigenvalues --   -0.84183  -0.75999  -0.68308  -0.67740  -0.66410
  Beta  occ. eigenvalues --   -0.65590  -0.61921  -0.59457  -0.55380  -0.53876
  Beta  occ. eigenvalues --   -0.52129  -0.48578  -0.45311  -0.44416  -0.43736
  Beta  occ. eigenvalues --   -0.41931  -0.39930  -0.39754  -0.39356  -0.38784
  Beta  occ. eigenvalues --   -0.37026  -0.36567  -0.35990  -0.35021  -0.34527
  Beta  occ. eigenvalues --   -0.33549  -0.32881  -0.31100  -0.30013  -0.29145
  Beta  occ. eigenvalues --   -0.28333  -0.28161  -0.27252  -0.26803  -0.25059
  Beta  occ. eigenvalues --   -0.24066  -0.22493  -0.20904  -0.19338  -0.17702
  Beta  occ. eigenvalues --   -0.17477  -0.15249  -0.14113  -0.12539  -0.08803
  Beta  occ. eigenvalues --   -0.08380
  Beta virt. eigenvalues --    0.05217   0.07085   0.07903   0.08256   0.08368
  Beta virt. eigenvalues --    0.09154   0.09343   0.09697   0.09958   0.10179
  Beta virt. eigenvalues --    0.10587   0.10913   0.11238   0.11410   0.11977

 Mulliken charges and spin densities:
               1          2
     1  C    0.112571  -0.416284
     2  O   -0.195978   0.019783
     3  C   -0.289498   0.076002
     4  C   -0.460746   0.011768
     5  C    0.383051   0.079732
     6  C   -0.652132  -0.047339
     7  C    0.341952  -0.129728
     8  C    0.350182  -0.021936
     9  O    0.002423   0.002547
    10  C   -0.284010  -0.060860
    11  N   -0.214369   0.139528
    12  N    0.120807   0.297190
    13  C   -0.892031  -0.065675
    14  C    0.490174   0.159191
    15  C   -0.456962   0.282171
    16  N    0.042495  -0.013328
    17  N    0.165901   0.021543
    18  N   -0.187730   0.088388
    19  O   -0.170773   0.001307
    20  C   -0.273634  -0.031304
    21  H   -0.110835   0.278453
    22  H    0.062937   0.095084
    23  H   -0.006015   0.148845
    24  H    0.186372   0.006836
    25  H    0.153680   0.004861
    26  H    0.083079   0.081637
    27  H    0.160515  -0.009344
    28  H    0.133347  -0.025540
    29  H    0.140542   0.008468
    30  H    0.144576   0.003929
    31  H    0.120108   0.014076
 Sum of Mulliken charges =  -1.00000   1.00000

 Dipole moment (field-independent basis, Debye):
    X=             -6.4833    Y=             -1.4409    Z=             -0.3963  Tot=              6.6533
 Quadrupole moment (field-independent basis, Debye-Ang):
   XX=           -192.7467   YY=           -133.8651   ZZ=           -128.4086
   XY=            -11.5944   XZ=             -8.7979   YZ=             -6.7290

 Summary of Natural Population Analysis:

                                       Natural Population
                Natural  -----------------------------------------------
    Atom  No    Charge         Core      Valence    Rydberg      Total
 -----------------------------------------------------------------------
      C    1   -0.10250      0.99961     2.09320    0.00970     3.10250
      O    2   -0.27590      0.99986     3.26601    0.01003     4.27590
      C    3    0.13055      0.99935     1.85761    0.01248     2.86945
      C    4    0.13989      0.99935     1.84770    0.01306     2.86011
      C    5   -0.11442      0.99946     2.10638    0.00858     3.11442
      C    6    0.15496      0.99934     1.83169    0.01402     2.84504
      C    7   -0.11505      0.99951     2.10661    0.00893     3.11505
      C    8   -0.13665      0.99954     2.12938    0.00773     3.13665
      O    9   -0.27943      0.99983     3.26922    0.01038     4.27943
      C   10    0.22660      0.99945     1.75874    0.01521     2.77340
      N   11   -0.11707      0.99966     2.60149    0.01592     3.61707
      N   12   -0.06771      0.99966     2.55132    0.01673     3.56771
      C   13    0.14163      0.99951     1.84402    0.01483     2.85837
      C   14   -0.08661      0.99952     2.07897    0.00812     3.08661
      C   15   -0.05932      0.99953     2.05117    0.00862     3.05932
      N   16   -0.19486      0.99965     2.68072    0.01448     3.69486
      N   17    0.13771      0.99971     2.34532    0.01726     3.36229
      N   18   -0.02926      0.99981     2.51530    0.01415     3.52926
      O   19   -0.28727      0.99986     3.27731    0.01010     4.28727
      C   20   -0.09877      0.99960     2.09103    0.00815     3.09877
      H   21    0.09281      0.00000     0.40635    0.00084     0.40719
      H   22    0.08397      0.00000     0.41473    0.00130     0.41603
      H   23    0.08409      0.00000     0.41446    0.00145     0.41591
      H   24    0.11400      0.00000     0.38433    0.00167     0.38600
      H   25    0.10512      0.00000     0.39360    0.00127     0.39488
      H   26    0.10226      0.00000     0.39665    0.00108     0.39774
      H   27    0.09788      0.00000     0.40100    0.00112     0.40212
      H   28    0.09564      0.00000     0.40326    0.00111     0.40436
      H   29    0.08713      0.00000     0.41104    0.00183     0.41287
      H   30    0.08523      0.00000     0.41333    0.00144     0.41477
      H   31    0.08534      0.00000     0.41359    0.00107     0.41466
 =======================================================================
   * Total *    0.00000     19.99182    50.75553    0.25265    71.00000

 Normal termination of Gaussian 16 at Sat Dec 12 18:01:27 2020.
