 Gaussian 16, Revision A.03,

 -----------------------------------------------------------
 # opt freq B3LYP/6-31G(d) empiricaldispersion=gd3bj scf=xqc
 -----------------------------------------------------------

 ----------------------------
 CID_13778421_JID_10_neutraal
 ----------------------------
 Symbolic Z-matrix:
 Charge =  0 Multiplicity = 1

 SCF Done:  E(RB3LYP) =  -466.174693165     A.U. after   13 cycles
 SCF Done:  E(RB3LYP) =  -466.177166012     A.U. after   11 cycles
 SCF Done:  E(RB3LYP) =  -466.176618915     A.U. after   11 cycles
 SCF Done:  E(RB3LYP) =  -466.177652858     A.U. after   11 cycles
 SCF Done:  E(RB3LYP) =  -466.177874781     A.U. after   10 cycles
 SCF Done:  E(RB3LYP) =  -466.177963735     A.U. after   10 cycles
 SCF Done:  E(RB3LYP) =  -466.178001558     A.U. after    9 cycles
 SCF Done:  E(RB3LYP) =  -466.178022347     A.U. after   10 cycles
 SCF Done:  E(RB3LYP) =  -466.178039320     A.U. after    9 cycles
 SCF Done:  E(RB3LYP) =  -466.178059083     A.U. after   10 cycles
 SCF Done:  E(RB3LYP) =  -466.178064208     A.U. after   10 cycles
 SCF Done:  E(RB3LYP) =  -466.178084016     A.U. after   10 cycles
 SCF Done:  E(RB3LYP) =  -466.178082701     A.U. after    9 cycles
 SCF Done:  E(RB3LYP) =  -466.178088488     A.U. after   10 cycles
 SCF Done:  E(RB3LYP) =  -466.178089011     A.U. after    7 cycles
 SCF Done:  E(RB3LYP) =  -466.178089015     A.U. after    8 cycles
 Optimization completed.
    -- Stationary point found.

 1\1\GINC-NODE371\FOpt\RB3LYP\6-31G(d)\C8H18O2\VSC10255\08-Dec-2020\0\\
 # opt freq B3LYP/6-31G(d) empiricaldispersion=gd3bj scf=xqc\\CID_13778
 421_JID_10_neutraal\\0,1\C,0.9497016304,-0.1071823015,-0.0646522948\C,
 0.5345834299,0.0982460103,1.3933458229\C,0.9693073077,1.4416893156,1.9
 855270926\C,0.4109911159,2.6817732123,1.2425244938\C,-1.1232902286,2.6
 478427453,1.1799287575\C,0.9511254457,4.0158017666,1.8373792377\C,2.47
 35677439,3.9957592918,2.0354750917\C,0.569861002,5.2213094137,0.968922
 8542\O,0.3141374928,4.1556362978,3.1348163795\O,0.5907845116,1.4260550

 Normal termination of Gaussian 16 at Tue Dec  8 10:19:16 2020.

 --------------------------------------------------------------------
 #N Geom=AllCheck Guess=TCheck SCRF=Check GenChk RB3LYP/6-31G(d) Freq
 --------------------------------------------------------------------

 Structure from the checkpoint file:  "JID_10.chk"
 ----------------------------
 CID_13778421_JID_10_neutraal
 ----------------------------
 Charge =  0 Multiplicity = 1

 SCF Done:  E(RB3LYP) =  -466.178089015     A.U. after    1 cycles

  Exact polarizability: 104.320   0.691  84.814   0.658   0.310  84.570
 Approx polarizability: 129.085   1.593 122.552  -0.075  -4.146 122.632

                      1                      2                      3
                      A                      A                      A
 Frequencies --     39.8444                96.7529               113.2807
 Red. masses --      3.6509                 2.6124                 2.2566
 Frc consts  --      0.0034                 0.0144                 0.0171
 IR Inten    --      1.5795                 0.5219                 0.5825

                      4                      5                      6
                      A                      A                      A
 Frequencies --    169.4474               202.4905               208.9245
 Red. masses --      1.2517                 1.5483                 2.3739
 Frc consts  --      0.0212                 0.0374                 0.0611
 IR Inten    --      0.2974                 0.1762                 1.9850

                      7                      8                      9
                      A                      A                      A
 Frequencies --    228.6531               253.9176               280.7636
 Red. masses --      1.1343                 1.4742                 1.8794
 Frc consts  --      0.0349                 0.0560                 0.0873
 IR Inten    --      0.3356                 1.8177                 1.1848

                     10                     11                     12
                      A                      A                      A
 Frequencies --    305.6435               311.3766               336.2376
 Red. masses --      1.6391                 1.9383                 1.5081
 Frc consts  --      0.0902                 0.1107                 0.1005
 IR Inten    --     25.6939                 1.3544                16.4975

                     13                     14                     15
                      A                      A                      A
 Frequencies --    347.7121               397.7502               405.9670
 Red. masses --      2.5273                 2.2037                 2.5738
 Frc consts  --      0.1800                 0.2054                 0.2499
 IR Inten    --     14.4759                 2.7278                 0.2737

                     16                     17                     18
                      A                      A                      A
 Frequencies --    428.8650               462.0817               499.3050
 Red. masses --      2.8316                 3.4371                 3.2473
 Frc consts  --      0.3069                 0.4324                 0.4770
 IR Inten    --      2.8633                12.4244                 4.6305

                     19                     20                     21
                      A                      A                      A
 Frequencies --    543.1947               592.6305               662.2418
 Red. masses --      2.2428                 1.1530                 2.4958
 Frc consts  --      0.3899                 0.2386                 0.6449
 IR Inten    --     16.7041               112.5898                 2.3651

                     22                     23                     24
                      A                      A                      A
 Frequencies --    742.9018               790.3294               846.7983
 Red. masses --      2.6070                 1.9142                 1.6088
 Frc consts  --      0.8477                 0.7044                 0.6797
 IR Inten    --      4.3877                 3.6834                 3.0364

                     25                     26                     27
                      A                      A                      A
 Frequencies --    896.8240               938.2123               943.6627
 Red. masses --      2.0581                 1.6637                 1.7183
 Frc consts  --      0.9753                 0.8628                 0.9016
 IR Inten    --     13.4605                 7.5692                11.7791

                     28                     29                     30
                      A                      A                      A
 Frequencies --    956.7715               998.6258              1025.7656
 Red. masses --      1.9535                 1.7058                 1.4122
 Frc consts  --      1.0536                 1.0023                 0.8754
 IR Inten    --      3.6473                18.6111                10.9325

                     31                     32                     33
                      A                      A                      A
 Frequencies --   1046.2118              1061.1805              1086.4325
 Red. masses --      1.7716                 1.9574                 1.8083
 Frc consts  --      1.1425                 1.2987                 1.2576
 IR Inten    --     10.4436                 5.7138                 7.8113

                     34                     35                     36
                      A                      A                      A
 Frequencies --   1105.8563              1159.2396              1168.0735
 Red. masses --      1.8547                 2.1519                 1.8340
 Frc consts  --      1.3364                 1.7038                 1.4743
 IR Inten    --     26.9048                 5.8125                37.0324

                     37                     38                     39
                      A                      A                      A
 Frequencies --   1183.6571              1212.4833              1238.4245
 Red. masses --      1.8394                 2.4170                 2.6880
 Frc consts  --      1.5183                 2.0935                 2.4289
 IR Inten    --      4.9642                89.0112                16.3672

                     40                     41                     42
                      A                      A                      A
 Frequencies --   1289.8395              1337.8558              1340.5652
 Red. masses --      1.2075                 1.3670                 1.4348
 Frc consts  --      1.1836                 1.4415                 1.5192
 IR Inten    --      4.3332                 2.9238                 3.2239

                     43                     44                     45
                      A                      A                      A
 Frequencies --   1357.1149              1382.4663              1399.7074
 Red. masses --      1.3539                 1.3990                 1.4160
 Frc consts  --      1.4691                 1.5753                 1.6345
 IR Inten    --     13.1586                41.4112                 2.3847

                     46                     47                     48
                      A                      A                      A
 Frequencies --   1409.3124              1429.0527              1441.9001
 Red. masses --      1.3133                 1.2714                 1.2384
 Frc consts  --      1.5369                 1.5298                 1.5169
 IR Inten    --     35.3761                 7.7125                10.3214

                     49                     50                     51
                      A                      A                      A
 Frequencies --   1442.1969              1449.7061              1494.6643
 Red. masses --      1.2743                 1.2355                 1.3353
 Frc consts  --      1.5616                 1.5298                 1.7575
 IR Inten    --      8.3712                 5.4284                53.5272

                     52                     53                     54
                      A                      A                      A
 Frequencies --   1512.3310              1519.2144              1522.9697
 Red. masses --      1.0649                 1.0649                 1.0608
 Frc consts  --      1.4350                 1.4482                 1.4496
 IR Inten    --      3.7091                 8.7296                 0.3564

                     55                     56                     57
                      A                      A                      A
 Frequencies --   1529.7344              1531.4874              1533.8925
 Red. masses --      1.0595                 1.0703                 1.0450
 Frc consts  --      1.4608                 1.4790                 1.4487
 IR Inten    --     14.3546                 1.6427                 3.4065

                     58                     59                     60
                      A                      A                      A
 Frequencies --   1537.8135              1545.3446              1554.2714
 Red. masses --      1.0555                 1.0632                 1.0604
 Frc consts  --      1.4706                 1.4959                 1.5093
 IR Inten    --      5.1307                16.7121                 4.5111

                     61                     62                     63
                      A                      A                      A
 Frequencies --   2967.5485              3040.4994              3044.1734
 Red. masses --      1.0818                 1.0601                 1.0419
 Frc consts  --      5.6130                 5.7740                 5.6887
 IR Inten    --     60.0551                 0.4664                10.7170

                     64                     65                     66
                      A                      A                      A
 Frequencies --   3045.3490              3052.8956              3059.5111
 Red. masses --      1.0541                 1.0458                 1.0622
 Frc consts  --      5.7600                 5.7429                 5.8582
 IR Inten    --     37.8813                46.0048                23.9719

                     67                     68                     69
                      A                      A                      A
 Frequencies --   3078.1823              3089.4690              3105.7314
 Red. masses --      1.0403                 1.0964                 1.0981
 Frc consts  --      5.8079                 6.1657                 6.2407
 IR Inten    --     12.3891                 3.3926                 0.9451

                     70                     71                     72
                      A                      A                      A
 Frequencies --   3111.2946              3113.9661              3116.1913
 Red. masses --      1.1016                 1.0980                 1.1011
 Frc consts  --      6.2828                 6.2733                 6.2996
 IR Inten    --     66.0582                66.1949                39.0778

                     73                     74                     75
                      A                      A                      A
 Frequencies --   3136.5496              3148.8644              3154.2783
 Red. masses --      1.1014                 1.1008                 1.1002
 Frc consts  --      6.3843                 6.4309                 6.4495
 IR Inten    --     32.7883                15.7596                21.4296

                     76                     77                     78
                      A                      A                      A
 Frequencies --   3161.2575              3638.0901              3735.3246
 Red. masses --      1.1000                 1.0662                 1.0661
 Frc consts  --      6.4767                 8.3141                 8.7637
 IR Inten    --     19.1869               192.5106                 8.8603

 - Thermochemistry -
 -------------------
 Temperature   298.150 Kelvin.  Pressure   1.00000 Atm.
 Atom     1 has atomic number  6 and mass  12.00000

 Molecular mass:   146.13068 amu.
 Principal axes and moments of inertia in atomic units:
                           1         2         3
     Eigenvalues --   951.228492097.719992211.27211
           X            0.99995   0.00789   0.00541
           Y           -0.00856   0.99056   0.13678
           Z           -0.00428  -0.13682   0.99059
 This molecule is an asymmetric top.
 Rotational symmetry number  1.
 Warning -- assumption of classical behavior for rotation
           may cause significant error
 Rotational temperatures (Kelvin)      0.09105     0.04129     0.03917
 Rotational constants (GHZ):           1.89727     0.86033     0.81616
 Zero-point vibrational energy     673791.5 (Joules/Mol)
                                  161.04004 (Kcal/Mol)
 Warning -- explicit consideration of  20 degrees of freedom as
           vibrations may cause significant error
 Vibrational temperatures:     57.33   139.21   162.99   243.80   291.34
          (Kelvin)            300.60   328.98   365.33   403.96   439.75
                              448.00   483.77   500.28   572.27   584.10
                              617.04   664.83   718.39   781.54   852.66
                              952.82  1068.87  1137.11  1218.35  1290.33
                             1349.88  1357.72  1376.58  1436.80  1475.85
                             1505.27  1526.80  1563.13  1591.08  1667.89
                             1680.60  1703.02  1744.49  1781.82  1855.79
                             1924.88  1928.77  1952.59  1989.06  2013.87
                             2027.69  2056.09  2074.57  2075.00  2085.80
                             2150.49  2175.91  2185.81  2191.21  2200.95
                             2203.47  2206.93  2212.57  2223.41  2236.25
                             4269.64  4374.60  4379.89  4381.58  4392.44
                             4401.95  4428.82  4445.06  4468.45  4476.46
                             4480.30  4483.50  4512.80  4530.51  4538.30
                             4548.34  5234.40  5374.30

 Zero-point correction=                           0.256634 (Hartree/Particle)
 Thermal correction to Energy=                    0.269186
 Thermal correction to Enthalpy=                  0.270130
 Thermal correction to Gibbs Free Energy=         0.219157
 Sum of electronic and zero-point Energies=           -465.921455
 Sum of electronic and thermal Energies=              -465.908903
 Sum of electronic and thermal Enthalpies=            -465.907959
 Sum of electronic and thermal Free Energies=         -465.958932

                     E (Thermal)             CV                S
                      KCal/Mol        Cal/Mol-Kelvin    Cal/Mol-Kelvin
 Total                  168.917             47.884            107.282
 Electronic               0.000              0.000              0.000
 Translational            0.889              2.981             40.849
 Rotational               0.889              2.981             29.868
 Vibrational            167.139             41.922             36.564
 Vibration     1          0.594              1.981              5.267
 Vibration     2          0.603              1.951              3.519
 Vibration     3          0.607              1.938              3.212
 Vibration     4          0.625              1.880              2.442
 Vibration     5          0.639              1.836              2.110
 Vibration     6          0.642              1.827              2.053
 Vibration     7          0.651              1.797              1.889
 Vibration     8          0.665              1.756              1.703
 Vibration     9          0.680              1.709              1.529
 Vibration    10          0.696              1.663              1.386
 Vibration    11          0.700              1.652              1.355
 Vibration    12          0.717              1.603              1.230
 Vibration    13          0.725              1.580              1.177
 Vibration    14          0.764              1.475              0.971
 Vibration    15          0.771              1.457              0.941
 Vibration    16          0.790              1.407              0.862
 Vibration    17          0.820              1.334              0.760
 Vibration    18          0.855              1.252              0.660
 Vibration    19          0.898              1.155              0.558
 Vibration    20          0.950              1.047              0.463

                           ! Non-Optimized Parameters !

 1\1\GINC-NODE371\Freq\RB3LYP\6-31G(d)\C8H18O2\VSC10255\08-Dec-2020\0\\
 #N Geom=AllCheck Guess=TCheck SCRF=Check GenChk RB3LYP/6-31G(d) Freq\\
 CID_13778421_JID_10_neutraal\\0,1\C,0.9497016304,-0.1071823015,-0.0646
 522948\C,0.5345834299,0.0982460103,1.3933458229\C,0.9693073077,1.44168
 93156,1.9855270926\C,0.4109911159,2.6817732123,1.2425244938\C,-1.12329
 02286,2.6478427453,1.1799287575\C,0.9511254457,4.0158017666,1.83737923
 77\C,2.4735677439,3.9957592918,2.0354750917\C,0.569861002,5.2213094137
 ,0.9689228542\O,0.3141374928,4.1556362978,3.1348163795\O,0.5907845116,

 Normal termination of Gaussian 16 at Tue Dec  8 10:26:06 2020.

 ----------------------------------------------------------------------
 # B3LYP/6-311++G(d,p) empiricaldispersion=gd3bj scf=xqc pop=npa geom=c
 heck
 ----------------------------------------------------------------------

 ------------------------------------
 CID_13778421_JID_10_Energie_neutraal
 ------------------------------------
 Structure from the checkpoint file:  "JID_10.chk"
 Charge =  0 Multiplicity = 1

 SCF Done:  E(RB3LYP) =  -466.332196720     A.U. after   14 cycles
 Normal termination of Gaussian 16 at Tue Dec  8 10:28:17 2020.

 ----------------------------------------------------------------------
 # B3LYP/6-311++G(d,p) empiricaldispersion=gd3bj scf=xqc pop=npa geom=c
 heck
 ----------------------------------------------------------------------

 ----------------------------------
 CID_13778421_JID_10_Energie_kation
 ----------------------------------
 Structure from the checkpoint file:  "JID_10.chk"
 Charge =  1 Multiplicity = 2

 SCF Done:  E(UB3LYP) =  -465.991891012     A.U. after   23 cycles
 Normal termination of Gaussian 16 at Tue Dec  8 10:33:31 2020.
 Gaussian 16:  ES64L-G16RevA.03 25-Dec-2016

 ---------------------------------
 CID_13778421_JID_10_Energie_anion
 ---------------------------------
 Structure from the checkpoint file:  "JID_10.chk"
 Charge = -1 Multiplicity = 2

                         Standard orientation:
 ---------------------------------------------------------------------
 Center     Atomic      Atomic             Coordinates (Angstroms)
 Number     Number       Type             X           Y           Z
 ---------------------------------------------------------------------
      1          6           0       -2.978227   -0.897887    0.838894
      2          6           0       -2.488375    0.243256   -0.054482
      3          6           0       -1.022239    0.626231    0.165244
      4          6           0       -0.013891   -0.524038   -0.083138
      5          6           0       -0.163058   -1.097365   -1.500224
      6          6           0        1.450702   -0.100487    0.234355
      7          6           0        1.576037    0.604641    1.592501
      8          6           0        2.409887   -1.296836    0.195116
      9          8           0        1.826892    0.833381   -0.812078
     10          8           0       -0.763883    1.751887   -0.666960
     11          1           0       -2.493115   -1.849012    0.590444
     12          1           0       -4.058294   -1.043778    0.731012
     13          1           0       -2.776296   -0.689540    1.897225
     14          1           0       -2.645205    0.001464   -1.111334
     15          1           0       -3.077418    1.147771    0.139360
     16          1           0       -0.933899    0.919058    1.225301
     17          1           0       -0.248859   -1.313650    0.643214
     18          1           0       -0.040745   -0.309232   -2.246632
     19          1           0        0.568228   -1.882491   -1.707295
     20          1           0       -1.155651   -1.537401   -1.631608
     21          1           0        1.177211   -0.016870    2.401561
     22          1           0        2.632125    0.801425    1.817269
     23          1           0        1.045751    1.559733    1.593910
     24          1           0        2.428381   -1.762517   -0.792089
     25          1           0        3.430297   -0.970221    0.431574
     26          1           0        2.123833   -2.052888    0.934769
     27          1           0        2.696952    1.197653   -0.583753
     28          1           0        0.197605    1.773258   -0.830218
 ---------------------------------------------------------------------

 SCF Done:  E(UB3LYP) =  -466.320222264     A.U. after   25 cycles

 The electronic state is 2-A.
 Alpha  occ. eigenvalues --  -19.01965 -18.99526 -10.12613 -10.10657 -10.06838
 Alpha  occ. eigenvalues --  -10.06029 -10.05975 -10.05045 -10.04902 -10.04808
 Alpha  occ. eigenvalues --   -0.92427  -0.89871  -0.70645  -0.67093  -0.63122
 Alpha  occ. eigenvalues --   -0.58769  -0.56497  -0.53268  -0.48288  -0.44428
 Alpha  occ. eigenvalues --   -0.40006  -0.38221  -0.37295  -0.34927  -0.33152
 Alpha  occ. eigenvalues --   -0.32831  -0.31460  -0.30534  -0.28818  -0.27733
 Alpha  occ. eigenvalues --   -0.27363  -0.26662  -0.26163  -0.25211  -0.24654
 Alpha  occ. eigenvalues --   -0.24296  -0.23110  -0.21722  -0.19860  -0.17025
 Alpha  occ. eigenvalues --   -0.15539   0.04604
 Alpha virt. eigenvalues --    0.06807   0.08321   0.08478   0.09621   0.09849
 Alpha virt. eigenvalues --    0.10318   0.10992   0.11510   0.12113   0.12992
 Alpha virt. eigenvalues --    0.13156   0.13889   0.14349   0.15415   0.15713

  Beta  occ. eigenvalues --  -19.01914 -18.99519 -10.12609 -10.10651 -10.06824
  Beta  occ. eigenvalues --  -10.06002 -10.05967 -10.04998 -10.04887 -10.04757
  Beta  occ. eigenvalues --   -0.92332  -0.89840  -0.70609  -0.67059  -0.63079
  Beta  occ. eigenvalues --   -0.58692  -0.56444  -0.53203  -0.48210  -0.44377
  Beta  occ. eigenvalues --   -0.39942  -0.38190  -0.37248  -0.34885  -0.33117
  Beta  occ. eigenvalues --   -0.32792  -0.31406  -0.30492  -0.28778  -0.27689
  Beta  occ. eigenvalues --   -0.27329  -0.26631  -0.26124  -0.25170  -0.24613
  Beta  occ. eigenvalues --   -0.24250  -0.23085  -0.21690  -0.19817  -0.16981
  Beta  occ. eigenvalues --   -0.15523
  Beta virt. eigenvalues --    0.06942   0.07990   0.08747   0.09290   0.10084
  Beta virt. eigenvalues --    0.10415   0.10887   0.11476   0.11885   0.12641
  Beta virt. eigenvalues --    0.13265   0.13462   0.14233   0.14620   0.15729

 Mulliken charges and spin densities:
               1          2
     1  C    0.184636  -0.810825
     2  C    0.039833   0.001185
     3  C   -0.877794   0.258451
     4  C    1.290746  -0.784160
     5  C    0.140229  -0.824446
     6  C   -2.276386   2.085596
     7  C    0.907783  -1.492490
     8  C    1.631487  -2.110588
     9  O   -0.206451  -0.006839
    10  O   -0.218074  -0.004922
    11  H   -0.180117   0.331989
    12  H   -0.210092   0.348287
    13  H   -0.100356   0.234772
    14  H    0.151808  -0.000110
    15  H    0.042182   0.117901
    16  H    0.236334  -0.070579
    17  H    0.233297  -0.034931
    18  H    0.104473   0.099537
    19  H    0.010691   0.106822
    20  H    0.059093   0.063148
    21  H   -0.227130   0.394639
    22  H   -0.664500   0.819583
    23  H   -0.112276   0.298197
    24  H   -0.017578   0.165224
    25  H   -0.534068   0.682465
    26  H   -0.468889   0.628334
    27  H   -0.206915   0.486213
    28  H    0.268032   0.017547
 Sum of Mulliken charges =  -1.00000   1.00000

 Dipole moment (field-independent basis, Debye):
    X=             -4.8113    Y=              0.2509    Z=             -2.4718  Tot=              5.4150
 Quadrupole moment (field-independent basis, Debye-Ang):
   XX=           -128.0331   YY=           -102.2280   ZZ=            -99.0933
   XY=             -2.2939   XZ=             -3.3596   YZ=              4.9884

 Summary of Natural Population Analysis:

                                       Natural Population
                Natural  -----------------------------------------------
    Atom  No    Charge         Core      Valence    Rydberg      Total
 -----------------------------------------------------------------------
      C    1   -0.28885      0.99966     2.28434    0.00484     3.28885
      C    2   -0.19571      0.99962     2.18598    0.01011     3.19571
      C    3    0.06801      0.99952     1.91736    0.01511     2.93199
      C    4   -0.12844      0.99953     2.11603    0.01288     3.12844
      C    5   -0.29165      0.99964     2.28425    0.00776     3.29165
      C    6    0.13045      0.99953     1.85327    0.01674     2.86955
      C    7   -0.30130      0.99961     2.29425    0.00744     3.30130
      C    8   -0.29587      0.99961     2.28878    0.00749     3.29587
      O    9   -0.39242      0.99988     3.38520    0.00734     4.39242
      O   10   -0.38883      0.99989     3.38298    0.00596     4.38883
      H   11    0.09795      0.00000     0.40098    0.00107     0.40205
      H   12    0.09711      0.00000     0.40213    0.00076     0.40289
      H   13    0.09810      0.00000     0.40076    0.00114     0.40190
      H   14    0.09635      0.00000     0.40246    0.00119     0.40365
      H   15    0.09845      0.00000     0.40046    0.00108     0.40155
      H   16    0.07650      0.00000     0.42130    0.00220     0.42350
      H   17    0.10684      0.00000     0.39122    0.00194     0.39316
      H   18    0.10657      0.00000     0.39218    0.00125     0.39343
      H   19    0.10053      0.00000     0.39876    0.00071     0.39947
      H   20    0.09723      0.00000     0.40202    0.00075     0.40277
      H   21    0.10635      0.00000     0.39203    0.00162     0.39365
      H   22    0.10431      0.00000     0.39345    0.00224     0.39569
      H   23    0.10337      0.00000     0.39520    0.00143     0.39663
      H   24    0.10224      0.00000     0.39655    0.00121     0.39776
      H   25    0.10370      0.00000     0.39388    0.00242     0.39630
      H   26    0.10447      0.00000     0.39368    0.00185     0.39553
      H   27    0.23964      0.00000     0.25334    0.00702     0.26036
      H   28    0.24487      0.00000     0.25186    0.00327     0.25513
 =======================================================================
   * Total *    0.00000      9.99649    30.87469    0.12882    41.00000

 Normal termination of Gaussian 16 at Tue Dec  8 10:42:15 2020.
