 Gaussian 16, Revision A.03,

 -----------------------------------------------------------
 # opt freq B3LYP/6-31G(d) empiricaldispersion=gd3bj scf=xqc
 -----------------------------------------------------------

 -------------------------------
 CID_103774292_JID_8667_neutraal
 -------------------------------
 Symbolic Z-matrix:
 Charge =  0 Multiplicity = 1

 SCF Done:  E(RB3LYP) =  -789.526743539     A.U. after   15 cycles
 SCF Done:  E(RB3LYP) =  -789.531529529     A.U. after   12 cycles
 SCF Done:  E(RB3LYP) =  -789.531408658     A.U. after   12 cycles
 SCF Done:  E(RB3LYP) =  -789.531925573     A.U. after   11 cycles
 SCF Done:  E(RB3LYP) =  -789.532146474     A.U. after   11 cycles
 SCF Done:  E(RB3LYP) =  -789.532139990     A.U. after   12 cycles
 SCF Done:  E(RB3LYP) =  -789.532212456     A.U. after   11 cycles
 SCF Done:  E(RB3LYP) =  -789.532249979     A.U. after   10 cycles
 SCF Done:  E(RB3LYP) =  -789.532279407     A.U. after   10 cycles
 SCF Done:  E(RB3LYP) =  -789.532287633     A.U. after    9 cycles
 SCF Done:  E(RB3LYP) =  -789.532296272     A.U. after    7 cycles
 SCF Done:  E(RB3LYP) =  -789.532296508     A.U. after    8 cycles
 SCF Done:  E(RB3LYP) =  -789.532296563     A.U. after    7 cycles
 SCF Done:  E(RB3LYP) =  -789.532296592     A.U. after    6 cycles
 Optimization completed.
    -- Stationary point found.
 Normal termination of Gaussian 16 at Fri Dec 11 21:33:52 2020.

 --------------------------------------------------------------------
 #N Geom=AllCheck Guess=TCheck SCRF=Check GenChk RB3LYP/6-31G(d) Freq
 --------------------------------------------------------------------

 Structure from the checkpoint file:  "JID_8667.chk"
 -------------------------------
 CID_103774292_JID_8667_neutraal
 -------------------------------
 Charge =  0 Multiplicity = 1

 SCF Done:  E(RB3LYP) =  -789.532296592     A.U. after    1 cycles

  Exact polarizability: 176.932 -18.881 147.016   1.710  -0.322 159.080
 Approx polarizability: 235.969 -35.925 231.038   3.781  -4.355 253.677

                      1                      2                      3
                      A                      A                      A
 Frequencies --     32.6044                53.2147                55.7470
 Red. masses --      3.6565                 3.6359                 3.8891
 Frc consts  --      0.0023                 0.0061                 0.0071
 IR Inten    --      0.8892                 0.2965                 0.5360

                      4                      5                      6
                      A                      A                      A
 Frequencies --     60.8317                80.0901                91.4088
 Red. masses --      4.5651                 2.0607                 1.4059
 Frc consts  --      0.0100                 0.0078                 0.0069
 IR Inten    --      0.6493                 0.3773                 0.0866

                      7                      8                      9
                      A                      A                      A
 Frequencies --    103.3404               104.2101               132.3956
 Red. masses --      1.1784                 1.8322                 3.0073
 Frc consts  --      0.0074                 0.0117                 0.0311
 IR Inten    --      0.1987                 1.4959                 0.2864

                     10                     11                     12
                      A                      A                      A
 Frequencies --    149.5638               173.2853               218.5135
 Red. masses --      4.1306                 4.2217                 2.4072
 Frc consts  --      0.0544                 0.0747                 0.0677
 IR Inten    --      2.6503                 2.2963                10.7583

                     13                     14                     15
                      A                      A                      A
 Frequencies --    234.3735               237.9943               279.2440
 Red. masses --      2.9219                 3.7873                 3.3147
 Frc consts  --      0.0946                 0.1264                 0.1523
 IR Inten    --      0.2973                 7.4173                 1.5157

                     16                     17                     18
                      A                      A                      A
 Frequencies --    311.7648               327.7951               332.0482
 Red. masses --      1.5294                 3.9812                 1.9426
 Frc consts  --      0.0876                 0.2520                 0.1262
 IR Inten    --     84.0963                 1.1423                15.8389

                     19                     20                     21
                      A                      A                      A
 Frequencies --    363.0970               408.3316               430.4642
 Red. masses --      4.0285                 4.3333                 2.7608
 Frc consts  --      0.3129                 0.4257                 0.3014
 IR Inten    --      2.1790                 3.7579                 0.9452

                     22                     23                     24
                      A                      A                      A
 Frequencies --    452.4982               470.7215               522.6240
 Red. masses --      3.7599                 4.7916                 3.2820
 Frc consts  --      0.4536                 0.6255                 0.5282
 IR Inten    --      5.4430                 8.4252                 0.2891

                     25                     26                     27
                      A                      A                      A
 Frequencies --    534.0206               572.4917               603.6691
 Red. masses --      5.1514                 3.1073                 4.2237
 Frc consts  --      0.8655                 0.6000                 0.9069
 IR Inten    --      0.9143                11.7661                 4.7365

                     28                     29                     30
                      A                      A                      A
 Frequencies --    644.6209               673.0633               702.2612
 Red. masses --      2.9087                 2.8861                 1.3668
 Frc consts  --      0.7121                 0.7703                 0.3971
 IR Inten    --     11.1233                11.1203                40.4722

                     31                     32                     33
                      A                      A                      A
 Frequencies --    720.0905               763.2025               778.6001
 Red. masses --      3.1547                 4.1827                 4.1677
 Frc consts  --      0.9638                 1.4355                 1.4886
 IR Inten    --     22.4341                26.9261                11.6261

                     34                     35                     36
                      A                      A                      A
 Frequencies --    787.7848               796.8364               808.7210
 Red. masses --      1.2784                 1.8379                 3.0785
 Frc consts  --      0.4675                 0.6876                 1.1863
 IR Inten    --     27.3279                 2.2784                12.0018

                     37                     38                     39
                      A                      A                      A
 Frequencies --    855.1388               873.9932               901.2020
 Red. masses --      2.7581                 1.7530                 2.6073
 Frc consts  --      1.1883                 0.7890                 1.2476
 IR Inten    --      7.4300                 5.5276                 0.9567

                     40                     41                     42
                      A                      A                      A
 Frequencies --    902.7004               940.7859               964.1261
 Red. masses --      1.3062                 2.7040                 2.0950
 Frc consts  --      0.6271                 1.4100                 1.1474
 IR Inten    --      0.0069                 0.6284                 3.5496

                     43                     44                     45
                      A                      A                      A
 Frequencies --    969.1938               998.1913              1024.2473
 Red. masses --      1.2672                 2.1458                 1.5456
 Frc consts  --      0.7013                 1.2597                 0.9553
 IR Inten    --      0.5204                 1.6788                 2.5541

                     46                     47                     48
                      A                      A                      A
 Frequencies --   1028.7920              1042.3276              1057.9068
 Red. masses --      1.5206                 2.1915                 2.2566
 Frc consts  --      0.9483                 1.4028                 1.4880
 IR Inten    --      8.2831                14.3903                 1.5202

                     49                     50                     51
                      A                      A                      A
 Frequencies --   1072.2874              1077.5496              1080.6418
 Red. masses --      1.7437                 1.5387                 1.5655
 Frc consts  --      1.1813                 1.0526                 1.0771
 IR Inten    --      0.2060                 1.9819                 4.9402

                     52                     53                     54
                      A                      A                      A
 Frequencies --   1082.4494              1107.0566              1142.9202
 Red. masses --      3.2817                 2.5984                 2.3468
 Frc consts  --      2.2655                 1.8763                 1.8062
 IR Inten    --     44.1052                 9.8755                 7.8482

                     55                     56                     57
                      A                      A                      A
 Frequencies --   1150.9223              1181.7209              1201.1225
 Red. masses --      1.9081                 1.6968                 1.2080
 Frc consts  --      1.4892                 1.3961                 1.0268
 IR Inten    --      6.0143                 0.2527                 0.7402

                     58                     59                     60
                      A                      A                      A
 Frequencies --   1205.6963              1230.4423              1250.3899
 Red. masses --      1.7580                 1.3059                 1.5427
 Frc consts  --      1.5057                 1.1649                 1.4211
 IR Inten    --     23.2278                17.8751                 5.7186

                     61                     62                     63
                      A                      A                      A
 Frequencies --   1269.3087              1279.0468              1285.1831
 Red. masses --      1.3341                 1.1574                 3.6209
 Frc consts  --      1.2664                 1.1156                 3.5237
 IR Inten    --      4.1678                 6.3658                 1.4907

                     64                     65                     66
                      A                      A                      A
 Frequencies --   1288.5143              1306.7950              1314.5894
 Red. masses --      1.6497                 1.3186                 1.3053
 Frc consts  --      1.6138                 1.3267                 1.3290
 IR Inten    --      1.4036                 5.8333                22.3618

                     67                     68                     69
                      A                      A                      A
 Frequencies --   1331.3560              1344.3801              1349.6964
 Red. masses --      1.2535                 6.8493                 1.4377
 Frc consts  --      1.3091                 7.2935                 1.5431
 IR Inten    --      4.2509                 0.2074                 1.0118

                     70                     71                     72
                      A                      A                      A
 Frequencies --   1366.4529              1382.5166              1406.1687
 Red. masses --      1.3780                 1.9710                 1.7597
 Frc consts  --      1.5159                 2.2196                 2.0501
 IR Inten    --      0.0387               118.8684                54.8469

                     73                     74                     75
                      A                      A                      A
 Frequencies --   1411.9983              1443.0884              1447.4076
 Red. masses --      1.4659                 1.2361                 1.2459
 Frc consts  --      1.7219                 1.5167                 1.5379
 IR Inten    --     40.0534                 4.5998                 1.7086

                     76                     77                     78
                      A                      A                      A
 Frequencies --   1475.9844              1490.2015              1507.1847
 Red. masses --      1.4585                 2.3166                 1.7458
 Frc consts  --      1.8721                 3.0310                 2.3366
 IR Inten    --      5.0304                30.9271                 3.1500

                     79                     80                     81
                      A                      A                      A
 Frequencies --   1511.5237              1514.7565              1518.0114
 Red. masses --      1.0532                 1.2931                 1.2474
 Frc consts  --      1.4178                 1.7481                 1.6935
 IR Inten    --      9.9132                72.2545                33.6474

                     82                     83                     84
                      A                      A                      A
 Frequencies --   1520.9729              1529.1942              1532.4445
 Red. masses --      1.1005                 1.1363                 1.2299
 Frc consts  --      1.5000                 1.5656                 1.7017
 IR Inten    --      6.5884                11.4275                15.0785

                     85                     86                     87
                      A                      A                      A
 Frequencies --   1536.7265              1546.1799              1556.6203
 Red. masses --      1.2444                 1.0926                 1.1005
 Frc consts  --      1.7314                 1.5390                 1.5711
 IR Inten    --      5.4625                 7.5503                 3.7050

                     88                     89                     90
                      A                      A                      A
 Frequencies --   1640.9249              1657.7668              1761.4527
 Red. masses --      6.8918                 5.4203                 8.5551
 Frc consts  --     10.9335                 8.7765                15.6392
 IR Inten    --      4.8297                 7.3081               416.4327

                     91                     92                     93
                      A                      A                      A
 Frequencies --   3005.4401              3035.4210              3046.9666
 Red. masses --      1.0553                 1.1064                 1.0397
 Frc consts  --      5.6162                 6.0063                 5.6869
 IR Inten    --     51.3545                38.0376                25.1971

                     94                     95                     96
                      A                      A                      A
 Frequencies --   3054.3117              3061.3561              3062.2929
 Red. masses --      1.0372                 1.0623                 1.0729
 Frc consts  --      5.7006                 5.8660                 5.9282
 IR Inten    --     19.4279                12.8041                20.3896

                     97                     98                     99
                      A                      A                      A
 Frequencies --   3070.3928              3077.7210              3083.0657
 Red. masses --      1.0763                 1.0675                 1.0831
 Frc consts  --      5.9781                 5.9578                 6.0657
 IR Inten    --     33.0413                33.4191                47.7967

                    100                    101                    102
                      A                      A                      A
 Frequencies --   3094.9169              3103.7622              3112.0722
 Red. masses --      1.1033                 1.0963                 1.1006
 Frc consts  --      6.2262                 6.2222                 6.2800
 IR Inten    --     18.6177                18.7051                 9.5547

                    103                    104                    105
                      A                      A                      A
 Frequencies --   3113.2743              3131.7676              3133.3515
 Red. masses --      1.1015                 1.1017                 1.1028
 Frc consts  --      6.2904                 6.3662                 6.3790
 IR Inten    --     29.9882                39.2839                18.3596

                    106                    107                    108
                      A                      A                      A
 Frequencies --   3135.6980              3176.3918              3184.8212
 Red. masses --      1.1033                 1.0856                 1.0905
 Frc consts  --      6.3919                 6.4533                 6.5170
 IR Inten    --     12.9626                 0.1797                27.7195

                    109                    110                    111
                      A                      A                      A
 Frequencies --   3202.5661              3538.3613              3758.5186
 Red. masses --      1.0965                 1.0769                 1.0665
 Frc consts  --      6.6259                 7.9435                 8.8767
 IR Inten    --     33.8105               205.5197                24.6196

 - Thermochemistry -
 -------------------
 Temperature   298.150 Kelvin.  Pressure   1.00000 Atm.
 Atom     1 has atomic number  6 and mass  12.00000

 Molecular mass:   247.15723 amu.
 Principal axes and moments of inertia in atomic units:
                           1         2         3
     Eigenvalues --  2810.259786238.407066655.99191
           X            0.99998   0.00558   0.00053
           Y           -0.00560   0.99822   0.05935
           Z           -0.00020  -0.05935   0.99824
 This molecule is an asymmetric top.
 Rotational symmetry number  1.
 Warning -- assumption of classical behavior for rotation
           may cause significant error
 Rotational temperatures (Kelvin)      0.03082     0.01388     0.01301
 Rotational constants (GHZ):           0.64220     0.28930     0.27115
 Zero-point vibrational energy     891590.2 (Joules/Mol)
                                  213.09518 (Kcal/Mol)
 Warning -- explicit consideration of  27 degrees of freedom as
           vibrations may cause significant error
 Vibrational temperatures:     46.91    76.56    80.21    87.52   115.23
          (Kelvin)            131.52   148.68   149.94   190.49   215.19
                              249.32   314.39   337.21   342.42   401.77
                              448.56   471.62   477.74   522.42   587.50
                              619.34   651.04   677.26   751.94   768.34
                              823.69   868.55   927.47   968.39  1010.40
                             1036.05  1098.08  1120.23  1133.45  1146.47
                             1163.57  1230.35  1257.48  1296.63  1298.78
                             1353.58  1387.16  1394.45  1436.17  1473.66
                             1480.20  1499.68  1522.09  1542.78  1550.35
                             1554.80  1557.40  1592.81  1644.41  1655.92
                             1700.23  1728.15  1734.73  1770.33  1799.03
                             1826.25  1840.26  1849.09  1853.88  1880.19
                             1891.40  1915.52  1934.26  1941.91  1966.02
                             1989.13  2023.16  2031.55  2076.28  2082.50
                             2123.61  2144.07  2168.50  2174.75  2179.40
                             2184.08  2188.34  2200.17  2204.85  2211.01
                             2224.61  2239.63  2360.92  2385.16  2534.34
                             4324.16  4367.29  4383.91  4394.47  4404.61
                             4405.96  4417.61  4428.15  4435.84  4452.90
                             4465.62  4477.58  4479.31  4505.92  4508.19
                             4511.57  4570.12  4582.25  4607.78  5090.91
                             5407.67

 Zero-point correction=                           0.339589 (Hartree/Particle)
 Thermal correction to Energy=                    0.357874
 Thermal correction to Enthalpy=                  0.358818
 Thermal correction to Gibbs Free Energy=         0.292461
 Sum of electronic and zero-point Energies=           -789.192708
 Sum of electronic and thermal Energies=              -789.174423
 Sum of electronic and thermal Enthalpies=            -789.173478
 Sum of electronic and thermal Free Energies=         -789.239836

                     E (Thermal)             CV                S
                      KCal/Mol        Cal/Mol-Kelvin    Cal/Mol-Kelvin
 Total                  224.569             68.642            139.661
 Electronic               0.000              0.000              0.000
 Translational            0.889              2.981             42.415
 Rotational               0.889              2.981             33.123
 Vibrational            222.792             62.680             64.123
 Vibration     1          0.594              1.983              5.664
 Vibration     2          0.596              1.976              4.694
 Vibration     3          0.596              1.975              4.602
 Vibration     4          0.597              1.973              4.430
 Vibration     5          0.600              1.963              3.889
 Vibration     6          0.602              1.955              3.630
 Vibration     7          0.605              1.947              3.390
 Vibration     8          0.605              1.946              3.374
 Vibration     9          0.613              1.921              2.911
 Vibration    10          0.618              1.903              2.678
 Vibration    11          0.627              1.875              2.400
 Vibration    12          0.646              1.813              1.971
 Vibration    13          0.654              1.788              1.845
 Vibration    14          0.656              1.782              1.818
 Vibration    15          0.680              1.712              1.538
 Vibration    16          0.700              1.651              1.353
 Vibration    17          0.711              1.620              1.271
 Vibration    18          0.714              1.612              1.250
 Vibration    19          0.737              1.548              1.109
 Vibration    20          0.773              1.452              0.933
 Vibration    21          0.792              1.404              0.857
 Vibration    22          0.811              1.355              0.788
 Vibration    23          0.828              1.315              0.736
 Vibration    24          0.878              1.200              0.604
 Vibration    25          0.889              1.175              0.578
 Vibration    26          0.929              1.091              0.499
 Vibration    27          0.962              1.024              0.443

                           ! Non-Optimized Parameters !
 Normal termination of Gaussian 16 at Fri Dec 11 21:54:10 2020.

 ----------------------------------------------------------------------
 # B3LYP/6-311++G(d,p) empiricaldispersion=gd3bj scf=xqc pop=npa geom=c
 heck
 ----------------------------------------------------------------------

 ---------------------------------------
 CID_103774292_JID_8667_Energie_neutraal
 ---------------------------------------
 Structure from the checkpoint file:  "JID_8667.chk"
 Charge =  0 Multiplicity = 1

 SCF Done:  E(RB3LYP) =  -789.760106450     A.U. after   16 cycles
 Normal termination of Gaussian 16 at Fri Dec 11 22:03:56 2020.

 ----------------------------------------------------------------------
 # B3LYP/6-311++G(d,p) empiricaldispersion=gd3bj scf=xqc pop=npa geom=c
 heck
 ----------------------------------------------------------------------

 -------------------------------------
 CID_103774292_JID_8667_Energie_kation
 -------------------------------------
 Structure from the checkpoint file:  "JID_8667.chk"
 Charge =  1 Multiplicity = 2

 SCF Done:  E(UB3LYP) =  -789.456931728     A.U. after   33 cycles
 SCF Done:  E(UB3LYP) =  -789.456931732     a.u. after    2 cycles
 Normal termination of Gaussian 16 at Fri Dec 11 22:55:49 2020.
 Gaussian 16:  ES64L-G16RevA.03 25-Dec-2016

 ----------------------------------------------------------------------
 # B3LYP/6-311++G(d,p) empiricaldispersion=gd3bj scf=xqc pop=npa geom=c
 heck
 ----------------------------------------------------------------------

 ------------------------------------
 CID_103774292_JID_8667_Energie_anion
 ------------------------------------
 Structure from the checkpoint file:  "JID_8667.chk"
 Charge = -1 Multiplicity = 2

                         Standard orientation:
 ---------------------------------------------------------------------
 Center     Atomic      Atomic             Coordinates (Angstroms)
 Number     Number       Type             X           Y           Z
 ---------------------------------------------------------------------
      1          6           0       -1.341060   -1.106359   -2.393185
      2          6           0       -2.010345   -0.323921   -1.287420
      3          6           0       -1.616922   -0.495985    0.050393
      4          6           0       -2.267736    0.181498    1.095486
      5          6           0       -3.293046    1.076932    0.775872
      6          6           0       -3.676075    1.278484   -0.548925
      7          6           0       -3.043925    0.574609   -1.571589
      8          6           0       -1.881623   -0.075530    2.532479
      9          6           0       -0.525133   -1.484688    0.384772
     10          8           0       -0.783552   -2.619378    0.779431
     11          7           0        0.754322   -1.047431    0.221607
     12          6           0        1.179374    0.278157   -0.194738
     13          6           0        1.191384    1.356874    0.912524
     14          6           0        2.171224    2.444699    0.402632
     15          6           0        2.863290    1.837770   -0.851516
     16          6           0        2.613222    0.319115   -0.771557
     17          6           0        3.666657   -0.355656    0.107940
     18          8           0        3.456253   -1.770782    0.084652
     19          1           0       -1.318477   -2.175432   -2.156269
     20          1           0       -1.871041   -0.975111   -3.341036
     21          1           0       -0.300594   -0.792981   -2.545906
     22          1           0       -3.799812    1.610758    1.575822
     23          1           0       -4.476453    1.975105   -0.783007
     24          1           0       -3.356984    0.714954   -2.603144
     25          1           0       -2.003650   -1.135490    2.777916
     26          1           0       -0.830542    0.173744    2.720096
     27          1           0       -2.496624    0.516068    3.216852
     28          1           0        1.487307   -1.727175    0.404892
     29          1           0        0.506622    0.624860   -0.986475
     30          1           0        0.184621    1.739131    1.097762
     31          1           0        1.543818    0.909236    1.848404
     32          1           0        2.905742    2.699072    1.173382
     33          1           0        1.651608    3.373341    0.148750
     34          1           0        3.929060    2.084443   -0.907537
     35          1           0        2.399242    2.227943   -1.763744
     36          1           0        2.653039   -0.159081   -1.756880
     37          1           0        4.664916   -0.113159   -0.285967
     38          1           0        3.615207    0.029825    1.137402
     39          1           0        4.075420   -2.182743    0.705773
 ---------------------------------------------------------------------

 SCF Done:  E(UB3LYP) =  -789.751837457     A.U. after   33 cycles
 SCF Done:  E(UB3LYP) =  -789.751837456     a.u. after    1 cycles

 The electronic state is 2-A.
 Alpha  occ. eigenvalues --  -19.03330 -18.99162 -14.23318 -10.17786 -10.12097
 Alpha  occ. eigenvalues --  -10.11886 -10.10368 -10.10269 -10.09431 -10.09163
 Alpha  occ. eigenvalues --  -10.08827 -10.08795 -10.08676 -10.08469 -10.07995
 Alpha  occ. eigenvalues --  -10.07849 -10.07613 -10.07311  -0.94084  -0.93254
 Alpha  occ. eigenvalues --   -0.83088  -0.78078  -0.74521  -0.70234  -0.68398
 Alpha  occ. eigenvalues --   -0.64828  -0.62286  -0.61370  -0.59897  -0.57173
 Alpha  occ. eigenvalues --   -0.54546  -0.49573  -0.49454  -0.47759  -0.47213
 Alpha  occ. eigenvalues --   -0.43089  -0.42838  -0.41121  -0.39974  -0.39314
 Alpha  occ. eigenvalues --   -0.37367  -0.34962  -0.34703  -0.34421  -0.33663
 Alpha  occ. eigenvalues --   -0.33153  -0.32947  -0.32701  -0.32389  -0.31849
 Alpha  occ. eigenvalues --   -0.30402  -0.29216  -0.28576  -0.27901  -0.26523
 Alpha  occ. eigenvalues --   -0.26348  -0.26105  -0.25335  -0.25151  -0.25078
 Alpha  occ. eigenvalues --   -0.23102  -0.22834  -0.18965  -0.17521  -0.16142
 Alpha  occ. eigenvalues --   -0.15492  -0.15152   0.03848
 Alpha virt. eigenvalues --    0.05234   0.06336   0.06425   0.06778   0.07112
 Alpha virt. eigenvalues --    0.07546   0.07997   0.08540   0.09404   0.09763
 Alpha virt. eigenvalues --    0.10287   0.10549   0.10630   0.11236   0.11999

  Beta  occ. eigenvalues --  -19.03286 -18.99159 -14.23314 -10.17784 -10.12048
  Beta  occ. eigenvalues --  -10.11882 -10.10368 -10.10269 -10.09428 -10.09154
  Beta  occ. eigenvalues --  -10.08819 -10.08788 -10.08673 -10.08462 -10.07987
  Beta  occ. eigenvalues --  -10.07832 -10.07596 -10.07297  -0.94076  -0.93165
  Beta  occ. eigenvalues --   -0.83078  -0.78069  -0.74494  -0.70226  -0.68384
  Beta  occ. eigenvalues --   -0.64774  -0.62264  -0.61348  -0.59879  -0.57086
  Beta  occ. eigenvalues --   -0.54530  -0.49542  -0.49436  -0.47720  -0.47163
  Beta  occ. eigenvalues --   -0.43025  -0.42769  -0.41066  -0.39960  -0.39275
  Beta  occ. eigenvalues --   -0.37338  -0.34936  -0.34675  -0.34405  -0.33636
  Beta  occ. eigenvalues --   -0.33138  -0.32927  -0.32684  -0.32374  -0.31836
  Beta  occ. eigenvalues --   -0.30386  -0.29204  -0.28539  -0.27860  -0.26513
  Beta  occ. eigenvalues --   -0.26332  -0.26087  -0.25306  -0.25124  -0.25055
  Beta  occ. eigenvalues --   -0.23075  -0.22784  -0.18918  -0.17511  -0.16135
  Beta  occ. eigenvalues --   -0.15483  -0.15147
  Beta virt. eigenvalues --    0.05640   0.06454   0.06627   0.06763   0.07078
  Beta virt. eigenvalues --    0.07553   0.07806   0.08458   0.09200   0.09507
  Beta virt. eigenvalues --    0.10144   0.10363   0.10586   0.11055   0.11468

 Mulliken charges and spin densities:
               1          2
     1  C   -0.106038  -0.291111
     2  C    0.079984   0.311378
     3  C   -0.147923   0.866181
     4  C    0.001551   0.326816
     5  C   -0.004361  -0.265599
     6  C    0.590685  -1.038668
     7  C   -0.267268  -0.144011
     8  C   -0.283507  -0.257014
     9  C   -0.082836  -0.732018
    10  O   -0.258725  -0.002332
    11  N   -0.106312   0.035844
    12  C   -0.401699   0.188526
    13  C   -0.422721   0.036666
    14  C    0.869304  -1.416660
    15  C   -0.835882   0.294944
    16  C   -0.725940   1.226722
    17  C    1.888600  -2.548994
    18  O   -0.348477   0.051101
    19  H    0.185250   0.008246
    20  H    0.007836   0.143044
    21  H    0.032189   0.132408
    22  H   -0.094432   0.243340
    23  H   -0.340547   0.507109
    24  H   -0.209658   0.363143
    25  H    0.188794   0.008477
    26  H    0.014957   0.171006
    27  H   -0.022585   0.167151
    28  H    0.686244  -0.259483
    29  H    0.406955  -0.265229
    30  H    0.300313  -0.177496
    31  H    0.013039   0.169742
    32  H   -0.089534   0.249628
    33  H   -0.086935   0.249688
    34  H   -0.123924   0.303837
    35  H   -0.103198   0.246393
    36  H    0.114751   0.126823
    37  H   -0.604659   0.789316
    38  H   -0.530502   0.728823
    39  H   -0.182789   0.452264
 Sum of Mulliken charges =  -1.00000   1.00000

 Dipole moment (field-independent basis, Debye):
    X=             -5.7748    Y=              1.4864    Z=             -1.7532  Tot=              6.2154
 Quadrupole moment (field-independent basis, Debye-Ang):
   XX=           -207.4638   YY=           -159.3108   ZZ=           -142.1276
   XY=              5.7510   XZ=             -9.8217   YZ=              4.8715

 Summary of Natural Population Analysis:

                                       Natural Population
                Natural  -----------------------------------------------
    Atom  No    Charge         Core      Valence    Rydberg      Total
 -----------------------------------------------------------------------
      C    1   -0.29775      0.99963     2.29278    0.00534     3.29775
      C    2   -0.00758      0.99948     1.99894    0.00916     3.00758
      C    3   -0.05740      0.99937     2.04654    0.01148     3.05740
      C    4   -0.00489      0.99948     1.99552    0.00989     3.00489
      C    5   -0.10518      0.99951     2.09588    0.00980     3.10518
      C    6   -0.09523      0.99956     2.08567    0.01000     3.09523
      C    7   -0.10510      0.99951     2.09587    0.00971     3.10510
      C    8   -0.29798      0.99963     2.29399    0.00436     3.29798
      C    9    0.34140      0.99961     1.63579    0.02320     2.65860
      O   10   -0.32151      0.99988     3.31643    0.00520     4.32151
      N   11   -0.31905      0.99964     2.81020    0.00920     3.81905
      C   12   -0.01161      0.99954     1.99930    0.01276     3.01161
      C   13   -0.19799      0.99961     2.18991    0.00846     3.19799
      C   14   -0.19490      0.99965     2.18754    0.00772     3.19490
      C   15   -0.18908      0.99962     2.18101    0.00845     3.18908
      C   16   -0.11854      0.99958     2.10721    0.01176     3.11854
      C   17   -0.01056      0.99955     1.99796    0.01305     3.01056
      O   18   -0.37895      0.99989     3.37212    0.00694     4.37895
      H   19    0.11097      0.00000     0.38824    0.00078     0.38903
      H   20    0.10173      0.00000     0.39759    0.00068     0.39827
      H   21    0.10622      0.00000     0.39282    0.00096     0.39378
      H   22    0.09978      0.00000     0.39931    0.00091     0.40022
      H   23    0.10090      0.00000     0.39813    0.00098     0.39910
      H   24    0.09993      0.00000     0.39909    0.00098     0.40007
      H   25    0.11379      0.00000     0.38524    0.00096     0.38621
      H   26    0.10807      0.00000     0.39083    0.00110     0.39193
      H   27    0.10025      0.00000     0.39900    0.00075     0.39975
      H   28    0.21338      0.00000     0.28404    0.00259     0.28662
      H   29    0.09921      0.00000     0.39869    0.00210     0.40079
      H   30    0.10441      0.00000     0.39428    0.00131     0.39559
      H   31    0.10003      0.00000     0.39838    0.00159     0.39997
      H   32    0.10092      0.00000     0.39787    0.00121     0.39908
      H   33    0.09882      0.00000     0.40016    0.00102     0.40118
      H   34    0.10346      0.00000     0.39537    0.00117     0.39654
      H   35    0.09831      0.00000     0.40066    0.00103     0.40169
      H   36    0.10413      0.00000     0.39446    0.00141     0.39587
      H   37    0.08483      0.00000     0.41234    0.00283     0.41517
      H   38    0.08314      0.00000     0.41352    0.00334     0.41686
      H   39    0.23960      0.00000     0.25340    0.00700     0.26040
 =======================================================================
   * Total *    0.00000     17.99275    48.79610    0.21115    67.00000

 Normal termination of Gaussian 16 at Fri Dec 11 23:24:34 2020.
