 Gaussian 16, Revision A.03,

 -----------------------------------------------------------
 # opt freq B3LYP/6-31G(d) empiricaldispersion=gd3bj scf=xqc
 -----------------------------------------------------------

 -------------------------------
 CID_106130584_JID_6969_neutraal
 -------------------------------
 Symbolic Z-matrix:
 Charge =  0 Multiplicity = 1

 SCF Done:  E(RB3LYP) =  -729.312130862     A.U. after   14 cycles
 SCF Done:  E(RB3LYP) =  -729.316883284     A.U. after   12 cycles
 SCF Done:  E(RB3LYP) =  -729.312868839     A.U. after   13 cycles
 SCF Done:  E(RB3LYP) =  -729.316508342     A.U. after   11 cycles
 SCF Done:  E(RB3LYP) =  -729.317359436     A.U. after    9 cycles
 SCF Done:  E(RB3LYP) =  -729.316951454     A.U. after   12 cycles
 SCF Done:  E(RB3LYP) =  -729.318039149     A.U. after   11 cycles
 SCF Done:  E(RB3LYP) =  -729.318264270     A.U. after   12 cycles
 SCF Done:  E(RB3LYP) =  -729.318326063     A.U. after   11 cycles
 SCF Done:  E(RB3LYP) =  -729.318359742     A.U. after   11 cycles
 SCF Done:  E(RB3LYP) =  -729.318375868     A.U. after    9 cycles
 SCF Done:  E(RB3LYP) =  -729.318377481     A.U. after    8 cycles
 SCF Done:  E(RB3LYP) =  -729.318377679     A.U. after    7 cycles
 SCF Done:  E(RB3LYP) =  -729.318377717     A.U. after    7 cycles
 SCF Done:  E(RB3LYP) =  -729.318377723     A.U. after    6 cycles
 Optimization completed.
    -- Stationary point found.
 Normal termination of Gaussian 16 at Fri Dec 11 01:20:46 2020.

 --------------------------------------------------------------------
 #N Geom=AllCheck Guess=TCheck SCRF=Check GenChk RB3LYP/6-31G(d) Freq
 --------------------------------------------------------------------

 Structure from the checkpoint file:  "JID_6969.chk"
 -------------------------------
 CID_106130584_JID_6969_neutraal
 -------------------------------
 Charge =  0 Multiplicity = 1

 SCF Done:  E(RB3LYP) =  -729.318377723     A.U. after    1 cycles

  Exact polarizability: 141.154  -2.805 156.710 -15.482  -1.768 126.857
 Approx polarizability: 186.362  -2.411 244.464 -36.068  -3.609 201.828

                      1                      2                      3
                      A                      A                      A
 Frequencies --     22.8687                43.3666                54.1765
 Red. masses --      4.1513                 4.5507                 3.5884
 Frc consts  --      0.0013                 0.0050                 0.0062
 IR Inten    --      0.1118                 0.2794                 0.6513

                      4                      5                      6
                      A                      A                      A
 Frequencies --     79.1362               105.2153               114.9415
 Red. masses --      3.8703                 4.1088                 3.7007
 Frc consts  --      0.0143                 0.0268                 0.0288
 IR Inten    --      1.6873                 0.8641                 6.9490

                      7                      8                      9
                      A                      A                      A
 Frequencies --    155.6687               169.9340               193.0365
 Red. masses --      2.4655                 2.9551                 1.5607
 Frc consts  --      0.0352                 0.0503                 0.0343
 IR Inten    --      3.3784                 1.2602                 3.3147

                     10                     11                     12
                      A                      A                      A
 Frequencies --    211.3571               219.4972               252.1332
 Red. masses --      3.0946                 2.4135                 2.7214
 Frc consts  --      0.0814                 0.0685                 0.1019
 IR Inten    --      2.6342                 0.4874                 1.9667

                     13                     14                     15
                      A                      A                      A
 Frequencies --    262.2557               282.6883               305.5073
 Red. masses --      1.3278                 2.5306                 2.4894
 Frc consts  --      0.0538                 0.1192                 0.1369
 IR Inten    --      0.5627                 1.8181                 1.1634

                     16                     17                     18
                      A                      A                      A
 Frequencies --    346.7357               357.6196               380.1386
 Red. masses --      1.9084                 1.9108                 2.1882
 Frc consts  --      0.1352                 0.1440                 0.1863
 IR Inten    --     23.5401                47.3721                 4.2679

                     19                     20                     21
                      A                      A                      A
 Frequencies --    382.3428               434.4613               475.6979
 Red. masses --      1.5936                 2.5299                 3.7408
 Frc consts  --      0.1373                 0.2814                 0.4987
 IR Inten    --     45.0737                 3.8115                 1.1586

                     22                     23                     24
                      A                      A                      A
 Frequencies --    506.5757               510.3307               554.6970
 Red. masses --      4.8876                 3.0146                 3.3957
 Frc consts  --      0.7390                 0.4626                 0.6156
 IR Inten    --      7.3757                 1.9239                 1.7734

                     25                     26                     27
                      A                      A                      A
 Frequencies --    620.2974               621.1858               642.7601
 Red. masses --      3.6686                 3.0108                 3.5600
 Frc consts  --      0.8317                 0.6845                 0.8666
 IR Inten    --      2.5966                 0.1025                 3.8085

                     28                     29                     30
                      A                      A                      A
 Frequencies --    761.5122               765.0028               787.2232
 Red. masses --      2.7811                 5.4128                 2.5565
 Frc consts  --      0.9502                 1.8664                 0.9334
 IR Inten    --      6.1264                 2.5180                37.3669

                     31                     32                     33
                      A                      A                      A
 Frequencies --    802.4118               821.6996               854.6971
 Red. masses --      1.6031                 1.9435                 2.0857
 Frc consts  --      0.6081                 0.7731                 0.8977
 IR Inten    --     17.2503                 3.6376                40.3142

                     34                     35                     36
                      A                      A                      A
 Frequencies --    869.7153               889.4632               921.7636
 Red. masses --      2.7882                 2.3877                 1.7077
 Frc consts  --      1.2426                 1.1130                 0.8549
 IR Inten    --     16.0676                33.2402                25.6530

                     37                     38                     39
                      A                      A                      A
 Frequencies --    956.1597               958.9691               972.0407
 Red. masses --      1.6883                 1.6100                 1.3483
 Frc consts  --      0.9094                 0.8724                 0.7506
 IR Inten    --     17.9286                 3.4640                 0.7080

                     40                     41                     42
                      A                      A                      A
 Frequencies --    978.3340              1026.2791              1043.9019
 Red. masses --      1.8099                 1.3981                 2.1854
 Frc consts  --      1.0207                 0.8676                 1.4031
 IR Inten    --      6.5249                19.5722                 6.0250

                     43                     44                     45
                      A                      A                      A
 Frequencies --   1061.8043              1075.4797              1098.1896
 Red. masses --      5.6027                 1.7754                 2.3982
 Frc consts  --      3.7216                 1.2099                 1.7041
 IR Inten    --     60.4940                54.0630                 2.7785

                     46                     47                     48
                      A                      A                      A
 Frequencies --   1113.5715              1122.0605              1144.1476
 Red. masses --      1.6620                 2.2020                 2.2536
 Frc consts  --      1.2143                 1.6334                 1.7382
 IR Inten    --     26.0899                12.2671                42.0732

                     49                     50                     51
                      A                      A                      A
 Frequencies --   1159.5442              1168.1586              1186.2024
 Red. masses --      1.8510                 2.1681                 1.2678
 Frc consts  --      1.4663                 1.7431                 1.0510
 IR Inten    --     14.4288                55.4222                 0.5701

                     52                     53                     54
                      A                      A                      A
 Frequencies --   1201.8047              1215.8344              1236.2342
 Red. masses --      1.9885                 1.4545                 1.3589
 Frc consts  --      1.6922                 1.2668                 1.2236
 IR Inten    --      3.4614                 7.5882                 7.7868

                     55                     56                     57
                      A                      A                      A
 Frequencies --   1251.5691              1289.4209              1310.4388
 Red. masses --      1.2815                 1.4555                 1.9542
 Frc consts  --      1.1827                 1.4257                 1.9772
 IR Inten    --      2.3184                18.5658                61.2613

                     58                     59                     60
                      A                      A                      A
 Frequencies --   1321.2107              1328.7451              1345.2439
 Red. masses --      2.2369                 1.5106                 1.7470
 Frc consts  --      2.3006                 1.5714                 1.8628
 IR Inten    --     28.4718                17.3058                20.2987

                     61                     62                     63
                      A                      A                      A
 Frequencies --   1363.5112              1376.2622              1385.1742
 Red. masses --      1.7492                 1.4919                 1.3885
 Frc consts  --      1.9161                 1.6649                 1.5696
 IR Inten    --     60.3607                 7.3703                32.0988

                     64                     65                     66
                      A                      A                      A
 Frequencies --   1401.4059              1422.3476              1430.8200
 Red. masses --      1.3518                 1.3867                 1.1990
 Frc consts  --      1.5642                 1.6529                 1.4462
 IR Inten    --     13.1293                 0.6944                17.7153

                     67                     68                     69
                      A                      A                      A
 Frequencies --   1435.7142              1444.8966              1464.3054
 Red. masses --      1.3149                 1.3780                 1.7669
 Frc consts  --      1.5970                 1.6950                 2.2321
 IR Inten    --     13.0603                29.4256               133.2461

                     70                     71                     72
                      A                      A                      A
 Frequencies --   1498.7944              1506.0444              1508.7909
 Red. masses --      1.9200                 1.0978                 1.1910
 Frc consts  --      2.5412                 1.4670                 1.5975
 IR Inten    --     15.5061                 2.9384                 4.6791

                     73                     74                     75
                      A                      A                      A
 Frequencies --   1509.0527              1516.6376              1522.4061
 Red. masses --      1.0502                 1.0788                 1.3370
 Frc consts  --      1.4091                 1.4620                 1.8257
 IR Inten    --      4.9048                 3.6617                79.0902

                     76                     77                     78
                      A                      A                      A
 Frequencies --   1524.9797              1529.1598              1534.1175
 Red. masses --      1.0996                 1.1593                 1.0590
 Frc consts  --      1.5067                 1.5972                 1.4684
 IR Inten    --     18.9906                 1.7471                 0.0235

                     79                     80                     81
                      A                      A                      A
 Frequencies --   1550.8912              1562.7439              1635.5204
 Red. masses --      1.1041                 1.1447                 6.8293
 Frc consts  --      1.5647                 1.6471                10.7631
 IR Inten    --      5.1523                38.9893                34.1105

                     82                     83                     84
                      A                      A                      A
 Frequencies --   1649.3987              2920.6024              3033.9459
 Red. masses --      5.5084                 1.0735                 1.0666
 Frc consts  --      8.8293                 5.3952                 5.7847
 IR Inten    --     65.9073                77.5355                 6.9990

                     85                     86                     87
                      A                      A                      A
 Frequencies --   3042.7148              3050.8422              3054.8688
 Red. masses --      1.0615                 1.0410                 1.0810
 Frc consts  --      5.7903                 5.7088                 5.9437
 IR Inten    --     20.3849                20.1153                66.9006

                     88                     89                     90
                      A                      A                      A
 Frequencies --   3064.6221              3064.9301              3072.1293
 Red. masses --      1.0457                 1.0487                 1.0890
 Frc consts  --      5.7863                 5.8043                 6.0556
 IR Inten    --     66.7207                26.0065                16.8433

                     91                     92                     93
                      A                      A                      A
 Frequencies --   3078.5087              3090.2423              3115.5474
 Red. masses --      1.0948                 1.1008                 1.1005
 Frc consts  --      6.1129                 6.1938                 6.2938
 IR Inten    --     36.9401                54.2316                44.4588

                     94                     95                     96
                      A                      A                      A
 Frequencies --   3128.0806              3128.8501              3134.7733
 Red. masses --      1.1000                 1.1030                 1.1068
 Frc consts  --      6.3418                 6.3619                 6.4083
 IR Inten    --     10.4856                22.9034                27.0234

                     97                     98                     99
                      A                      A                      A
 Frequencies --   3168.3021              3177.0660              3187.2227
 Red. masses --      1.1065                 1.0892                 1.0899
 Frc consts  --      6.5442                 6.4776                 6.5234
 IR Inten    --     25.5717                19.2734                10.8201

                    100                    101                    102
                      A                      A                      A
 Frequencies --   3221.5269              3478.5803              3743.1724
 Red. masses --      1.0956                 1.0733                 1.0664
 Frc consts  --      6.6991                 7.6518                 8.8032
 IR Inten    --     16.2476                14.7717                31.3913

 - Thermochemistry -
 -------------------
 Temperature   298.150 Kelvin.  Pressure   1.00000 Atm.
 Atom     1 has atomic number  6 and mass  12.00000

 Molecular mass:   224.15248 amu.
 Principal axes and moments of inertia in atomic units:
                           1         2         3
     Eigenvalues --  2479.657864979.637245665.00424
           X            0.99998   0.00547   0.00411
           Y           -0.00542   0.99993  -0.01081
           Z           -0.00417   0.01078   0.99993
 This molecule is an asymmetric top.
 Rotational symmetry number  1.
 Warning -- assumption of classical behavior for rotation
           may cause significant error
 Rotational temperatures (Kelvin)      0.03493     0.01739     0.01529
 Rotational constants (GHZ):           0.72782     0.36242     0.31858
 Zero-point vibrational energy     831841.0 (Joules/Mol)
                                  198.81478 (Kcal/Mol)
 Warning -- explicit consideration of  25 degrees of freedom as
           vibrations may cause significant error
 Vibrational temperatures:     32.90    62.39    77.95   113.86   151.38
          (Kelvin)            165.38   223.97   244.50   277.74   304.10
                              315.81   362.76   377.33   406.73   439.56
                              498.88   514.53   546.93   550.11   625.09
                              684.42   728.85   734.25   798.09   892.47
                              893.75   924.79  1095.65  1100.67  1132.64
                             1154.49  1182.24  1229.72  1251.33  1279.74
                             1326.21  1375.70  1379.74  1398.55  1407.60
                             1476.59  1501.94  1527.70  1547.38  1580.05
                             1602.18  1614.39  1646.17  1668.33  1680.72
                             1706.68  1729.13  1749.31  1778.67  1800.73
                             1855.19  1885.43  1900.93  1911.77  1935.51
                             1961.79  1980.13  1992.96  2016.31  2046.44
                             2058.63  2065.67  2078.88  2106.81  2156.43
                             2166.86  2170.81  2171.19  2182.10  2190.40
                             2194.11  2200.12  2207.25  2231.39  2248.44
                             2353.15  2373.12  4202.10  4365.17  4377.79
                             4389.48  4395.27  4409.31  4409.75  4420.11
                             4429.29  4446.17  4482.58  4500.61  4501.72
                             4510.24  4558.48  4571.09  4585.70  4635.06
                             5004.90  5385.59

 Zero-point correction=                           0.316832 (Hartree/Particle)
 Thermal correction to Energy=                    0.333398
 Thermal correction to Enthalpy=                  0.334342
 Thermal correction to Gibbs Free Energy=         0.272035
 Sum of electronic and zero-point Energies=           -729.001546
 Sum of electronic and thermal Energies=              -728.984979
 Sum of electronic and thermal Enthalpies=            -728.984035
 Sum of electronic and thermal Free Energies=         -729.046342

                     E (Thermal)             CV                S
                      KCal/Mol        Cal/Mol-Kelvin    Cal/Mol-Kelvin
 Total                  209.211             62.609            131.136
 Electronic               0.000              0.000              0.000
 Translational            0.889              2.981             42.124
 Rotational               0.889              2.981             32.614
 Vibrational            207.433             56.647             56.398
 Vibration     1          0.593              1.985              6.368
 Vibration     2          0.595              1.980              5.099
 Vibration     3          0.596              1.976              4.659
 Vibration     4          0.600              1.963              3.912
 Vibration     5          0.605              1.945              3.355
 Vibration     6          0.608              1.937              3.184
 Vibration     7          0.620              1.896              2.602
 Vibration     8          0.625              1.879              2.436
 Vibration     9          0.635              1.850              2.198
 Vibration    10          0.643              1.824              2.032
 Vibration    11          0.647              1.811              1.963
 Vibration    12          0.664              1.759              1.716
 Vibration    13          0.670              1.742              1.647
 Vibration    14          0.682              1.706              1.517
 Vibration    15          0.696              1.663              1.387
 Vibration    16          0.725              1.582              1.181
 Vibration    17          0.733              1.560              1.132
 Vibration    18          0.750              1.513              1.039
 Vibration    19          0.752              1.508              1.030
 Vibration    20          0.795              1.395              0.844
 Vibration    21          0.832              1.304              0.722
 Vibration    22          0.862              1.235              0.642
 Vibration    23          0.865              1.227              0.633
 Vibration    24          0.910              1.129              0.535
 Vibration    25          0.980              0.989              0.416

 Optimization completed.
    -- Stationary point found.
 Normal termination of Gaussian 16 at Fri Dec 11 01:33:35 2020.

 ----------------------------------------------------------------------
 # B3LYP/6-311++G(d,p) empiricaldispersion=gd3bj scf=xqc pop=npa geom=c
 heck
 ----------------------------------------------------------------------

 ---------------------------------------
 CID_106130584_JID_6969_Energie_neutraal
 ---------------------------------------
 Structure from the checkpoint file:  "JID_6969.chk"
 Charge =  0 Multiplicity = 1

 SCF Done:  E(RB3LYP) =  -729.531123798     A.U. after   15 cycles
 Normal termination of Gaussian 16 at Fri Dec 11 01:39:14 2020.

 ----------------------------------------------------------------------
 # B3LYP/6-311++G(d,p) empiricaldispersion=gd3bj scf=xqc pop=npa geom=c
 heck
 ----------------------------------------------------------------------

 -------------------------------------
 CID_106130584_JID_6969_Energie_kation
 -------------------------------------
 Structure from the checkpoint file:  "JID_6969.chk"
 Charge =  1 Multiplicity = 2

 SCF Done:  E(UB3LYP) =  -729.238728578     A.U. after   25 cycles
 Normal termination of Gaussian 16 at Fri Dec 11 01:52:02 2020.
 Gaussian 16:  ES64L-G16RevA.03 25-Dec-2016

 ----------------------------------------------------------------------
 # B3LYP/6-311++G(d,p) empiricaldispersion=gd3bj scf=xqc pop=npa geom=c
 heck
 ----------------------------------------------------------------------

 ------------------------------------
 CID_106130584_JID_6969_Energie_anion
 ------------------------------------
 Structure from the checkpoint file:  "JID_6969.chk"
 Charge = -1 Multiplicity = 2

                         Standard orientation:
 ---------------------------------------------------------------------
 Center     Atomic      Atomic             Coordinates (Angstroms)
 Number     Number       Type             X           Y           Z
 ---------------------------------------------------------------------
      1          6           0        2.814323    0.976294    1.920421
      2          6           0        3.051148    0.926526    0.412580
      3          6           0        3.436623   -0.466105   -0.116414
      4          6           0        2.524714   -1.652161    0.246460
      5          6           0        1.040714   -1.487691   -0.097323
      6          7           0        0.845626   -1.115038   -1.494977
      7          6           0       -0.565463   -0.943146   -1.864329
      8          6           0       -1.298152    0.109424   -1.049776
      9          6           0       -2.097196   -0.221777    0.068684
     10          7           0       -2.684327    0.664898    0.864504
     11          6           0       -2.504871    1.967071    0.590248
     12          6           0       -1.742334    2.423071   -0.476269
     13          6           0       -1.135929    1.467629   -1.300907
     14          8           0       -2.259204   -1.541593    0.331503
     15          6           0       -3.051366   -1.882426    1.470129
     16          8           0        1.937363    1.485458   -0.306641
     17          1           0        1.959100    0.353723    2.209923
     18          1           0        2.612410    2.003843    2.239506
     19          1           0        3.690378    0.609427    2.466719
     20          1           0        3.883474    1.599219    0.171531
     21          1           0        3.518247   -0.389021   -1.207243
     22          1           0        4.448620   -0.692291    0.247059
     23          1           0        2.907938   -2.536354   -0.276769
     24          1           0        2.602277   -1.865756    1.320504
     25          1           0        0.519415   -2.436257    0.077400
     26          1           0        0.579179   -0.769408    0.608140
     27          1           0        1.318007   -0.223145   -1.642094
     28          1           0       -0.594413   -0.662804   -2.923421
     29          1           0       -1.070270   -1.907110   -1.763177
     30          1           0       -2.998066    2.664687    1.264192
     31          1           0       -1.622227    3.485265   -0.660569
     32          1           0       -0.517848    1.781595   -2.138752
     33          1           0       -4.071553   -1.501384    1.367335
     34          1           0       -3.051550   -2.973110    1.502628
     35          1           0       -2.617684   -1.471516    2.386746
     36          1           0        1.116943    1.230211    0.143738
 ---------------------------------------------------------------------

 SCF Done:  E(UB3LYP) =  -729.519560855     A.U. after   33 cycles
 SCF Done:  E(UB3LYP) =  -729.519560855     a.u. after    1 cycles

 The electronic state is 2-A.
 Alpha  occ. eigenvalues --  -19.05295 -19.01629 -14.19033 -14.18631 -10.15181
 Alpha  occ. eigenvalues --  -10.12173 -10.11886 -10.09018 -10.08791 -10.08205
 Alpha  occ. eigenvalues --  -10.06753 -10.06467 -10.06448 -10.06251 -10.06214
 Alpha  occ. eigenvalues --  -10.05954  -0.97581  -0.91734  -0.82673  -0.79952
 Alpha  occ. eigenvalues --   -0.70187  -0.68550  -0.66270  -0.63755  -0.60497
 Alpha  occ. eigenvalues --   -0.58643  -0.55813  -0.51943  -0.50082  -0.49710
 Alpha  occ. eigenvalues --   -0.45978  -0.43197  -0.40674  -0.39071  -0.38385
 Alpha  occ. eigenvalues --   -0.37422  -0.37193  -0.35996  -0.35356  -0.33991
 Alpha  occ. eigenvalues --   -0.33214  -0.32369  -0.31403  -0.30631  -0.28954
 Alpha  occ. eigenvalues --   -0.28731  -0.28086  -0.27779  -0.26835  -0.26458
 Alpha  occ. eigenvalues --   -0.25049  -0.24351  -0.23630  -0.22998  -0.22665
 Alpha  occ. eigenvalues --   -0.21128  -0.17830  -0.16984  -0.16200  -0.13001
 Alpha  occ. eigenvalues --   -0.11851   0.04561
 Alpha virt. eigenvalues --    0.06424   0.06770   0.07620   0.08078   0.08709
 Alpha virt. eigenvalues --    0.09139   0.09682   0.09888   0.10174   0.10272
 Alpha virt. eigenvalues --    0.11207   0.11284   0.11875   0.12386   0.12491

  Beta  occ. eigenvalues --  -19.05297 -19.01628 -14.18874 -14.18617 -10.15210
  Beta  occ. eigenvalues --  -10.12159 -10.11876 -10.08892 -10.08792 -10.08189
  Beta  occ. eigenvalues --  -10.06595 -10.06489 -10.06359 -10.06237 -10.06199
  Beta  occ. eigenvalues --  -10.05917  -0.97575  -0.91726  -0.82435  -0.79907
  Beta  occ. eigenvalues --   -0.69994  -0.68440  -0.66155  -0.63712  -0.60425
  Beta  occ. eigenvalues --   -0.58558  -0.55684  -0.51833  -0.49988  -0.49592
  Beta  occ. eigenvalues --   -0.45934  -0.43122  -0.40584  -0.39016  -0.38332
  Beta  occ. eigenvalues --   -0.37362  -0.37141  -0.35951  -0.35308  -0.33905
  Beta  occ. eigenvalues --   -0.33171  -0.32309  -0.31351  -0.30459  -0.28881
  Beta  occ. eigenvalues --   -0.28513  -0.28004  -0.27692  -0.26794  -0.26418
  Beta  occ. eigenvalues --   -0.25011  -0.24317  -0.23594  -0.22930  -0.22477
  Beta  occ. eigenvalues --   -0.21096  -0.17175  -0.16769  -0.16002  -0.12700
  Beta  occ. eigenvalues --   -0.11700
  Beta virt. eigenvalues --    0.06652   0.07272   0.07764   0.08060   0.08654
  Beta virt. eigenvalues --    0.09012   0.09422   0.09861   0.10158   0.10261
  Beta virt. eigenvalues --    0.10552   0.11377   0.11503   0.12025   0.12428

 Mulliken charges and spin densities:
               1          2
     1  C    0.986558  -1.556338
     2  C   -0.861011   0.772307
     3  C    0.157485  -0.590414
     4  C    0.264836  -0.676751
     5  C   -0.542869   0.139133
     6  N   -0.007984   0.066044
     7  C   -0.253877  -0.584502
     8  C   -0.274780   0.639167
     9  C   -0.882998   0.523915
    10  N   -0.028090   0.043666
    11  C   -0.032767  -0.077668
    12  C   -0.387446  -0.003644
    13  C    0.905213  -0.628088
    14  O   -0.092573   0.011055
    15  C    0.170496  -0.443333
    16  O   -0.188378  -0.029597
    17  H   -0.236236   0.394296
    18  H   -0.112517   0.268026
    19  H   -0.352451   0.498696
    20  H   -0.362397   0.561999
    21  H    0.129656   0.048202
    22  H   -0.283255   0.440554
    23  H    0.054918   0.101949
    24  H   -0.193303   0.350063
    25  H    0.132185   0.055240
    26  H    0.451750  -0.313099
    27  H    0.260146  -0.002283
    28  H    0.025919   0.151689
    29  H    0.120896   0.064215
    30  H   -0.017706   0.167622
    31  H   -0.098850   0.251644
    32  H   -0.067091   0.238905
    33  H    0.035829   0.122619
    34  H   -0.021834   0.157146
    35  H    0.010157   0.160145
    36  H    0.592372  -0.322574
 Sum of Mulliken charges =  -1.00000   1.00000

 Dipole moment (field-independent basis, Debye):
    X=             -3.9923    Y=             -1.3344    Z=             -1.9381  Tot=              4.6341
 Quadrupole moment (field-independent basis, Debye-Ang):
   XX=           -164.1904   YY=           -134.8780   ZZ=           -136.6173
   XY=              0.7846   XZ=             -7.7367   YZ=             -1.7314

 Summary of Natural Population Analysis:

                                       Natural Population
                Natural  -----------------------------------------------
    Atom  No    Charge         Core      Valence    Rydberg      Total
 -----------------------------------------------------------------------
      C    1   -0.30160      0.99964     2.29618    0.00578     3.30160
      C    2    0.06079      0.99957     1.92497    0.01467     2.93921
      C    3   -0.20309      0.99960     2.19429    0.00919     3.20309
      C    4   -0.19467      0.99962     2.18572    0.00933     3.19467
      C    5   -0.09104      0.99962     2.07987    0.01155     3.09104
      N    6   -0.34195      0.99975     2.83111    0.01110     3.84195
      C    7   -0.09371      0.99960     2.08271    0.01140     3.09371
      C    8   -0.04982      0.99945     2.04146    0.00890     3.04982
      C    9    0.26601      0.99940     1.71797    0.01661     2.73399
      N   10   -0.25424      0.99966     2.74294    0.01165     3.75424
      C   11    0.04849      0.99959     1.93805    0.01387     2.95151
      C   12   -0.14720      0.99956     2.13872    0.00893     3.14720
      C   13   -0.05611      0.99952     2.04634    0.01025     3.05611
      O   14   -0.27972      0.99985     3.27094    0.00893     4.27972
      C   15   -0.10038      0.99960     2.09255    0.00823     3.10038
      O   16   -0.38061      0.99990     3.37408    0.00663     4.38061
      H   17    0.09779      0.00000     0.40074    0.00147     0.40221
      H   18    0.10365      0.00000     0.39532    0.00103     0.39635
      H   19    0.10475      0.00000     0.39369    0.00156     0.39525
      H   20    0.08545      0.00000     0.41324    0.00131     0.41455
      H   21    0.09973      0.00000     0.39896    0.00131     0.40027
      H   22    0.10197      0.00000     0.39676    0.00127     0.39803
      H   23    0.09844      0.00000     0.40035    0.00121     0.40156
      H   24    0.09761      0.00000     0.40131    0.00108     0.40239
      H   25    0.09545      0.00000     0.40316    0.00140     0.40455
      H   26    0.07332      0.00000     0.42376    0.00292     0.42668
      H   27    0.17998      0.00000     0.31604    0.00398     0.32002
      H   28    0.09592      0.00000     0.40307    0.00101     0.40408
      H   29    0.10014      0.00000     0.39842    0.00145     0.39986
      H   30    0.08541      0.00000     0.41355    0.00104     0.41459
      H   31    0.10179      0.00000     0.39726    0.00095     0.39821
      H   32    0.10005      0.00000     0.39841    0.00154     0.39995
      H   33    0.08795      0.00000     0.41048    0.00157     0.41205
      H   34    0.08615      0.00000     0.41271    0.00114     0.41385
      H   35    0.09027      0.00000     0.40796    0.00177     0.40973
      H   36    0.23302      0.00000     0.26269    0.00429     0.26698
 =======================================================================
   * Total *    0.00000     15.99394    44.80572    0.20034    61.00000

 Normal termination of Gaussian 16 at Fri Dec 11 02:08:23 2020.
