 Gaussian 16, Revision A.03,

 -----------------------------------------------------------
 # opt freq B3LYP/6-31G(d) empiricaldispersion=gd3bj scf=xqc
 -----------------------------------------------------------

 ------------------------------
 CID_59906486_JID_5756_neutraal
 ------------------------------
 Symbolic Z-matrix:
 Charge =  0 Multiplicity = 1

 SCF Done:  E(RB3LYP) =  -663.904942939     A.U. after   14 cycles
 SCF Done:  E(RB3LYP) =  -663.914848590     A.U. after   12 cycles
 SCF Done:  E(RB3LYP) =  -663.917165243     A.U. after   12 cycles
 SCF Done:  E(RB3LYP) =  -663.918059512     A.U. after   12 cycles
 SCF Done:  E(RB3LYP) =  -663.918521505     A.U. after   11 cycles
 SCF Done:  E(RB3LYP) =  -663.918658502     A.U. after   10 cycles
 SCF Done:  E(RB3LYP) =  -663.918722303     A.U. after   10 cycles
 SCF Done:  E(RB3LYP) =  -663.918738118     A.U. after   10 cycles
 SCF Done:  E(RB3LYP) =  -663.918754465     A.U. after   10 cycles
 SCF Done:  E(RB3LYP) =  -663.918770516     A.U. after   10 cycles
 SCF Done:  E(RB3LYP) =  -663.918788043     A.U. after    8 cycles
 SCF Done:  E(RB3LYP) =  -663.918789046     A.U. after    8 cycles
 SCF Done:  E(RB3LYP) =  -663.918789429     A.U. after    8 cycles
 SCF Done:  E(RB3LYP) =  -663.918789533     A.U. after    7 cycles
 SCF Done:  E(RB3LYP) =  -663.918789592     A.U. after    7 cycles
 Optimization completed.
    -- Stationary point found.
 Normal termination of Gaussian 16 at Thu Dec 10 16:34:06 2020.

 --------------------------------------------------------------------
 #N Geom=AllCheck Guess=TCheck SCRF=Check GenChk RB3LYP/6-31G(d) Freq
 --------------------------------------------------------------------

 Structure from the checkpoint file:  "JID_5756.chk"
 ------------------------------
 CID_59906486_JID_5756_neutraal
 ------------------------------
 Charge =  0 Multiplicity = 1

 SCF Done:  E(RB3LYP) =  -663.918789592     A.U. after    1 cycles

  Exact polarizability: 233.600  -0.187 137.456  -9.038   8.810  79.739
 Approx polarizability: 333.867 -15.358 216.505 -26.806  23.306 126.409

                      1                      2                      3
                      A                      A                      A
 Frequencies --     35.2183                56.3237                81.3719
 Red. masses --      3.7145                 3.6484                 1.4486
 Frc consts  --      0.0027                 0.0068                 0.0057
 IR Inten    --      0.2324                 5.6473                 4.5348

                      4                      5                      6
                      A                      A                      A
 Frequencies --     84.2384               116.6712               142.9379
 Red. masses --      1.6026                 2.2868                 1.9706
 Frc consts  --      0.0067                 0.0183                 0.0237
 IR Inten    --      0.4797                 3.8867                 3.6970

                      7                      8                      9
                      A                      A                      A
 Frequencies --    168.1772               189.2208               214.3560
 Red. masses --      1.8868                 2.2563                 4.9128
 Frc consts  --      0.0314                 0.0476                 0.1330
 IR Inten    --      0.1878                 3.0885                 0.1919

                     10                     11                     12
                      A                      A                      A
 Frequencies --    225.7179               251.5963               283.7056
 Red. masses --      1.5818                 2.8216                 2.8346
 Frc consts  --      0.0475                 0.1052                 0.1344
 IR Inten    --      0.1985                 2.3712                 1.5106

                     13                     14                     15
                      A                      A                      A
 Frequencies --    308.4885               378.6540               393.1630
 Red. masses --      3.1092                 3.8981                 3.3968
 Frc consts  --      0.1743                 0.3293                 0.3094
 IR Inten    --      4.0773                 2.4154                 2.1837

                     16                     17                     18
                      A                      A                      A
 Frequencies --    418.1676               423.4534               456.5138
 Red. masses --      3.2044                 3.5479                 3.1166
 Frc consts  --      0.3301                 0.3748                 0.3827
 IR Inten    --     36.8155                 1.1586                 3.7626

                     19                     20                     21
                      A                      A                      A
 Frequencies --    460.7759               539.4146               569.7012
 Red. masses --      1.3968                 4.0369                 2.7373
 Frc consts  --      0.1747                 0.6921                 0.5234
 IR Inten    --     80.3952                11.3708                34.7981

                     22                     23                     24
                      A                      A                      A
 Frequencies --    597.8444               621.1904               658.9209
 Red. masses --      3.3970                 2.7113                 3.7844
 Frc consts  --      0.7153                 0.6164                 0.9681
 IR Inten    --      1.4859                51.3265                 7.6807

                     25                     26                     27
                      A                      A                      A
 Frequencies --    677.3652               714.4155               737.3508
 Red. masses --      3.1186                 1.7840                 5.5183
 Frc consts  --      0.8430                 0.5365                 1.7677
 IR Inten    --     37.9790                77.8001                12.8158

                     28                     29                     30
                      A                      A                      A
 Frequencies --    791.4081               807.6648               861.0716
 Red. masses --      5.4072                 9.3640                 3.8165
 Frc consts  --      1.9954                 3.5989                 1.6672
 IR Inten    --      0.3743                37.2251                13.9856

                     31                     32                     33
                      A                      A                      A
 Frequencies --    895.9813               946.6470               971.7610
 Red. masses --      1.4505                 2.4136                 1.4864
 Frc consts  --      0.6861                 1.2744                 0.8270
 IR Inten    --      4.2660                 0.9495                 4.1714

                     34                     35                     36
                      A                      A                      A
 Frequencies --    980.8089               985.0849              1037.7787
 Red. masses --      3.3609                 2.1725                 1.7581
 Frc consts  --      1.9049                 1.2421                 1.1156
 IR Inten    --     10.3637                50.4426                15.7734

                     37                     38                     39
                      A                      A                      A
 Frequencies --   1073.7972              1104.0633              1130.3366
 Red. masses --      1.4514                 2.3342                 2.6180
 Frc consts  --      0.9860                 1.6764                 1.9708
 IR Inten    --      1.9964                10.6767                 6.2173

                     40                     41                     42
                      A                      A                      A
 Frequencies --   1137.7093              1164.5305              1167.2154
 Red. masses --      3.3001                 1.3132                 1.5611
 Frc consts  --      2.5168                 1.0492                 1.2531
 IR Inten    --     88.8058                26.7178                46.0560

                     43                     44                     45
                      A                      A                      A
 Frequencies --   1176.3877              1195.1426              1199.8802
 Red. masses --      2.0219                 2.0127                 1.8556
 Frc consts  --      1.6486                 1.6939                 1.5740
 IR Inten    --      0.7675                 4.7006                 1.6796

                     46                     47                     48
                      A                      A                      A
 Frequencies --   1278.2141              1303.2827              1329.8026
 Red. masses --      1.8855                 2.3929                 2.0138
 Frc consts  --      1.8150                 2.3947                 2.0982
 IR Inten    --     88.2073                32.7884                28.3790

                     49                     50                     51
                      A                      A                      A
 Frequencies --   1338.2779              1354.3999              1390.6073
 Red. masses --      2.0709                 3.8252                 1.5677
 Frc consts  --      2.1852                 4.1342                 1.7862
 IR Inten    --     18.9870                76.4643                13.6647

                     52                     53                     54
                      A                      A                      A
 Frequencies --   1404.7145              1436.2196              1444.7610
 Red. masses --      1.5539                 1.8395                 1.2784
 Frc consts  --      1.8066                 2.2356                 1.5722
 IR Inten    --     25.9637                33.5568                 1.6253

                     55                     56                     57
                      A                      A                      A
 Frequencies --   1461.1807              1481.9476              1489.9380
 Red. masses --      1.8031                 1.1421                 1.4744
 Frc consts  --      2.2682                 1.4778                 1.9285
 IR Inten    --    150.1627                 3.9920                 3.0582

                     58                     59                     60
                      A                      A                      A
 Frequencies --   1504.4156              1506.8865              1509.0427
 Red. masses --      1.0679                 1.0812                 1.2017
 Frc consts  --      1.4241                 1.4465                 1.6124
 IR Inten    --      3.9753                49.4190                24.6385

                     61                     62                     63
                      A                      A                      A
 Frequencies --   1520.7773              1530.1097              1542.5782
 Red. masses --      1.0984                 1.0931                 1.1558
 Frc consts  --      1.4967                 1.5078                 1.6204
 IR Inten    --      4.0291                42.7104                10.8574

                     64                     65                     66
                      A                      A                      A
 Frequencies --   1551.3260              1563.1055              1601.3120
 Red. masses --      1.0684                 2.7638                 3.9820
 Frc consts  --      1.5149                 3.9786                 6.0160
 IR Inten    --      9.0363               273.5538               103.4181

                     67                     68                     69
                      A                      A                      A
 Frequencies --   1622.7271              1666.9227              1720.2303
 Red. masses --      3.9955                 5.7084                 6.7603
 Frc consts  --      6.1989                 9.3454                11.7866
 IR Inten    --    531.2277               597.8967                48.2040

                     70                     71                     72
                      A                      A                      A
 Frequencies --   2990.4235              3013.3701              3029.2753
 Red. masses --      1.0548                 1.0831                 1.0413
 Frc consts  --      5.5575                 5.7947                 5.6297
 IR Inten    --     69.1249                57.0931               120.1674

                     73                     74                     75
                      A                      A                      A
 Frequencies --   3030.3117              3072.4122              3077.2375
 Red. masses --      1.0478                 1.0949                 1.0823
 Frc consts  --      5.6691                 6.0898                 6.0384
 IR Inten    --     54.6869                28.5929                44.9110

                     76                     77                     78
                      A                      A                      A
 Frequencies --   3108.8291              3117.3880              3123.1296
 Red. masses --      1.0857                 1.1030                 1.0991
 Frc consts  --      6.1821                 6.3154                 6.3166
 IR Inten    --     36.1210                31.8145                17.2544

                     79                     80                     81
                      A                      A                      A
 Frequencies --   3148.8816              3150.1140              3160.6763
 Red. masses --      1.0903                 1.1050                 1.0900
 Frc consts  --      6.3698                 6.4605                 6.4153
 IR Inten    --     25.0327                20.7187                39.3194

                     82                     83                     84
                      A                      A                      A
 Frequencies --   3510.6855              3588.5752              3647.6595
 Red. masses --      1.0745                 1.0755                 1.0769
 Frc consts  --      7.8028                 8.1600                 8.4419
 IR Inten    --      0.8735                25.4878                68.4293

 - Thermochemistry -
 -------------------
 Temperature   298.150 Kelvin.  Pressure   1.00000 Atm.
 Atom     1 has atomic number  6 and mass  12.00000

 Molecular mass:   205.13275 amu.
 Principal axes and moments of inertia in atomic units:
                           1         2         3
     Eigenvalues --  1401.617645214.590756294.87889
           X            0.99994   0.01048   0.00355
           Y           -0.01048   0.99994  -0.00076
           Z           -0.00356   0.00072   0.99999
 This molecule is an asymmetric top.
 Rotational symmetry number  1.
 Warning -- assumption of classical behavior for rotation
           may cause significant error
 Rotational temperatures (Kelvin)      0.06180     0.01661     0.01376
 Rotational constants (GHZ):           1.28761     0.34609     0.28670
 Zero-point vibrational energy     668437.2 (Joules/Mol)
                                  159.76032 (Kcal/Mol)
 Warning -- explicit consideration of  22 degrees of freedom as
           vibrations may cause significant error
 Vibrational temperatures:     50.67    81.04   117.08   121.20   167.86
          (Kelvin)            205.66   241.97   272.25   308.41   324.76
                              361.99   408.19   443.85   544.80   565.67
                              601.65   609.25   656.82   662.95   776.10
                              819.67   860.16   893.75   948.04   974.58
                             1027.88  1060.88  1138.66  1162.05  1238.89
                             1289.12  1362.01  1398.15  1411.17  1417.32
                             1493.13  1544.95  1588.50  1626.30  1636.91
                             1675.50  1679.36  1692.56  1719.54  1726.36
                             1839.07  1875.13  1913.29  1925.48  1948.68
                             2000.77  2021.07  2066.40  2078.69  2102.31
                             2132.19  2143.69  2164.52  2168.07  2171.18
                             2188.06  2201.49  2219.43  2232.01  2248.96
                             2303.93  2334.74  2398.33  2475.03  4302.55
                             4335.57  4358.45  4359.94  4420.52  4427.46
                             4472.91  4485.23  4493.49  4530.54  4532.31
                             4547.51  5051.09  5163.16  5248.17

 Zero-point correction=                           0.254594 (Hartree/Particle)
 Thermal correction to Energy=                    0.269275
 Thermal correction to Enthalpy=                  0.270219
 Thermal correction to Gibbs Free Energy=         0.212494
 Sum of electronic and zero-point Energies=           -663.664195
 Sum of electronic and thermal Energies=              -663.649515
 Sum of electronic and thermal Enthalpies=            -663.648571
 Sum of electronic and thermal Free Energies=         -663.706295

                     E (Thermal)             CV                S
                      KCal/Mol        Cal/Mol-Kelvin    Cal/Mol-Kelvin
 Total                  168.972             54.900            121.492
 Electronic               0.000              0.000              0.000
 Translational            0.889              2.981             41.860
 Rotational               0.889              2.981             32.198
 Vibrational            167.195             48.938             47.434
 Vibration     1          0.594              1.982              5.511
 Vibration     2          0.596              1.975              4.582
 Vibration     3          0.600              1.962              3.858
 Vibration     4          0.601              1.960              3.790
 Vibration     5          0.608              1.936              3.155
 Vibration     6          0.616              1.910              2.764
 Vibration     7          0.625              1.882              2.456
 Vibration     8          0.633              1.855              2.235
 Vibration     9          0.644              1.819              2.006
 Vibration    10          0.650              1.802              1.913
 Vibration    11          0.664              1.760              1.719
 Vibration    12          0.682              1.704              1.511
 Vibration    13          0.698              1.658              1.370
 Vibration    14          0.749              1.516              1.045
 Vibration    15          0.760              1.485              0.988
 Vibration    16          0.781              1.431              0.898
 Vibration    17          0.786              1.419              0.880
 Vibration    18          0.815              1.346              0.776
 Vibration    19          0.819              1.337              0.764
 Vibration    20          0.894              1.163              0.567
 Vibration    21          0.926              1.097              0.505
 Vibration    22          0.956              1.036              0.453

                           ! Non-Optimized Parameters !
 Normal termination of Gaussian 16 at Thu Dec 10 16:42:57 2020.

 ----------------------------------------------------------------------
 # B3LYP/6-311++G(d,p) empiricaldispersion=gd3bj scf=xqc pop=npa geom=c
 heck
 ----------------------------------------------------------------------

 --------------------------------------
 CID_59906486_JID_5756_Energie_neutraal
 --------------------------------------
 Structure from the checkpoint file:  "JID_5756.chk"
 Charge =  0 Multiplicity = 1

 SCF Done:  E(RB3LYP) =  -664.103891771     A.U. after   15 cycles
 Normal termination of Gaussian 16 at Thu Dec 10 16:46:44 2020.

 ----------------------------------------------------------------------
 # B3LYP/6-311++G(d,p) empiricaldispersion=gd3bj scf=xqc pop=npa geom=c
 heck
 ----------------------------------------------------------------------

 ------------------------------------
 CID_59906486_JID_5756_Energie_kation
 ------------------------------------
 Structure from the checkpoint file:  "JID_5756.chk"
 Charge =  1 Multiplicity = 2

 SCF Done:  E(UB3LYP) =  -663.850181283     A.U. after   22 cycles
 Normal termination of Gaussian 16 at Thu Dec 10 16:53:45 2020.
 Gaussian 16:  ES64L-G16RevA.03 25-Dec-2016

 ----------------------------------------------------------------------
 # B3LYP/6-311++G(d,p) empiricaldispersion=gd3bj scf=xqc pop=npa geom=c
 heck
 ----------------------------------------------------------------------

 -----------------------------------
 CID_59906486_JID_5756_Energie_anion
 -----------------------------------
 Structure from the checkpoint file:  "JID_5756.chk"
 Charge = -1 Multiplicity = 2

                         Standard orientation:
 ---------------------------------------------------------------------
 Center     Atomic      Atomic             Coordinates (Angstroms)
 Number     Number       Type             X           Y           Z
 ---------------------------------------------------------------------
      1          6           0        3.617988    1.371638   -0.431519
      2          6           0        2.202857    0.879994   -0.310872
      3          6           0        1.171439    1.701246   -0.027809
      4          6           0       -0.189430    1.226401    0.058071
      5          6           0       -1.309610    1.974061    0.413416
      6          7           0       -2.549017    1.485231    0.463763
      7          6           0       -2.664013    0.175787    0.138750
      8          7           0       -1.677831   -0.658210   -0.236094
      9          6           0       -0.451435   -0.125753   -0.275415
     10          7           0        0.575972   -0.913661   -0.696432
     11          6           0        1.985218   -0.616560   -0.457136
     12          7           0        2.458155   -1.416484    0.681026
     13          6           0        3.837971   -1.882280    0.647782
     14          7           0       -3.920952   -0.342353    0.219615
     15          6           0       -4.266498   -1.662614   -0.261549
     16          1           0        4.257647    1.004642    0.381742
     17          1           0        3.654463    2.465152   -0.412610
     18          1           0        4.080038    1.032119   -1.368999
     19          1           0        1.354062    2.762913    0.132665
     20          1           0       -1.196773    3.027601    0.672256
     21          1           0        0.351502   -1.900187   -0.752386
     22          1           0        2.553600   -0.983251   -1.324169
     23          1           0        2.246778   -0.934929    1.552132
     24          1           0        4.609837   -1.098164    0.717461
     25          1           0        3.997070   -2.584301    1.473080
     26          1           0        4.006037   -2.429375   -0.286987
     27          1           0       -4.645860    0.343284    0.369040
     28          1           0       -5.301211   -1.876084    0.018345
     29          1           0       -4.165493   -1.752385   -1.352369
     30          1           0       -3.612915   -2.410222    0.195348
 ---------------------------------------------------------------------

 SCF Done:  E(UB3LYP) =  -664.090604635     A.U. after   33 cycles
 SCF Done:  E(UB3LYP) =  -664.090604636     a.u. after    1 cycles

 The electronic state is 2-A.
 Alpha  occ. eigenvalues --  -14.23612 -14.23343 -14.20710 -14.19999 -14.19828
 Alpha  occ. eigenvalues --  -10.16700 -10.15334 -10.14638 -10.11224 -10.10513
 Alpha  occ. eigenvalues --  -10.09114 -10.08117 -10.07544 -10.07380 -10.07002
 Alpha  occ. eigenvalues --   -0.90676  -0.86888  -0.81891  -0.80093  -0.76713
 Alpha  occ. eigenvalues --   -0.71880  -0.67817  -0.61979  -0.61071  -0.57447
 Alpha  occ. eigenvalues --   -0.55691  -0.54005  -0.52332  -0.48128  -0.43989
 Alpha  occ. eigenvalues --   -0.42571  -0.40950  -0.38458  -0.37942  -0.37370
 Alpha  occ. eigenvalues --   -0.36491  -0.35882  -0.34003  -0.32536  -0.32071
 Alpha  occ. eigenvalues --   -0.31595  -0.30823  -0.29950  -0.29677  -0.28367
 Alpha  occ. eigenvalues --   -0.27846  -0.26366  -0.25193  -0.22885  -0.21188
 Alpha  occ. eigenvalues --   -0.17993  -0.15544  -0.15260  -0.13449  -0.09853
 Alpha  occ. eigenvalues --    0.04228
 Alpha virt. eigenvalues --    0.05467   0.06608   0.07057   0.07591   0.08165
 Alpha virt. eigenvalues --    0.08346   0.08457   0.09674   0.09864   0.10360
 Alpha virt. eigenvalues --    0.10886   0.11052   0.12353   0.12644   0.12867

  Beta  occ. eigenvalues --  -14.23606 -14.23329 -14.20698 -14.19988 -14.19839
  Beta  occ. eigenvalues --  -10.16668 -10.15334 -10.14626 -10.11173 -10.10484
  Beta  occ. eigenvalues --  -10.09065 -10.08070 -10.07517 -10.07377 -10.06967
  Beta  occ. eigenvalues --   -0.90643  -0.86861  -0.81861  -0.80065  -0.76688
  Beta  occ. eigenvalues --   -0.71813  -0.67754  -0.61914  -0.61016  -0.57381
  Beta  occ. eigenvalues --   -0.55623  -0.53940  -0.52266  -0.48081  -0.43960
  Beta  occ. eigenvalues --   -0.42503  -0.40906  -0.38416  -0.37878  -0.37320
  Beta  occ. eigenvalues --   -0.36453  -0.35815  -0.33964  -0.32486  -0.31995
  Beta  occ. eigenvalues --   -0.31559  -0.30754  -0.29907  -0.29633  -0.28307
  Beta  occ. eigenvalues --   -0.27789  -0.26323  -0.25135  -0.22736  -0.21167
  Beta  occ. eigenvalues --   -0.17847  -0.15519  -0.15226  -0.13419  -0.09726
  Beta virt. eigenvalues --    0.06277   0.06668   0.07036   0.07584   0.07903
  Beta virt. eigenvalues --    0.08562   0.08621   0.08995   0.09950   0.10252
  Beta virt. eigenvalues --    0.10813   0.11226   0.11420   0.12629   0.12904

 Mulliken charges and spin densities:
               1          2
     1  C    2.380861  -2.898395
     2  C   -0.778709   1.227488
     3  C    0.064941  -0.224603
     4  C    1.944927  -0.841380
     5  C   -0.146969   0.037031
     6  N   -0.213683   0.013449
     7  C   -0.125009   0.127626
     8  N   -0.200196   0.049928
     9  C   -1.703151   0.553523
    10  N    0.004819  -0.015571
    11  C   -1.767298   0.604484
    12  N   -0.032111   0.102299
    13  C    1.220070  -1.520746
    14  N   -0.305122   0.117468
    15  C    0.610585  -0.930467
    16  H    0.026602   0.121961
    17  H   -0.290082   0.439315
    18  H   -0.297643   0.465530
    19  H   -0.024132   0.151754
    20  H    0.069601   0.085189
    21  H    0.124185   0.175894
    22  H   -0.217128   0.434719
    23  H    0.151555   0.050629
    24  H   -0.301072   0.422650
    25  H   -0.401195   0.547380
    26  H   -0.475461   0.614355
    27  H    0.148541   0.152778
    28  H   -0.426677   0.560515
    29  H   -0.060823   0.224417
    30  H    0.019775   0.150779
 Sum of Mulliken charges =  -1.00000   1.00000

 Dipole moment (field-independent basis, Debye):
    X=             -3.4861    Y=              2.9575    Z=              1.0247  Tot=              4.6851
 Quadrupole moment (field-independent basis, Debye-Ang):
   XX=           -197.0345   YY=           -131.2615   ZZ=           -118.3130
   XY=              1.5054   XZ=              5.6218   YZ=              1.6318

 Summary of Natural Population Analysis:

                                       Natural Population
                Natural  -----------------------------------------------
    Atom  No    Charge         Core      Valence    Rydberg      Total
 -----------------------------------------------------------------------
      C    1   -0.29539      0.99963     2.28956    0.00620     3.29539
      C    2   -0.01027      0.99950     2.00032    0.01045     3.01027
      C    3   -0.09743      0.99946     2.08928    0.00869     3.09743
      C    4   -0.11256      0.99946     2.10554    0.00756     3.11256
      C    5    0.06598      0.99956     1.92124    0.01322     2.93402
      N    6   -0.29120      0.99968     2.78121    0.01031     3.79120
      C    7    0.30805      0.99961     1.67477    0.01758     2.69195
      N    8   -0.29663      0.99964     2.78805    0.00894     3.79663
      C    9    0.23601      0.99950     1.75056    0.01393     2.76399
      N   10   -0.29329      0.99965     2.78353    0.01011     3.79329
      C   11    0.07725      0.99954     1.90740    0.01581     2.92275
      N   12   -0.34124      0.99974     2.83031    0.01119     3.84124
      C   13   -0.17865      0.99965     2.17061    0.00839     3.17865
      N   14   -0.30507      0.99967     2.79494    0.01047     3.80507
      C   15   -0.17887      0.99965     2.17074    0.00848     3.17887
      H   16    0.10288      0.00000     0.39567    0.00145     0.39712
      H   17    0.10222      0.00000     0.39672    0.00106     0.39778
      H   18    0.10586      0.00000     0.39194    0.00220     0.39414
      H   19    0.09693      0.00000     0.40148    0.00159     0.40307
      H   20    0.08542      0.00000     0.41297    0.00161     0.41458
      H   21    0.19580      0.00000     0.30106    0.00314     0.30420
      H   22    0.09498      0.00000     0.40265    0.00237     0.40502
      H   23    0.17551      0.00000     0.32205    0.00244     0.32449
      H   24    0.08168      0.00000     0.41625    0.00207     0.41832
      H   25    0.09555      0.00000     0.40328    0.00117     0.40445
      H   26    0.09507      0.00000     0.40265    0.00228     0.40493
      H   27    0.19340      0.00000     0.30371    0.00289     0.30660
      H   28    0.09557      0.00000     0.40312    0.00131     0.40443
      H   29    0.09096      0.00000     0.40755    0.00149     0.40904
      H   30    0.10150      0.00000     0.39694    0.00156     0.39850
 =======================================================================
   * Total *    0.00000     14.99394    39.81609    0.18997    55.00000

 Normal termination of Gaussian 16 at Thu Dec 10 17:04:23 2020.
