 Gaussian 16, Revision A.03,

 -----------------------------------------------------------
 # opt freq B3LYP/6-31G(d) empiricaldispersion=gd3bj scf=xqc
 -----------------------------------------------------------

 ------------------------------
 CID_57098218_JID_3135_neutraal
 ------------------------------
 Symbolic Z-matrix:
 Charge =  0 Multiplicity = 1

 SCF Done:  E(RB3LYP) =  -653.520512640     A.U. after   14 cycles
 SCF Done:  E(RB3LYP) =  -653.525265680     A.U. after   12 cycles
 SCF Done:  E(RB3LYP) =  -653.525424849     A.U. after   12 cycles
 SCF Done:  E(RB3LYP) =  -653.525324011     A.U. after   12 cycles
 SCF Done:  E(RB3LYP) =  -653.526039068     A.U. after   11 cycles
 SCF Done:  E(RB3LYP) =  -653.526112384     A.U. after   10 cycles
 SCF Done:  E(RB3LYP) =  -653.526121141     A.U. after   10 cycles
 SCF Done:  E(RB3LYP) =  -653.526129491     A.U. after    9 cycles
 SCF Done:  E(RB3LYP) =  -653.526130374     A.U. after    8 cycles
 SCF Done:  E(RB3LYP) =  -653.526130608     A.U. after    8 cycles
 SCF Done:  E(RB3LYP) =  -653.526130802     A.U. after    7 cycles
 SCF Done:  E(RB3LYP) =  -653.526130843     A.U. after    7 cycles
 Optimization completed.
    -- Stationary point found.

 1\1\GINC-NODE202\FOpt\RB3LYP\6-31G(d)\C9H16O4\VSC10255\09-Dec-2020\0\\
 # opt freq B3LYP/6-31G(d) empiricaldispersion=gd3bj scf=xqc\\CID_57098
 218_JID_3135_neutraal\\0,1\C,1.0944780921,-0.2461221382,0.0073875926\C
 ,0.4937712006,0.0084376514,-1.3649408452\O,0.9940151451,-0.885569585,-
 2.344448066\C,2.1576726801,-0.5679650529,-2.9723810813\C,2.9871023743,
 0.4544713663,-2.7444299418\O,-0.9278638308,-0.0815615145,-1.4007019246
 \C,-1.5227010651,-1.2613221126,-1.0927136474\O,-0.9648815262,-2.264882
 0738,-0.7102729916\O,-2.8286614486,-1.076897448,-1.2917112742\C,-3.779

 Normal termination of Gaussian 16 at Wed Dec  9 22:26:38 2020.

 --------------------------------------------------------------------
 #N Geom=AllCheck Guess=TCheck SCRF=Check GenChk RB3LYP/6-31G(d) Freq
 --------------------------------------------------------------------

 Structure from the checkpoint file:  "JID_3135.chk"
 ------------------------------
 CID_57098218_JID_3135_neutraal
 ------------------------------
 Charge =  0 Multiplicity = 1

 SCF Done:  E(RB3LYP) =  -653.526130843     A.U. after    1 cycles

  Exact polarizability: 142.068   0.144  92.653  -4.022  -4.884  86.590
 Approx polarizability: 171.180   5.562 126.033  -9.699  -8.525 138.531

                      1                      2                      3
                      A                      A                      A
 Frequencies --     34.2309                44.8920                76.6728
 Red. masses --      4.3719                 3.2012                 4.4165
 Frc consts  --      0.0030                 0.0038                 0.0153
 IR Inten    --      1.2159                 0.3605                 0.9389

                      4                      5                      6
                      A                      A                      A
 Frequencies --    100.8577               125.7876               140.7549
 Red. masses --      5.2323                 3.8988                 3.7962
 Frc consts  --      0.0314                 0.0363                 0.0443
 IR Inten    --      0.3960                 0.2576                 0.5299

                      7                      8                      9
                      A                      A                      A
 Frequencies --    175.3622               206.5704               208.6206
 Red. masses --      1.9211                 1.1471                 1.2347
 Frc consts  --      0.0348                 0.0288                 0.0317
 IR Inten    --      2.4102                 0.4152                 0.9695

                     10                     11                     12
                      A                      A                      A
 Frequencies --    229.2899               251.4689               255.4335
 Red. masses --      3.3350                 1.4130                 1.4682
 Frc consts  --      0.1033                 0.0526                 0.0564
 IR Inten    --      0.2117                 1.9394                 2.6034

                     13                     14                     15
                      A                      A                      A
 Frequencies --    272.6429               292.8424               335.8698
 Red. masses --      1.0729                 3.3313                 3.7328
 Frc consts  --      0.0470                 0.1683                 0.2481
 IR Inten    --      0.0533                 3.3320                14.4824

                     16                     17                     18
                      A                      A                      A
 Frequencies --    352.1750               397.4146               429.0524
 Red. masses --      2.5085                 2.9579                 3.1337
 Frc consts  --      0.1833                 0.2752                 0.3399
 IR Inten    --      1.4055                 0.9060                 1.2428

                     19                     20                     21
                      A                      A                      A
 Frequencies --    440.3939               463.5390               483.8843
 Red. masses --      3.5770                 3.0357                 2.9189
 Frc consts  --      0.4087                 0.3843                 0.4027
 IR Inten    --      8.1014                 1.8842                 6.2415

                     22                     23                     24
                      A                      A                      A
 Frequencies --    552.0975               632.8003               709.6521
 Red. masses --      2.6854                 2.8194                 1.5836
 Frc consts  --      0.4823                 0.6652                 0.4699
 IR Inten    --      2.6880                 1.2812                 0.3827

                     25                     26                     27
                      A                      A                      A
 Frequencies --    739.9948               779.7995               786.3114
 Red. masses --      7.9285                 6.3926                 4.7017
 Frc consts  --      2.5580                 2.2903                 1.7128
 IR Inten    --      4.3199                25.1345                 8.5550

                     28                     29                     30
                      A                      A                      A
 Frequencies --    824.9809               854.6725               878.3335
 Red. masses --      1.3630                 2.3331                 3.3479
 Frc consts  --      0.5466                 1.0041                 1.5218
 IR Inten    --     58.1250                 5.7644                85.8317

                     31                     32                     33
                      A                      A                      A
 Frequencies --    935.2966               938.4343               940.6091
 Red. masses --      3.9373                 1.6311                 1.6686
 Frc consts  --      2.0293                 0.8463                 0.8698
 IR Inten    --     28.4389                 0.1580                 3.4388

                     34                     35                     36
                      A                      A                      A
 Frequencies --    984.1292               999.4445              1011.0233
 Red. masses --      1.1980                 1.1442                 1.9534
 Frc consts  --      0.6836                 0.6734                 1.1764
 IR Inten    --      0.2028                11.3128                66.5715

                     37                     38                     39
                      A                      A                      A
 Frequencies --   1036.9367              1067.4215              1076.5577
 Red. masses --      3.1470                 1.4050                 1.5216
 Frc consts  --      1.9936                 0.9432                 1.0390
 IR Inten    --     13.1317                 0.3541                 5.3198

                     40                     41                     42
                      A                      A                      A
 Frequencies --   1120.7835              1158.3940              1183.0748
 Red. masses --      2.0912                 2.8015                 2.7868
 Frc consts  --      1.5477                 2.2149                 2.2981
 IR Inten    --     93.5767               217.3785               882.5266

                     43                     44                     45
                      A                      A                      A
 Frequencies --   1229.6587              1256.2503              1288.3553
 Red. masses --      2.6794                 3.8822                 2.7008
 Frc consts  --      2.3870                 3.6098                 2.6413
 IR Inten    --     44.7166               114.4574                16.1862

                     46                     47                     48
                      A                      A                      A
 Frequencies --   1297.5582              1322.0686              1376.9456
 Red. masses --      3.0854                 4.0423                 1.2627
 Frc consts  --      3.0607                 4.1628                 1.4106
 IR Inten    --    158.9234               495.4723                28.8520

                     49                     50                     51
                      A                      A                      A
 Frequencies --   1404.2636              1425.3976              1428.4450
 Red. masses --      1.1904                 1.2818                 1.2820
 Frc consts  --      1.3831                 1.5344                 1.5412
 IR Inten    --      9.2790                16.9523                18.6601

                     52                     53                     54
                      A                      A                      A
 Frequencies --   1435.3105              1448.3362              1454.2698
 Red. masses --      1.3011                 1.2987                 1.2358
 Frc consts  --      1.5793                 1.6051                 1.5398
 IR Inten    --     47.0502                 8.8777                18.9253

                     55                     56                     57
                      A                      A                      A
 Frequencies --   1474.6310              1500.2972              1514.9507
 Red. masses --      1.1908                 1.0465                 1.0452
 Frc consts  --      1.5257                 1.3878                 1.4133
 IR Inten    --     10.2218                 0.4880                 6.0174

                     58                     59                     60
                      A                      A                      A
 Frequencies --   1519.7126              1520.5304              1526.0236
 Red. masses --      1.0466                 1.0518                 1.0660
 Frc consts  --      1.4241                 1.4328                 1.4626
 IR Inten    --      0.8628                 0.5583                11.4930

                     61                     62                     63
                      A                      A                      A
 Frequencies --   1533.9958              1534.9019              1556.8339
 Red. masses --      1.0547                 1.0533                 1.0555
 Frc consts  --      1.4623                 1.4621                 1.5072
 IR Inten    --      6.0763                 1.9929                13.5346

                     64                     65                     66
                      A                      A                      A
 Frequencies --   1713.0000              1825.9356              3060.9287
 Red. masses --      4.2708                11.2740                 1.0356
 Frc consts  --      7.3838                22.1462                 5.7167
 IR Inten    --    149.4337               237.8141                 7.9613

                     67                     68                     69
                      A                      A                      A
 Frequencies --   3062.0257              3069.2542              3078.1088
 Red. masses --      1.0379                 1.0380                 1.0411
 Frc consts  --      5.7333                 5.7609                 5.8115
 IR Inten    --     21.5491                18.8036                 9.3321

                     70                     71                     72
                      A                      A                      A
 Frequencies --   3089.4903              3124.8683              3126.8854
 Red. masses --      1.0843                 1.1026                 1.1025
 Frc consts  --      6.0978                 6.3436                 6.3509
 IR Inten    --     23.8389                 7.4871                15.0093

                     73                     74                     75
                      A                      A                      A
 Frequencies --   3139.3350              3140.1951              3144.7904
 Red. masses --      1.1032                 1.1027                 1.1021
 Frc consts  --      6.4059                 6.4068                 6.4216
 IR Inten    --     30.2490                40.3607                18.2433

                     76                     77                     78
                      A                      A                      A
 Frequencies --   3171.6198              3174.7879              3196.8040
 Red. masses --      1.1001                 1.0995                 1.0862
 Frc consts  --      6.5201                 6.5296                 6.5400
 IR Inten    --      1.1304                13.1600                 1.4849

                     79                     80                     81
                      A                      A                      A
 Frequencies --   3197.7303              3216.1699              3277.9061
 Red. masses --      1.0717                 1.0952                 1.1161
 Frc consts  --      6.4567                 6.6746                 7.0653
 IR Inten    --      5.4324                 8.8500                14.2683

 - Thermochemistry -
 -------------------
 Temperature   298.150 Kelvin.  Pressure   1.00000 Atm.
 Atom     1 has atomic number  6 and mass  12.00000

 Molecular mass:   188.10486 amu.
 Principal axes and moments of inertia in atomic units:
                           1         2         3
     Eigenvalues --   898.073485066.142335213.32159
           X            0.99997   0.00761  -0.00252
           Y           -0.00763   0.99993  -0.00896
           Z            0.00245   0.00897   0.99996
 This molecule is an asymmetric top.
 Rotational symmetry number  1.
 Warning -- assumption of classical behavior for rotation
           may cause significant error
 Rotational temperatures (Kelvin)      0.09644     0.01710     0.01661
 Rotational constants (GHZ):           2.00957     0.35624     0.34618
 Zero-point vibrational energy     648298.7 (Joules/Mol)
                                  154.94710 (Kcal/Mol)
 Warning -- explicit consideration of  22 degrees of freedom as
           vibrations may cause significant error
 Vibrational temperatures:     49.25    64.59   110.32   145.11   180.98
          (Kelvin)            202.51   252.31   297.21   300.16   329.90
                              361.81   367.51   392.27   421.33   483.24
                              506.70   571.79   617.31   633.63   666.93
                              696.20   794.35   910.46  1021.03  1064.69
                             1121.96  1131.33  1186.96  1229.68  1263.73
                             1345.68  1350.20  1353.33  1415.94  1437.98
                             1454.64  1491.92  1535.78  1548.93  1612.56
                             1666.67  1702.18  1769.20  1807.46  1853.66
                             1866.90  1902.16  1981.12  2020.42  2050.83
                             2055.21  2065.09  2083.83  2092.37  2121.67
                             2158.59  2179.68  2186.53  2187.70  2195.61
                             2207.08  2208.38  2239.94  2464.62  2627.11
                             4403.99  4405.57  4415.97  4428.71  4445.09
                             4495.99  4498.89  4516.80  4518.04  4524.65
                             4563.25  4567.81  4599.49  4600.82  4627.35
                             4716.18

 Zero-point correction=                           0.246924 (Hartree/Particle)
 Thermal correction to Energy=                    0.261934
 Thermal correction to Enthalpy=                  0.262879
 Thermal correction to Gibbs Free Energy=         0.204853
 Sum of electronic and zero-point Energies=           -653.279207
 Sum of electronic and thermal Energies=              -653.264197
 Sum of electronic and thermal Enthalpies=            -653.263252
 Sum of electronic and thermal Free Energies=         -653.321278

                     E (Thermal)             CV                S
                      KCal/Mol        Cal/Mol-Kelvin    Cal/Mol-Kelvin
 Total                  164.366             55.031            122.126
 Electronic               0.000              0.000              0.000
 Translational            0.889              2.981             41.601
 Rotational               0.889              2.981             31.540
 Vibrational            162.589             49.070             48.985
 Vibration     1          0.594              1.983              5.568
 Vibration     2          0.595              1.979              5.031
 Vibration     3          0.599              1.965              3.974
 Vibration     4          0.604              1.948              3.438
 Vibration     5          0.611              1.927              3.009
 Vibration     6          0.615              1.913              2.794
 Vibration     7          0.627              1.873              2.377
 Vibration     8          0.641              1.831              2.074
 Vibration     9          0.642              1.828              2.056
 Vibration    10          0.652              1.796              1.884
 Vibration    11          0.663              1.760              1.720
 Vibration    12          0.666              1.754              1.693
 Vibration    13          0.676              1.724              1.579
 Vibration    14          0.688              1.687              1.457
 Vibration    15          0.717              1.604              1.232
 Vibration    16          0.729              1.571              1.156
 Vibration    17          0.764              1.476              0.972
 Vibration    18          0.790              1.407              0.862
 Vibration    19          0.800              1.382              0.825
 Vibration    20          0.821              1.331              0.756
 Vibration    21          0.840              1.286              0.700
 Vibration    22          0.907              1.135              0.540

 Optimization completed.
    -- Stationary point found.

 1\1\GINC-NODE202\Freq\RB3LYP\6-31G(d)\C9H16O4\VSC10255\09-Dec-2020\0\\
 #N Geom=AllCheck Guess=TCheck SCRF=Check GenChk RB3LYP/6-31G(d) Freq\\
 CID_57098218_JID_3135_neutraal\\0,1\C,1.0944780921,-0.2461221382,0.007
 3875926\C,0.4937712006,0.0084376514,-1.3649408452\O,0.9940151451,-0.88
 5569585,-2.344448066\C,2.1576726801,-0.5679650529,-2.9723810813\C,2.98
 71023743,0.4544713663,-2.7444299418\O,-0.9278638308,-0.0815615145,-1.4
 007019246\C,-1.5227010651,-1.2613221126,-1.0927136474\O,-0.9648815262,
 -2.2648820738,-0.7102729916\O,-2.8286614486,-1.076897448,-1.2917112742

 Normal termination of Gaussian 16 at Wed Dec  9 22:33:08 2020.

 ----------------------------------------------------------------------
 # B3LYP/6-311++G(d,p) empiricaldispersion=gd3bj scf=xqc pop=npa geom=c
 heck
 ----------------------------------------------------------------------

 --------------------------------------
 CID_57098218_JID_3135_Energie_neutraal
 --------------------------------------
 Structure from the checkpoint file:  "JID_3135.chk"
 Charge =  0 Multiplicity = 1

 SCF Done:  E(RB3LYP) =  -653.720636300     A.U. after   14 cycles
 Normal termination of Gaussian 16 at Wed Dec  9 22:36:07 2020.

 ----------------------------------------------------------------------
 # B3LYP/6-311++G(d,p) empiricaldispersion=gd3bj scf=xqc pop=npa geom=c
 heck
 ----------------------------------------------------------------------

 ------------------------------------
 CID_57098218_JID_3135_Energie_kation
 ------------------------------------
 Structure from the checkpoint file:  "JID_3135.chk"
 Charge =  1 Multiplicity = 2

 SCF Done:  E(UB3LYP) =  -653.395269786     A.U. after   22 cycles
 Normal termination of Gaussian 16 at Wed Dec  9 22:43:00 2020.
 Gaussian 16:  ES64L-G16RevA.03 25-Dec-2016

 -----------------------------------
 CID_57098218_JID_3135_Energie_anion
 -----------------------------------
 Structure from the checkpoint file:  "JID_3135.chk"
 Charge = -1 Multiplicity = 2

                         Standard orientation:
 ---------------------------------------------------------------------
 Center     Atomic      Atomic             Coordinates (Angstroms)
 Number     Number       Type             X           Y           Z
 ---------------------------------------------------------------------
      1          6           0        2.190678    1.745878    0.255931
      2          6           0        1.959832    0.445001   -0.494645
      3          8           0        2.289981   -0.691204    0.285719
      4          6           0        3.582733   -1.113083    0.294810
      5          6           0        4.656296   -0.553815   -0.270850
      6          8           0        0.620906    0.268163   -0.948991
      7          6           0       -0.382113    0.201575   -0.037925
      8          8           0       -0.272487    0.349403    1.158188
      9          8           0       -1.492793   -0.049653   -0.732489
     10          6           0       -2.788384   -0.177323   -0.038819
     11          6           0       -2.743265   -1.359649    0.929990
     12          6           0       -3.136655    1.138343    0.658751
     13          6           0       -3.749489   -0.453762   -1.193648
     14          1           0        1.630793    1.746102    1.190188
     15          1           0        1.875028    2.590358   -0.364746
     16          1           0        3.256799    1.851876    0.474863
     17          1           0        2.532648    0.416530   -1.426546
     18          1           0        3.650568   -2.035563    0.863568
     19          1           0        5.613705   -1.051295   -0.171575
     20          1           0        4.638874    0.375445   -0.827691
     21          1           0       -2.045787   -1.173527    1.747610
     22          1           0       -3.741948   -1.524553    1.348450
     23          1           0       -2.439219   -2.269547    0.402121
     24          1           0       -3.104702    1.966436   -0.057227
     25          1           0       -4.152281    1.076885    1.064063
     26          1           0       -2.444922    1.346743    1.475910
     27          1           0       -3.740126    0.374288   -1.909003
     28          1           0       -3.464236   -1.369451   -1.720381
     29          1           0       -4.767857   -0.573392   -0.810578
 ---------------------------------------------------------------------

 SCF Done:  E(UB3LYP) =  -653.704482466     A.U. after   33 cycles
 SCF Done:  E(UB3LYP) =  -653.704482466     a.u. after    1 cycles

 The electronic state is 2-A.
 Alpha  occ. eigenvalues --  -19.08049 -19.07299 -19.07169 -19.01747 -10.25608
 Alpha  occ. eigenvalues --  -10.20473 -10.15286 -10.14601 -10.07650 -10.07084
 Alpha  occ. eigenvalues --  -10.06764 -10.06586 -10.06471  -1.05526  -0.99991
 Alpha  occ. eigenvalues --   -0.95346  -0.93365  -0.72802  -0.69248  -0.66158
 Alpha  occ. eigenvalues --   -0.60390  -0.60263  -0.59574  -0.54877  -0.50795
 Alpha  occ. eigenvalues --   -0.44576  -0.43238  -0.42070  -0.40724  -0.39360
 Alpha  occ. eigenvalues --   -0.38191  -0.37307  -0.36480  -0.35125  -0.34010
 Alpha  occ. eigenvalues --   -0.32637  -0.31778  -0.30833  -0.29934  -0.29721
 Alpha  occ. eigenvalues --   -0.28573  -0.27753  -0.27181  -0.26668  -0.26427
 Alpha  occ. eigenvalues --   -0.26120  -0.24600  -0.22756  -0.21336  -0.19118
 Alpha  occ. eigenvalues --   -0.15365   0.04360
 Alpha virt. eigenvalues --    0.05652   0.06868   0.08194   0.08308   0.08422
 Alpha virt. eigenvalues --    0.08962   0.09843   0.10208   0.10422   0.10828
 Alpha virt. eigenvalues --    0.11458   0.11608   0.12216   0.12562   0.13077

  Beta  occ. eigenvalues --  -19.08046 -19.07300 -19.07162 -19.01742 -10.25606
  Beta  occ. eigenvalues --  -10.20462 -10.15285 -10.14592 -10.07624 -10.07048
  Beta  occ. eigenvalues --  -10.06728 -10.06559 -10.06436  -1.05517  -0.99985
  Beta  occ. eigenvalues --   -0.95338  -0.93357  -0.72783  -0.69221  -0.66124
  Beta  occ. eigenvalues --   -0.60339  -0.60208  -0.59534  -0.54841  -0.50759
  Beta  occ. eigenvalues --   -0.44545  -0.43188  -0.42031  -0.40695  -0.39340
  Beta  occ. eigenvalues --   -0.38146  -0.37274  -0.36445  -0.35100  -0.33987
  Beta  occ. eigenvalues --   -0.32605  -0.31752  -0.30804  -0.29887  -0.29685
  Beta  occ. eigenvalues --   -0.28546  -0.27721  -0.27152  -0.26644  -0.26406
  Beta  occ. eigenvalues --   -0.26094  -0.24576  -0.22744  -0.21321  -0.19107
  Beta  occ. eigenvalues --   -0.15338
  Beta virt. eigenvalues --    0.06472   0.06931   0.07578   0.08541   0.08951
  Beta virt. eigenvalues --    0.09033   0.09277   0.10275   0.10419   0.10811
  Beta virt. eigenvalues --    0.11222   0.11672   0.11737   0.12412   0.12988

 Mulliken charges and spin densities:
               1          2
     1  C    0.695018  -0.925722
     2  C   -0.304995  -0.255578
     3  O   -0.017801   0.000282
     4  C   -0.494051   0.551215
     5  C    1.048689  -1.437927
     6  O    0.017725  -0.018986
     7  C    0.358223  -0.369341
     8  O   -0.193280   0.000651
     9  O   -0.009540   0.015670
    10  C   -1.867309   1.804529
    11  C    0.961878  -1.392308
    12  C    0.836361  -1.261688
    13  C    0.257775  -0.603293
    14  H    0.100583   0.091328
    15  H   -0.151150   0.299908
    16  H    0.043129   0.110827
    17  H   -0.071253   0.267210
    18  H   -0.267137   0.443310
    19  H   -0.471852   0.622276
    20  H   -0.271909   0.407754
    21  H    0.076753   0.103210
    22  H   -0.269360   0.442140
    23  H    0.017577   0.123516
    24  H   -0.030274   0.173150
    25  H   -0.458737   0.637431
    26  H    0.014369   0.153806
    27  H   -0.194171   0.349902
    28  H   -0.105163   0.257335
    29  H   -0.250100   0.409394
 Sum of Mulliken charges =  -1.00000   1.00000

 Dipole moment (field-independent basis, Debye):
    X=              0.9364    Y=              0.1223    Z=              0.0228  Tot=              0.9446
 Quadrupole moment (field-independent basis, Debye-Ang):
   XX=           -194.0570   YY=           -112.8052   ZZ=           -111.3925
   XY=              2.8455   XZ=              4.2501   YZ=              1.0550

 Summary of Natural Population Analysis:

                                       Natural Population
                Natural  -----------------------------------------------
    Atom  No    Charge         Core      Valence    Rydberg      Total
 -----------------------------------------------------------------------
      C    1   -0.31404      0.99963     2.30880    0.00561     3.31404
      C    2    0.22221      0.99955     1.76036    0.01788     2.77779
      O    3   -0.27740      0.99985     3.26765    0.00990     4.27740
      C    4    0.08801      0.99947     1.89762    0.01490     2.91199
      C    5   -0.26365      0.99959     2.25638    0.00767     3.26365
      O    6   -0.27966      0.99985     3.27178    0.00803     4.27966
      C    7    0.52310      0.99971     1.44909    0.02810     2.47690
      O    8   -0.32101      0.99986     3.31623    0.00492     4.32101
      O    9   -0.28541      0.99984     3.27600    0.00957     4.28541
      C   10    0.13435      0.99954     1.85192    0.01420     2.86565
      C   11   -0.30252      0.99960     2.29621    0.00672     3.30252
      C   12   -0.30256      0.99960     2.29621    0.00675     3.30256
      C   13   -0.28959      0.99960     2.28255    0.00743     3.28959
      H   14    0.11818      0.00000     0.38075    0.00107     0.38182
      H   15    0.10566      0.00000     0.39320    0.00114     0.39434
      H   16    0.10751      0.00000     0.39139    0.00111     0.39249
      H   17    0.08736      0.00000     0.41082    0.00181     0.41264
      H   18    0.09021      0.00000     0.40878    0.00101     0.40979
      H   19    0.10531      0.00000     0.39323    0.00146     0.39469
      H   20    0.09663      0.00000     0.40187    0.00149     0.40337
      H   21    0.11324      0.00000     0.38572    0.00104     0.38676
      H   22    0.10616      0.00000     0.39263    0.00120     0.39384
      H   23    0.10230      0.00000     0.39668    0.00102     0.39770
      H   24    0.10310      0.00000     0.39579    0.00111     0.39690
      H   25    0.10681      0.00000     0.39161    0.00158     0.39319
      H   26    0.11251      0.00000     0.38643    0.00106     0.38749
      H   27    0.10433      0.00000     0.39451    0.00117     0.39567
      H   28    0.10335      0.00000     0.39557    0.00109     0.39665
      H   29    0.10549      0.00000     0.39280    0.00171     0.39451
 =======================================================================
   * Total *    0.00000     12.99569    37.84255    0.16175    51.00000

 Normal termination of Gaussian 16 at Wed Dec  9 22:53:54 2020.
