 Gaussian 16, Revision A.03,

 -----------------------------------------------------------
 # opt freq B3LYP/6-31G(d) empiricaldispersion=gd3bj scf=xqc
 -----------------------------------------------------------

 ------------------------------
 CID_148179644_JID_122_neutraal
 ------------------------------
 Symbolic Z-matrix:
 Charge =  0 Multiplicity = 1

 SCF Done:  E(RB3LYP) =  -445.043017199     A.U. after   13 cycles
 SCF Done:  E(RB3LYP) =  -445.045906018     A.U. after   11 cycles
 SCF Done:  E(RB3LYP) =  -445.044983013     A.U. after   12 cycles
 SCF Done:  E(RB3LYP) =  -445.046442588     A.U. after   11 cycles
 SCF Done:  E(RB3LYP) =  -445.047142721     A.U. after   11 cycles
 SCF Done:  E(RB3LYP) =  -445.047722837     A.U. after   10 cycles
 SCF Done:  E(RB3LYP) =  -445.047892803     A.U. after   10 cycles
 SCF Done:  E(RB3LYP) =  -445.047934389     A.U. after    9 cycles
 SCF Done:  E(RB3LYP) =  -445.047953775     A.U. after    9 cycles
 SCF Done:  E(RB3LYP) =  -445.047955286     A.U. after    8 cycles
 SCF Done:  E(RB3LYP) =  -445.047955904     A.U. after    7 cycles
 SCF Done:  E(RB3LYP) =  -445.047956047     A.U. after    6 cycles
 SCF Done:  E(RB3LYP) =  -445.047956087     A.U. after    6 cycles
 Optimization completed.
    -- Stationary point found.
 Normal termination of Gaussian 16 at Tue Dec  8 10:19:09 2020.

 --------------------------------------------------------------------
 #N Geom=AllCheck Guess=TCheck SCRF=Check GenChk RB3LYP/6-31G(d) Freq
 --------------------------------------------------------------------

 Structure from the checkpoint file:  "JID_122.chk"
 ------------------------------
 CID_148179644_JID_122_neutraal
 ------------------------------
 Charge =  0 Multiplicity = 1

 SCF Done:  E(RB3LYP) =  -445.047956087     A.U. after    1 cycles

  Exact polarizability: 102.885  -1.756  93.161  -2.769   0.352  82.471
 Approx polarizability: 129.589  -2.033 127.729  -3.512   2.365 120.279

                      1                      2                      3
                      A                      A                      A
 Frequencies --     53.3020                57.7389               102.7372
 Red. masses --      3.1031                 2.6236                 2.2074
 Frc consts  --      0.0052                 0.0052                 0.0137
 IR Inten    --      0.1323                 0.5108                 0.0211

                      4                      5                      6
                      A                      A                      A
 Frequencies --    125.9273               145.9433               222.7625
 Red. masses --      2.9615                 2.5286                 1.1946
 Frc consts  --      0.0277                 0.0317                 0.0349
 IR Inten    --      1.8494                 0.7191                 0.2693

                      7                      8                      9
                      A                      A                      A
 Frequencies --    239.2465               271.8026               275.3754
 Red. masses --      2.4428                 1.2854                 2.2257
 Frc consts  --      0.0824                 0.0559                 0.0994
 IR Inten    --      2.4749                 1.0565                 3.3346

                     10                     11                     12
                      A                      A                      A
 Frequencies --    321.1738               335.7215               353.9207
 Red. masses --      1.8541                 2.1636                 2.3614
 Frc consts  --      0.1127                 0.1437                 0.1743
 IR Inten    --      1.8219                 0.5668                 0.6281

                     13                     14                     15
                      A                      A                      A
 Frequencies --    414.6749               441.1191               496.2325
 Red. masses --      2.8837                 2.6905                 2.4882
 Frc consts  --      0.2922                 0.3085                 0.3610
 IR Inten    --      4.2655                 4.4756                 0.4050

                     16                     17                     18
                      A                      A                      A
 Frequencies --    551.3644               683.3138               744.6567
 Red. masses --      2.2594                 3.6163                 1.5412
 Frc consts  --      0.4047                 0.9948                 0.5035
 IR Inten    --      1.6549                 5.5546                87.7230

                     19                     20                     21
                      A                      A                      A
 Frequencies --    795.5068               824.8350               841.1978
 Red. masses --      1.0366                 1.1401                 2.1236
 Frc consts  --      0.3865                 0.4570                 0.8854
 IR Inten    --      0.9230                 2.9912                12.4542

                     22                     23                     24
                      A                      A                      A
 Frequencies --    854.8187               873.0600               931.7051
 Red. masses --      2.1184                 1.6487                 2.0359
 Frc consts  --      0.9120                 0.7404                 1.0413
 IR Inten    --      6.0850                 3.2572                 9.0430

                     25                     26                     27
                      A                      A                      A
 Frequencies --    941.0853               953.9069               978.6809
 Red. masses --      1.7516                 1.6287                 1.7635
 Frc consts  --      0.9140                 0.8732                 0.9952
 IR Inten    --      1.7271                 6.0466                18.5619

                     28                     29                     30
                      A                      A                      A
 Frequencies --   1043.1791              1060.4063              1066.2228
 Red. masses --      1.3097                 2.5490                 1.9511
 Frc consts  --      0.8397                 1.6888                 1.3068
 IR Inten    --      8.5532                 0.7787                 1.8821

                     31                     32                     33
                      A                      A                      A
 Frequencies --   1082.7905              1084.3214              1120.9978
 Red. masses --      1.7075                 1.7250                 3.4587
 Frc consts  --      1.1795                 1.1949                 2.5608
 IR Inten    --     19.5344                16.9264                84.6611

                     34                     35                     36
                      A                      A                      A
 Frequencies --   1139.7248              1152.3299              1184.7799
 Red. masses --      1.8253                 1.9299                 3.1046
 Frc consts  --      1.3970                 1.5098                 2.5676
 IR Inten    --     12.3865                10.1291                28.4867

                     37                     38                     39
                      A                      A                      A
 Frequencies --   1191.1242              1204.8538              1287.4744
 Red. masses --      1.6589                 1.2956                 1.3458
 Frc consts  --      1.3867                 1.1082                 1.3143
 IR Inten    --      6.2194                 1.1497                 9.6028

                     40                     41                     42
                      A                      A                      A
 Frequencies --   1294.4855              1322.7482              1348.5019
 Red. masses --      1.9866                 1.3086                 1.3021
 Frc consts  --      1.9613                 1.3490                 1.3951
 IR Inten    --     63.5536                27.6700                20.1765

                     43                     44                     45
                      A                      A                      A
 Frequencies --   1361.1195              1398.3546              1415.5018
 Red. masses --      1.9098                 1.2704                 1.3100
 Frc consts  --      2.0847                 1.4636                 1.5465
 IR Inten    --      6.5587                23.6219                 1.7393

                     46                     47                     48
                      A                      A                      A
 Frequencies --   1429.4105              1443.0367              1443.6876
 Red. masses --      1.2860                 1.3225                 1.3590
 Frc consts  --      1.5481                 1.6226                 1.6688
 IR Inten    --      6.7527                 8.6358                17.6111

                     49                     50                     51
                      A                      A                      A
 Frequencies --   1477.6172              1495.1679              1509.2544
 Red. masses --      1.0921                 1.0932                 1.1025
 Frc consts  --      1.4048                 1.4398                 1.4797
 IR Inten    --      1.1738                 5.5233                 3.6448

                     52                     53                     54
                      A                      A                      A
 Frequencies --   1512.9397              1519.7436              1524.6082
 Red. masses --      1.0885                 1.1360                 1.1770
 Frc consts  --      1.4679                 1.5458                 1.6119
 IR Inten    --      8.3284                 5.7429                 5.4405

                     55                     56                     57
                      A                      A                      A
 Frequencies --   1530.4023              1533.4407              1542.4055
 Red. masses --      1.0694                 1.1170                 1.1597
 Frc consts  --      1.4757                 1.5475                 1.6256
 IR Inten    --      7.4076                11.5588                11.8738

                     58                     59                     60
                      A                      A                      A
 Frequencies --   1556.9690              2930.0142              3031.4122
 Red. masses --      1.0902                 1.0736                 1.0625
 Frc consts  --      1.5570                 5.4305                 5.7528
 IR Inten    --      1.5953                74.4059                30.0509

                     61                     62                     63
                      A                      A                      A
 Frequencies --   3035.5250              3041.8811              3047.5998
 Red. masses --      1.0647                 1.0678                 1.0549
 Frc consts  --      5.7801                 5.8214                 5.7729
 IR Inten    --     30.3679                17.7148                46.2943

                     64                     65                     66
                      A                      A                      A
 Frequencies --   3055.4699              3080.5344              3094.3255
 Red. masses --      1.0365                 1.1011                 1.0997
 Frc consts  --      5.7014                 6.1567                 6.2039
 IR Inten    --     25.7506                48.4902                53.5953

                     67                     68                     69
                      A                      A                      A
 Frequencies --   3109.9173              3119.9210              3128.5456
 Red. masses --      1.0980                 1.1018                 1.1010
 Frc consts  --      6.2567                 6.3189                 6.3490
 IR Inten    --     54.2644                24.3793                18.6512

                     70                     71                     72
                      A                      A                      A
 Frequencies --   3134.0006              3140.0627              3153.5433
 Red. masses --      1.1033                 1.0555                 1.0562
 Frc consts  --      6.3846                 6.1319                 6.1885
 IR Inten    --     26.8798                14.5814                12.6436

                     73                     74                     75
                      A                      A                      A
 Frequencies --   3227.3947              3242.8879              3534.0662
 Red. masses --      1.1176                 1.1164                 1.0729
 Frc consts  --      6.8589                 6.9173                 7.8948
 IR Inten    --      1.5380                12.8091                 6.5367

 - Thermochemistry -
 -------------------
 Temperature   298.150 Kelvin.  Pressure   1.00000 Atm.
 Atom     1 has atomic number  6 and mass  12.00000

 Molecular mass:   143.13101 amu.
 Principal axes and moments of inertia in atomic units:
                           1         2         3
     Eigenvalues --   948.930462158.105302485.17202
           X            0.99997  -0.00043  -0.00770
           Y            0.00030   0.99985  -0.01703
           Z            0.00771   0.01703   0.99983
 This molecule is an asymmetric top.
 Rotational symmetry number  1.
 Warning -- assumption of classical behavior for rotation
           may cause significant error
 Rotational temperatures (Kelvin)      0.09128     0.04013     0.03485
 Rotational constants (GHZ):           1.90187     0.83626     0.72620
 Zero-point vibrational energy     647278.5 (Joules/Mol)
                                  154.70327 (Kcal/Mol)
 Warning -- explicit consideration of  16 degrees of freedom as
           vibrations may cause significant error
 Vibrational temperatures:     76.69    83.07   147.82   181.18   209.98
          (Kelvin)            320.51   344.22   391.06   396.20   462.10
                              483.03   509.21   596.62   634.67   713.97
                              793.29   983.14  1071.39  1144.56  1186.75
                             1210.30  1229.89  1256.14  1340.52  1354.01
                             1372.46  1408.10  1500.90  1525.69  1534.06
                             1557.89  1560.10  1612.87  1639.81  1657.95
                             1704.63  1713.76  1733.52  1852.39  1862.48
                             1903.14  1940.19  1958.35  2011.92  2036.59
                             2056.60  2076.21  2077.14  2125.96  2151.21
                             2171.48  2176.78  2186.57  2193.57  2201.91
                             2206.28  2219.18  2240.13  4215.64  4361.53
                             4367.44  4376.59  4384.82  4396.14  4432.20
                             4452.04  4474.48  4488.87  4501.28  4509.13
                             4517.85  4537.25  4643.50  4665.79  5084.73

 Zero-point correction=                           0.246535 (Hartree/Particle)
 Thermal correction to Energy=                    0.258252
 Thermal correction to Enthalpy=                  0.259196
 Thermal correction to Gibbs Free Energy=         0.209036
 Sum of electronic and zero-point Energies=           -444.801421
 Sum of electronic and thermal Energies=              -444.789704
 Sum of electronic and thermal Enthalpies=            -444.788760
 Sum of electronic and thermal Free Energies=         -444.838920

                     E (Thermal)             CV                S
                      KCal/Mol        Cal/Mol-Kelvin    Cal/Mol-Kelvin
 Total                  162.056             43.842            105.571
 Electronic               0.000              0.000              0.000
 Translational            0.889              2.981             40.787
 Rotational               0.889              2.981             30.010
 Vibrational            160.278             37.880             34.774
 Vibration     1          0.596              1.976              4.691
 Vibration     2          0.596              1.974              4.533
 Vibration     3          0.605              1.947              3.402
 Vibration     4          0.611              1.927              3.007
 Vibration     5          0.617              1.907              2.724
 Vibration     6          0.648              1.806              1.937
 Vibration     7          0.657              1.780              1.808
 Vibration     8          0.675              1.725              1.585
 Vibration     9          0.677              1.719              1.562
 Vibration    10          0.707              1.633              1.304
 Vibration    11          0.717              1.604              1.232
 Vibration    12          0.730              1.567              1.149
 Vibration    13          0.778              1.438              0.910
 Vibration    14          0.801              1.380              0.823
 Vibration    15          0.852              1.258              0.668
 Vibration    16          0.907              1.137              0.541

 Optimization completed.
    -- Stationary point found.
 Normal termination of Gaussian 16 at Tue Dec  8 10:24:24 2020.

 ----------------------------------------------------------------------
 # B3LYP/6-311++G(d,p) empiricaldispersion=gd3bj scf=xqc pop=npa geom=c
 heck
 ----------------------------------------------------------------------

 --------------------------------------
 CID_148179644_JID_122_Energie_neutraal
 --------------------------------------
 Structure from the checkpoint file:  "JID_122.chk"
 Charge =  0 Multiplicity = 1

 SCF Done:  E(RB3LYP) =  -445.179650347     A.U. after   13 cycles
 Normal termination of Gaussian 16 at Tue Dec  8 10:26:13 2020.

 ----------------------------------------------------------------------
 # B3LYP/6-311++G(d,p) empiricaldispersion=gd3bj scf=xqc pop=npa geom=c
 heck
 ----------------------------------------------------------------------

 ------------------------------------
 CID_148179644_JID_122_Energie_kation
 ------------------------------------
 Structure from the checkpoint file:  "JID_122.chk"
 Charge =  1 Multiplicity = 2

 SCF Done:  E(UB3LYP) =  -444.889405327     A.U. after   18 cycles
 Normal termination of Gaussian 16 at Tue Dec  8 10:29:28 2020.
 Gaussian 16:  ES64L-G16RevA.03 25-Dec-2016

 ----------------------------------------------------------------------
 # B3LYP/6-311++G(d,p) empiricaldispersion=gd3bj scf=xqc pop=npa geom=c
 heck
 ----------------------------------------------------------------------

 -----------------------------------
 CID_148179644_JID_122_Energie_anion
 -----------------------------------
 Structure from the checkpoint file:  "JID_122.chk"
 Charge = -1 Multiplicity = 2

                         Standard orientation:
 ---------------------------------------------------------------------
 Center     Atomic      Atomic             Coordinates (Angstroms)
 Number     Number       Type             X           Y           Z
 ---------------------------------------------------------------------
      1          6           0       -3.126043   -1.379398   -0.046436
      2          6           0       -2.485114   -0.032920    0.276793
      3          7           0       -1.521943    0.331892   -0.755466
      4          6           0       -0.816780    1.590108   -0.531863
      5          6           0        0.191691    1.659101    0.625209
      6          8           0        1.474880    1.100593    0.344059
      7          6           0        1.573969   -0.296496    0.197579
      8          6           0        1.511821   -0.852195   -1.212817
      9          6           0        2.838715   -0.702903   -0.492705
     10          6           0        1.061031   -1.124702    1.355945
     11          1           0       -3.590431   -1.353110   -1.037207
     12          1           0       -3.888393   -1.640170    0.695344
     13          1           0       -2.374477   -2.179482   -0.046549
     14          1           0       -3.256049    0.749315    0.303863
     15          1           0       -2.056473   -0.074991    1.296764
     16          1           0       -0.850854   -0.419988   -0.886442
     17          1           0       -0.289664    1.865658   -1.453855
     18          1           0       -1.578663    2.363567   -0.360805
     19          1           0        0.407972    2.710060    0.845166
     20          1           0       -0.233218    1.217271    1.537230
     21          1           0        1.116078   -1.853753   -1.367161
     22          1           0        1.305816   -0.152364   -2.016569
     23          1           0        3.489204    0.103053   -0.817493
     24          1           0        3.351256   -1.598136   -0.151959
     25          1           0        1.511448   -0.783123    2.294765
     26          1           0       -0.028045   -1.067855    1.457480
     27          1           0        1.323326   -2.177516    1.212981
 ---------------------------------------------------------------------

 SCF Done:  E(UB3LYP) =  -445.161753660     A.U. after   28 cycles

 The electronic state is 2-A.
 Alpha  occ. eigenvalues --  -19.02448 -14.19025 -10.13113 -10.11071 -10.09004
 Alpha  occ. eigenvalues --  -10.08569 -10.07093 -10.06899 -10.05913 -10.05353
 Alpha  occ. eigenvalues --   -0.93847  -0.80123  -0.75565  -0.65510  -0.61630
 Alpha  occ. eigenvalues --   -0.60678  -0.52991  -0.51256  -0.49689  -0.44874
 Alpha  occ. eigenvalues --   -0.40704  -0.38855  -0.38285  -0.36468  -0.34485
 Alpha  occ. eigenvalues --   -0.34066  -0.31911  -0.30931  -0.30206  -0.28592
 Alpha  occ. eigenvalues --   -0.27451  -0.27011  -0.26191  -0.24934  -0.24727
 Alpha  occ. eigenvalues --   -0.23226  -0.21429  -0.18265  -0.15775  -0.11446
 Alpha  occ. eigenvalues --    0.04834
 Alpha virt. eigenvalues --    0.06957   0.07478   0.08231   0.09250   0.09438
 Alpha virt. eigenvalues --    0.10233   0.10484   0.10818   0.11801   0.12484
 Alpha virt. eigenvalues --    0.12806   0.13444   0.14074   0.14843   0.15462

  Beta  occ. eigenvalues --  -19.02443 -14.19022 -10.13111 -10.11053 -10.08992
  Beta  occ. eigenvalues --  -10.08542 -10.07076 -10.06880 -10.05868 -10.05318
  Beta  occ. eigenvalues --   -0.93838  -0.80106  -0.75552  -0.65472  -0.61574
  Beta  occ. eigenvalues --   -0.60630  -0.52942  -0.51194  -0.49619  -0.44819
  Beta  occ. eigenvalues --   -0.40679  -0.38824  -0.38240  -0.36425  -0.34453
  Beta  occ. eigenvalues --   -0.34031  -0.31869  -0.30893  -0.30169  -0.28546
  Beta  occ. eigenvalues --   -0.27414  -0.26980  -0.26159  -0.24880  -0.24687
  Beta  occ. eigenvalues --   -0.23200  -0.21404  -0.18242  -0.15758  -0.11431
  Beta virt. eigenvalues --    0.07151   0.08048   0.08187   0.08720   0.09900
  Beta virt. eigenvalues --    0.10047   0.10549   0.10918   0.11278   0.12398
  Beta virt. eigenvalues --    0.12974   0.13313   0.13833   0.14446   0.15074

 Mulliken charges and spin densities:
               1          2
     1  C    1.348612  -1.835418
     2  C   -0.466445   0.203882
     3  N   -0.003582  -0.063297
     4  C   -0.483627   0.170236
     5  C    0.457172  -0.623792
     6  O   -0.054370   0.006701
     7  C   -3.230801   3.208954
     8  C    0.824808  -1.261541
     9  C    0.445961  -0.748388
    10  C    2.453656  -2.945512
    11  H   -0.002005   0.147678
    12  H   -0.389983   0.519771
    13  H   -0.431554   0.564138
    14  H   -0.553313   0.706098
    15  H   -0.024088   0.107249
    16  H    0.413018  -0.173603
    17  H   -0.013047   0.207222
    18  H   -0.188910   0.307338
    19  H   -0.312600   0.482308
    20  H   -0.108295   0.251134
    21  H   -0.186687   0.355746
    22  H    0.230998  -0.072171
    23  H    0.038996   0.102727
    24  H   -0.419750   0.572636
    25  H   -0.428127   0.609542
    26  H    0.558549  -0.428177
    27  H   -0.474587   0.628538
 Sum of Mulliken charges =  -1.00000   1.00000

 Dipole moment (field-independent basis, Debye):
    X=              1.8927    Y=              3.0867    Z=             -2.7879  Tot=              4.5698
 Quadrupole moment (field-independent basis, Debye-Ang):
   XX=           -125.8597   YY=           -113.4185   ZZ=            -98.5593
   XY=              3.6729   XZ=              0.0241   YZ=              2.0500

 Summary of Natural Population Analysis:

                                       Natural Population
                Natural  -----------------------------------------------
    Atom  No    Charge         Core      Valence    Rydberg      Total
 -----------------------------------------------------------------------
      C    1   -0.28730      0.99967     2.28180    0.00583     3.28730
      C    2   -0.08690      0.99964     2.07675    0.01051     3.08690
      N    3   -0.34622      0.99974     2.83502    0.01146     3.84622
      C    4   -0.10138      0.99962     2.09025    0.01151     3.10138
      C    5   -0.01916      0.99955     2.00743    0.01218     3.01916
      O    6   -0.30264      0.99987     3.29300    0.00977     4.30264
      C    7    0.12423      0.99947     1.85921    0.01709     2.87577
      C    8   -0.22100      0.99959     2.21192    0.00949     3.22100
      C    9   -0.19702      0.99958     2.18786    0.00958     3.19702
      C   10   -0.29803      0.99960     2.29189    0.00654     3.29803
      H   11    0.09813      0.00000     0.40064    0.00123     0.40187
      H   12    0.10085      0.00000     0.39791    0.00124     0.39915
      H   13    0.09649      0.00000     0.40182    0.00170     0.40351
      H   14    0.08915      0.00000     0.40913    0.00173     0.41085
      H   15    0.07714      0.00000     0.42069    0.00217     0.42286
      H   16    0.17651      0.00000     0.31854    0.00495     0.32349
      H   17    0.09404      0.00000     0.40483    0.00113     0.40596
      H   18    0.09453      0.00000     0.40407    0.00140     0.40547
      H   19    0.09027      0.00000     0.40832    0.00142     0.40973
      H   20    0.08319      0.00000     0.41521    0.00160     0.41681
      H   21    0.10565      0.00000     0.39296    0.00139     0.39435
      H   22    0.10601      0.00000     0.39293    0.00105     0.39399
      H   23    0.10566      0.00000     0.39319    0.00115     0.39434
      H   24    0.10428      0.00000     0.39438    0.00135     0.39572
      H   25    0.10415      0.00000     0.39448    0.00137     0.39585
      H   26    0.10133      0.00000     0.39655    0.00212     0.39867
      H   27    0.10804      0.00000     0.38961    0.00235     0.39196
 =======================================================================
   * Total *   -0.00000      9.99633    29.87038    0.13329    40.00000

 Normal termination of Gaussian 16 at Tue Dec  8 10:37:03 2020.
