 Gaussian 16, Revision A.03,

 -----------------------------------------------------------
 # opt freq B3LYP/6-31G(d) empiricaldispersion=gd3bj scf=xqc
 -----------------------------------------------------------

 -----------------------------
 CID_144213209_JID_42_neutraal
 -----------------------------
 Symbolic Z-matrix:
 Charge =  0 Multiplicity = 1

 SCF Done:  E(RB3LYP) =  -510.658885675     A.U. after   15 cycles
 SCF Done:  E(RB3LYP) =  -510.665310560     A.U. after   13 cycles
 SCF Done:  E(RB3LYP) =  -510.666294237     A.U. after   12 cycles
 SCF Done:  E(RB3LYP) =  -510.666047806     A.U. after   13 cycles
 SCF Done:  E(RB3LYP) =  -510.667745841     A.U. after   13 cycles
 SCF Done:  E(RB3LYP) =  -510.668139463     A.U. after   12 cycles
 SCF Done:  E(RB3LYP) =  -510.668196155     A.U. after   11 cycles
 SCF Done:  E(RB3LYP) =  -510.668216930     A.U. after   11 cycles
 SCF Done:  E(RB3LYP) =  -510.668220347     A.U. after    9 cycles
 SCF Done:  E(RB3LYP) =  -510.668220797     A.U. after    8 cycles
 SCF Done:  E(RB3LYP) =  -510.668220915     A.U. after    8 cycles
 Optimization completed.
    -- Stationary point found.
 Normal termination of Gaussian 16 at Tue Dec  8 10:14:56 2020.

 --------------------------------------------------------------------
 #N Geom=AllCheck Guess=TCheck SCRF=Check GenChk RB3LYP/6-31G(d) Freq
 --------------------------------------------------------------------

 Structure from the checkpoint file:  "JID_42.chk"
 -----------------------------
 CID_144213209_JID_42_neutraal
 -----------------------------
 Charge =  0 Multiplicity = 1

 SCF Done:  E(RB3LYP) =  -510.668220915     A.U. after    1 cycles

  Exact polarizability: 183.667 -11.965  82.608  -1.470  -0.724  37.076
 Approx polarizability: 312.183 -40.646 126.063  -3.025  -2.453  55.410

                      1                      2                      3
                      A                      A                      A
 Frequencies --     65.1353                79.8469                96.6842
 Red. masses --      5.6998                 4.4356                 4.8642
 Frc consts  --      0.0142                 0.0167                 0.0268
 IR Inten    --      0.0367                 0.1869                 0.4406

                      4                      5                      6
                      A                      A                      A
 Frequencies --    126.1286               252.6023               262.2082
 Red. masses --      5.1550                 4.1663                 3.3848
 Frc consts  --      0.0483                 0.1566                 0.1371
 IR Inten    --      1.7735                 2.6440                 2.2608

                      7                      8                      9
                      A                      A                      A
 Frequencies --    285.3897               305.8911               373.5865
 Red. masses --      3.7128                 1.1446                 3.5667
 Frc consts  --      0.1782                 0.0631                 0.2933
 IR Inten    --      5.2667                 8.0450                 8.0237

                     10                     11                     12
                      A                      A                      A
 Frequencies --    399.5885               410.0676               482.7124
 Red. masses --      1.2526                 1.1436                 3.8810
 Frc consts  --      0.1178                 0.1133                 0.5328
 IR Inten    --      8.8626               101.4013                15.3756

                     13                     14                     15
                      A                      A                      A
 Frequencies --    501.3881               514.4739               559.4074
 Red. masses --      2.0807                 3.2335                 2.3064
 Frc consts  --      0.3082                 0.5042                 0.4253
 IR Inten    --     44.7093                10.6535                55.4102

                     16                     17                     18
                      A                      A                      A
 Frequencies --    586.8141               595.9259               655.9247
 Red. masses --      1.4345                 2.5976                 3.8685
 Frc consts  --      0.2910                 0.5435                 0.9806
 IR Inten    --    105.2186                56.6817                80.2432

                     19                     20                     21
                      A                      A                      A
 Frequencies --    687.7411               731.4644               746.4579
 Red. masses --      1.3502                 1.9618                 5.7762
 Frc consts  --      0.3763                 0.6184                 1.8963
 IR Inten    --    738.2663               254.2287                42.8800

                     22                     23                     24
                      A                      A                      A
 Frequencies --    793.6625               828.7047               868.1475
 Red. masses --      1.4702                 1.5034                 2.9283
 Frc consts  --      0.5456                 0.6083                 1.3003
 IR Inten    --    214.1717                55.2432                28.0097

                     25                     26                     27
                      A                      A                      A
 Frequencies --    893.6756               961.5453              1100.5930
 Red. masses --      1.3578                 3.4209                 2.6011
 Frc consts  --      0.6389                 1.8635                 1.8564
 IR Inten    --     11.8370                24.1179                49.7610

                     28                     29                     30
                      A                      A                      A
 Frequencies --   1148.8297              1155.0728              1185.5156
 Red. masses --      1.6577                 1.4349                 1.7325
 Frc consts  --      1.2890                 1.1279                 1.4346
 IR Inten    --    103.6519                42.8388               354.5574

                     31                     32                     33
                      A                      A                      A
 Frequencies --   1236.4597              1260.8906              1333.4773
 Red. masses --      1.8920                 1.2859                 1.7222
 Frc consts  --      1.7042                 1.2046                 1.8042
 IR Inten    --     86.3086                 9.4132                 7.5952

                     34                     35                     36
                      A                      A                      A
 Frequencies --   1403.8769              1439.8000              1489.1404
 Red. masses --      2.2083                 3.1048                 2.6199
 Frc consts  --      2.5642                 3.7922                 3.4230
 IR Inten    --    122.5991               237.2053                42.4039

                     37                     38                     39
                      A                      A                      A
 Frequencies --   1644.5556              1667.8586              1671.5762
 Red. masses --      1.6765                 1.1946                 1.1680
 Frc consts  --      2.6715                 1.9579                 1.9229
 IR Inten    --    240.5128               156.8199               130.1701

                     40                     41                     42
                      A                      A                      A
 Frequencies --   1685.5429              1720.6859              1787.8561
 Red. masses --      4.9615                 2.3683                 7.2850
 Frc consts  --      8.3050                 4.1314                13.7197
 IR Inten    --    143.5847               587.6187               328.0506

                     43                     44                     45
                      A                      A                      A
 Frequencies --   3178.8874              3201.3121              3507.5024
 Red. masses --      1.0886                 1.0875                 1.0479
 Frc consts  --      6.4812                 6.5664                 7.5954
 IR Inten    --     12.4456                 6.8379                 8.2448

                     46                     47                     48
                      A                      A                      A
 Frequencies --   3523.5271              3533.6758              3605.5557
 Red. masses --      1.0499                 1.0504                 1.0961
 Frc consts  --      7.6795                 7.7275                 8.3958
 IR Inten    --      7.3214                 5.2555                34.8748

                     49                     50                     51
                      A                      A                      A
 Frequencies --   3641.8658              3653.5303              3710.0519
 Red. masses --      1.0954                 1.0947                 1.0642
 Frc consts  --      8.5602                 8.6097                 8.6308
 IR Inten    --     11.2531                 8.0743                83.1854

 - Thermochemistry -
 -------------------
 Temperature   298.150 Kelvin.  Pressure   1.00000 Atm.
 Atom     1 has atomic number  6 and mass  12.00000

 Molecular mass:   143.06948 amu.
 Principal axes and moments of inertia in atomic units:
                           1         2         3
     Eigenvalues --   587.791423076.233503608.33626
           X            1.00000  -0.00044  -0.00060
           Y            0.00045   0.99998   0.00609
           Z            0.00060  -0.00609   0.99998
 This molecule is an asymmetric top.
 Rotational symmetry number  1.
 Warning -- assumption of classical behavior for rotation
           may cause significant error
 Rotational temperatures (Kelvin)      0.14735     0.02816     0.02400
 Rotational constants (GHZ):           3.07038     0.58667     0.50016
 Zero-point vibrational energy     404055.6 (Joules/Mol)
                                   96.57160 (Kcal/Mol)
 Warning -- explicit consideration of  17 degrees of freedom as
           vibrations may cause significant error
 Vibrational temperatures:     93.72   114.88   139.11   181.47   363.44
          (Kelvin)            377.26   410.61   440.11   537.51   574.92
                              590.00   694.52   721.39   740.21   804.86
                              844.29   857.40   943.73   989.51  1052.41
                             1073.99  1141.90  1192.32  1249.07  1285.80
                             1383.45  1583.51  1652.91  1661.89  1705.69
                             1778.99  1814.14  1918.58  2019.87  2071.55
                             2142.54  2366.15  2399.68  2405.03  2425.12
                             2475.68  2572.33  4573.71  4605.97  5046.51
                             5069.57  5084.17  5187.59  5239.83  5256.62
                             5337.94

 Zero-point correction=                           0.153897 (Hartree/Particle)
 Thermal correction to Energy=                    0.164578
 Thermal correction to Enthalpy=                  0.165522
 Thermal correction to Gibbs Free Energy=         0.117635
 Sum of electronic and zero-point Energies=           -510.514324
 Sum of electronic and thermal Energies=              -510.503643
 Sum of electronic and thermal Enthalpies=            -510.502699
 Sum of electronic and thermal Free Energies=         -510.550586

                     E (Thermal)             CV                S
                      KCal/Mol        Cal/Mol-Kelvin    Cal/Mol-Kelvin
 Total                  103.274             40.033            100.786
 Electronic               0.000              0.000              0.000
 Translational            0.889              2.981             40.786
 Rotational               0.889              2.981             30.257
 Vibrational            101.497             34.072             29.743
 Vibration     1          0.597              1.971              4.295
 Vibration     2          0.600              1.963              3.895
 Vibration     3          0.603              1.952              3.520
 Vibration     4          0.611              1.927              3.004
 Vibration     5          0.664              1.758              1.712
 Vibration     6          0.670              1.742              1.647
 Vibration     7          0.683              1.701              1.501
 Vibration     8          0.696              1.663              1.384
 Vibration     9          0.745              1.526              1.065
 Vibration    10          0.766              1.471              0.964
 Vibration    11          0.774              1.448              0.926
 Vibration    12          0.839              1.288              0.703
 Vibration    13          0.857              1.247              0.655
 Vibration    14          0.870              1.218              0.623
 Vibration    15          0.915              1.119              0.525
 Vibration    16          0.944              1.060              0.473
 Vibration    17          0.954              1.040              0.457

                           ! Non-Optimized Parameters !
 Normal termination of Gaussian 16 at Tue Dec  8 10:17:24 2020.

 ----------------------------------------------------------------------
 # B3LYP/6-311++G(d,p) empiricaldispersion=gd3bj scf=xqc pop=npa geom=c
 heck
 ----------------------------------------------------------------------

 -------------------------------------
 CID_144213209_JID_42_Energie_neutraal
 -------------------------------------
 Structure from the checkpoint file:  "JID_42.chk"
 Charge =  0 Multiplicity = 1

 SCF Done:  E(RB3LYP) =  -510.851547739     A.U. after   15 cycles
 Normal termination of Gaussian 16 at Tue Dec  8 10:18:09 2020.

 ----------------------------------------------------------------------
 # B3LYP/6-311++G(d,p) empiricaldispersion=gd3bj scf=xqc pop=npa geom=c
 heck
 ----------------------------------------------------------------------

 -----------------------------------
 CID_144213209_JID_42_Energie_kation
 -----------------------------------
 Structure from the checkpoint file:  "JID_42.chk"
 Charge =  1 Multiplicity = 2

 SCF Done:  E(UB3LYP) =  -510.597538245     A.U. after   19 cycles
 Normal termination of Gaussian 16 at Tue Dec  8 10:19:40 2020.
 Gaussian 16:  ES64L-G16RevA.03 25-Dec-2016

 ----------------------------------------------------------------------
 # B3LYP/6-311++G(d,p) empiricaldispersion=gd3bj scf=xqc pop=npa geom=c
 heck
 ----------------------------------------------------------------------

 ----------------------------------
 CID_144213209_JID_42_Energie_anion
 ----------------------------------
 Structure from the checkpoint file:  "JID_42.chk"
 Charge = -1 Multiplicity = 2

                         Standard orientation:
 ---------------------------------------------------------------------
 Center     Atomic      Atomic             Coordinates (Angstroms)
 Number     Number       Type             X           Y           Z
 ---------------------------------------------------------------------
      1          6           0        0.055616   -0.153040   -0.073897
      2          6           0       -1.160382    0.456267    0.008225
      3          6           0       -2.415336   -0.298918   -0.037559
      4          8           0       -3.521107    0.206657    0.098787
      5          8           0       -2.270121   -1.637672   -0.250140
      6          7           0       -1.326305    1.850899    0.114719
      7          6           0        1.305703    0.542149   -0.109794
      8          6           0        2.530086   -0.055852    0.001970
      9          7           0        3.723767    0.580288   -0.325467
     10          7           0        2.738398   -1.354672    0.454491
     11          1           0        0.050490   -1.236561   -0.139634
     12          1           0       -3.178024   -1.989978   -0.242499
     13          1           0       -0.725659    2.266275    0.819714
     14          1           0       -2.299844    2.073324    0.300807
     15          1           0        1.284180    1.614814   -0.284856
     16          1           0        4.463854    0.447909    0.357055
     17          1           0        3.615713    1.552227   -0.587610
     18          1           0        1.890787   -1.865950    0.663145
     19          1           0        3.383178   -1.893177   -0.115175
 ---------------------------------------------------------------------

 SCF Done:  E(UB3LYP) =  -510.848961908     A.U. after   32 cycles

 The electronic state is 2-A.
 Alpha  occ. eigenvalues --  -19.03459 -18.96432 -14.20451 -14.19261 -14.17509
 Alpha  occ. eigenvalues --  -10.14717 -10.10606 -10.05534 -10.02918 -10.02177
 Alpha  occ. eigenvalues --   -0.96963  -0.87604  -0.83172  -0.77156  -0.74682
 Alpha  occ. eigenvalues --   -0.64693  -0.58788  -0.51638  -0.46314  -0.43669
 Alpha  occ. eigenvalues --   -0.41561  -0.38989  -0.38625  -0.34968  -0.33743
 Alpha  occ. eigenvalues --   -0.33145  -0.31160  -0.30893  -0.29887  -0.26209
 Alpha  occ. eigenvalues --   -0.24621  -0.24046  -0.20504  -0.18720  -0.15487
 Alpha  occ. eigenvalues --   -0.14729  -0.13195  -0.05072   0.04751
 Alpha virt. eigenvalues --    0.07361   0.08477   0.09224   0.09804   0.11205
 Alpha virt. eigenvalues --    0.12303   0.13675   0.14438   0.14890   0.16383
 Alpha virt. eigenvalues --    0.16655   0.17466   0.18305   0.18608   0.19421

  Beta  occ. eigenvalues --  -19.03428 -18.96249 -14.20438 -14.19147 -14.17485
  Beta  occ. eigenvalues --  -10.14525 -10.10321 -10.05485 -10.02737 -10.02263
  Beta  occ. eigenvalues --   -0.96779  -0.87341  -0.82923  -0.77065  -0.74546
  Beta  occ. eigenvalues --   -0.64479  -0.58524  -0.51171  -0.46146  -0.43489
  Beta  occ. eigenvalues --   -0.41457  -0.38786  -0.38524  -0.34759  -0.33554
  Beta  occ. eigenvalues --   -0.32935  -0.30804  -0.30471  -0.29719  -0.25902
  Beta  occ. eigenvalues --   -0.24310  -0.23751  -0.20142  -0.17981  -0.15242
  Beta  occ. eigenvalues --   -0.14543  -0.12819  -0.04338
  Beta virt. eigenvalues --    0.07785   0.08779   0.08992   0.09927   0.10320
  Beta virt. eigenvalues --    0.12048   0.12605   0.13813   0.14375   0.15129
  Beta virt. eigenvalues --    0.16342   0.16988   0.17705   0.18433   0.19048

 Mulliken charges and spin densities:
               1          2
     1  C   -0.548724   0.490255
     2  C    0.704391  -0.570828
     3  C   -0.204266   0.219872
     4  O   -0.430527   0.058581
     5  O   -0.239047   0.006302
     6  N   -0.382523  -0.002691
     7  C    1.489083  -1.489124
     8  C   -0.917989   0.632867
     9  N   -0.358184  -0.006862
    10  N   -0.274165  -0.073932
    11  H    0.112872  -0.017167
    12  H    0.253440   0.005656
    13  H    0.078956   0.133736
    14  H    0.264767  -0.006067
    15  H    0.000256   0.112683
    16  H   -0.613193   0.878166
    17  H   -0.116161   0.356692
    18  H    0.035478   0.189857
    19  H    0.145535   0.082004
 Sum of Mulliken charges =  -1.00000   1.00000

 Dipole moment (field-independent basis, Debye):
    X=             -4.4778    Y=             -3.4924    Z=             -0.8317  Tot=              5.7393
 Quadrupole moment (field-independent basis, Debye-Ang):
   XX=           -135.0862   YY=            -72.4114   ZZ=            -75.5380
   XY=             -4.2796   XZ=             -6.0989   YZ=              2.7024

 Summary of Natural Population Analysis:

                                       Natural Population
                Natural  -----------------------------------------------
    Atom  No    Charge         Core      Valence    Rydberg      Total
 -----------------------------------------------------------------------
      C    1   -0.06925      0.99951     2.05918    0.01056     3.06925
      C    2    0.00760      0.99945     1.97999    0.01296     2.99240
      C    3    0.39875      0.99963     1.57716    0.02446     2.60125
      O    4   -0.32964      0.99987     3.32323    0.00654     4.32964
      O    5   -0.35471      0.99988     3.34852    0.00631     4.35471
      N    6   -0.41664      0.99973     2.90454    0.01237     3.91664
      C    7   -0.21934      0.99950     2.20728    0.01256     3.21934
      C    8    0.24422      0.99953     1.74309    0.01315     2.75578
      N    9   -0.40136      0.99972     2.89089    0.01076     3.90136
      N   10   -0.40740      0.99971     2.89719    0.01050     3.90740
      H   11    0.09693      0.00000     0.40130    0.00177     0.40307
      H   12    0.23034      0.00000     0.26530    0.00436     0.26966
      H   13    0.17832      0.00000     0.31983    0.00185     0.32168
      H   14    0.18914      0.00000     0.30910    0.00176     0.31086
      H   15    0.10096      0.00000     0.39766    0.00138     0.39904
      H   16    0.19209      0.00000     0.29115    0.01675     0.30791
      H   17    0.18795      0.00000     0.30902    0.00303     0.31205
      H   18    0.18861      0.00000     0.30996    0.00143     0.31139
      H   19    0.18343      0.00000     0.31470    0.00187     0.31657
 =======================================================================
   * Total *   -0.00000      9.99654    27.84909    0.15437    38.00000

 Normal termination of Gaussian 16 at Tue Dec  8 10:22:08 2020.
