 Gaussian 16, Revision A.03,

 -----------------------------------------------------------
 # opt freq B3LYP/6-31G(d) empiricaldispersion=gd3bj scf=xqc
 -----------------------------------------------------------

 -------------------------------
 CID_65113741_JID_10455_neutraal
 -------------------------------
 Symbolic Z-matrix:
 Charge =  0 Multiplicity = 1

 SCF Done:  E(RB3LYP) =  -1280.17761972     A.U. after   15 cycles
 SCF Done:  E(RB3LYP) =  -1280.18364311     A.U. after   13 cycles
 SCF Done:  E(RB3LYP) =  -1280.18386737     A.U. after   12 cycles
 SCF Done:  E(RB3LYP) =  -1280.18375444     A.U. after   13 cycles
 SCF Done:  E(RB3LYP) =  -1280.18454095     A.U. after   12 cycles
 SCF Done:  E(RB3LYP) =  -1280.18483007     A.U. after   12 cycles
 SCF Done:  E(RB3LYP) =  -1280.18526203     A.U. after   11 cycles
 SCF Done:  E(RB3LYP) =  -1280.18536907     A.U. after   11 cycles
 SCF Done:  E(RB3LYP) =  -1280.18540706     A.U. after   11 cycles
 SCF Done:  E(RB3LYP) =  -1280.18543004     A.U. after   10 cycles
 SCF Done:  E(RB3LYP) =  -1280.18555164     A.U. after    8 cycles
 SCF Done:  E(RB3LYP) =  -1280.18555170     A.U. after    8 cycles
 SCF Done:  E(RB3LYP) =  -1280.18555172     A.U. after    7 cycles
 SCF Done:  E(RB3LYP) =  -1280.18555172     A.U. after    6 cycles
 Optimization completed on the basis of negligible forces.
    -- Stationary point found.
 Normal termination of Gaussian 16 at Mon Dec 14 18:01:04 2020.

 --------------------------------------------------------------------
 #N Geom=AllCheck Guess=TCheck SCRF=Check GenChk RB3LYP/6-31G(d) Freq
 --------------------------------------------------------------------

 Structure from the checkpoint file:  "JID_10455.chk"
 -------------------------------
 CID_65113741_JID_10455_neutraal
 -------------------------------
 Charge =  0 Multiplicity = 1

 SCF Done:  E(RB3LYP) =  -1280.18555172     A.U. after    1 cycles

  Exact polarizability: 244.980   7.899 169.785   0.271 -16.552 139.223
 Approx polarizability: 306.943  14.311 291.316   5.835 -44.183 225.818

                      1                      2                      3
                      A                      A                      A
 Frequencies --      5.3203                25.2435                30.8937
 Red. masses --      6.1509                 4.2193                 4.6108
 Frc consts  --      0.0001                 0.0016                 0.0026
 IR Inten    --      0.2008                 1.2801                 0.7367

                      4                      5                      6
                      A                      A                      A
 Frequencies --     47.1382                60.2369                72.9604
 Red. masses --      6.5675                 4.7790                 5.3995
 Frc consts  --      0.0086                 0.0102                 0.0169
 IR Inten    --      1.3305                 0.9631                 1.1254

                      7                      8                      9
                      A                      A                      A
 Frequencies --     93.0887               102.6975               111.3431
 Red. masses --      3.7461                 2.2614                 2.9442
 Frc consts  --      0.0191                 0.0141                 0.0215
 IR Inten    --      1.6744                 0.5464                 0.6829

                     10                     11                     12
                      A                      A                      A
 Frequencies --    119.6913               149.9008               177.8174
 Red. masses --      2.8112                 3.9804                 3.5539
 Frc consts  --      0.0237                 0.0527                 0.0662
 IR Inten    --      0.2904                 0.5136                 0.2499

                     13                     14                     15
                      A                      A                      A
 Frequencies --    186.2582               198.6142               214.5235
 Red. masses --      2.2626                 2.2372                 3.7384
 Frc consts  --      0.0462                 0.0520                 0.1014
 IR Inten    --      2.6899                 1.2850                 4.6450

                     16                     17                     18
                      A                      A                      A
 Frequencies --    231.1052               238.2084               242.1576
 Red. masses --      1.1888                 1.5635                 1.8252
 Frc consts  --      0.0374                 0.0523                 0.0631
 IR Inten    --      2.8591                11.7958                34.7747

                     19                     20                     21
                      A                      A                      A
 Frequencies --    270.4685               286.2685               308.4521
 Red. masses --      1.2437                 3.5592                 2.0005
 Frc consts  --      0.0536                 0.1718                 0.1121
 IR Inten    --     54.9774                 2.6659                 3.8487

                     22                     23                     24
                      A                      A                      A
 Frequencies --    329.5648               361.4080               382.5329
 Red. masses --      2.7650                 3.1022                 3.8921
 Frc consts  --      0.1769                 0.2387                 0.3356
 IR Inten    --      2.4804                 4.3612                 5.1393

                     25                     26                     27
                      A                      A                      A
 Frequencies --    388.2887               390.8189               448.5171
 Red. masses --      2.4913                 4.3996                 4.5803
 Frc consts  --      0.2213                 0.3959                 0.5429
 IR Inten    --      4.6833                10.9617                 7.3923

                     28                     29                     30
                      A                      A                      A
 Frequencies --    456.7383               477.7309               480.5042
 Red. masses --      4.4104                 3.1338                 4.0972
 Frc consts  --      0.5421                 0.4214                 0.5574
 IR Inten    --      1.0216                 1.6471                12.1663

                     31                     32                     33
                      A                      A                      A
 Frequencies --    498.4174               560.0470               571.3753
 Red. masses --      3.8499                 2.2506                 2.9804
 Frc consts  --      0.5635                 0.4159                 0.5733
 IR Inten    --      9.0463                16.8870                 5.2721

                     34                     35                     36
                      A                      A                      A
 Frequencies --    602.3724               631.9304               657.1248
 Red. masses --      2.0929                 3.1638                 2.2052
 Frc consts  --      0.4474                 0.7444                 0.5610
 IR Inten    --     36.3095                40.9601                91.5315

                     37                     38                     39
                      A                      A                      A
 Frequencies --    679.0920               705.0261               725.2729
 Red. masses --      3.0068                 4.6643                 1.1902
 Frc consts  --      0.8170                 1.3660                 0.3689
 IR Inten    --      3.9500                38.6348                45.4644

                     40                     41                     42
                      A                      A                      A
 Frequencies --    732.8153               752.2719               762.8850
 Red. masses --      3.7353                 5.0734                 5.8370
 Frc consts  --      1.1819                 1.6916                 2.0015
 IR Inten    --      5.1086                33.9062                16.2543

                     43                     44                     45
                      A                      A                      A
 Frequencies --    773.3548               782.7357               809.1876
 Red. masses --      3.8566                 1.2391                 2.4203
 Frc consts  --      1.3590                 0.4473                 0.9337
 IR Inten    --     38.5063                 5.4658                 4.0696

                     46                     47                     48
                      A                      A                      A
 Frequencies --    812.0555               854.0388               875.3289
 Red. masses --      1.3111                 1.3523                 4.1344
 Frc consts  --      0.5094                 0.5812                 1.8664
 IR Inten    --      5.0037                 1.9301                19.8387

                     49                     50                     51
                      A                      A                      A
 Frequencies --    910.7073               917.3964               936.1301
 Red. masses --      2.0911                 1.3574                 2.0016
 Frc consts  --      1.0218                 0.6731                 1.0335
 IR Inten    --      3.7435                 0.3561                 8.5208

                     52                     53                     54
                      A                      A                      A
 Frequencies --    946.0628               996.9249              1011.7232
 Red. masses --      1.6821                 1.9567                 1.7917
 Frc consts  --      0.8870                 1.1458                 1.0806
 IR Inten    --     19.0044                22.9617                25.5017

                     55                     56                     57
                      A                      A                      A
 Frequencies --   1044.6147              1061.6183              1064.9887
 Red. masses --      1.7910                 3.2480                 2.4918
 Frc consts  --      1.1515                 2.1568                 1.6651
 IR Inten    --      6.9172                14.4403                19.9402

                     58                     59                     60
                      A                      A                      A
 Frequencies --   1075.4433              1094.0719              1111.8451
 Red. masses --      1.7439                 1.9478                 1.7063
 Frc consts  --      1.1884                 1.3737                 1.2427
 IR Inten    --     31.9259                30.3424                 8.1079

                     61                     62                     63
                      A                      A                      A
 Frequencies --   1118.4141              1136.8147              1151.2087
 Red. masses --      1.6105                 1.8744                 2.5419
 Frc consts  --      1.1869                 1.4272                 1.9848
 IR Inten    --      3.5121                20.1129                 7.0338

                     64                     65                     66
                      A                      A                      A
 Frequencies --   1162.5317              1178.6623              1193.8847
 Red. masses --      1.6754                 2.8575                 2.3713
 Frc consts  --      1.3340                 2.3389                 1.9914
 IR Inten    --     39.4831                27.1295                31.8666

                     67                     68                     69
                      A                      A                      A
 Frequencies --   1223.2087              1273.0583              1294.2750
 Red. masses --      2.6493                 1.4514                 1.2856
 Frc consts  --      2.3355                 1.3859                 1.2688
 IR Inten    --     27.2903                18.6658                 8.8247

                     70                     71                     72
                      A                      A                      A
 Frequencies --   1306.7262              1335.2421              1342.2352
 Red. masses --      1.7151                 1.2246                 1.3309
 Frc consts  --      1.7255                 1.2864                 1.4127
 IR Inten    --    146.9193                 5.9652                26.7633

                     73                     74                     75
                      A                      A                      A
 Frequencies --   1358.9308              1373.7780              1388.1894
 Red. masses --      1.3198                 2.1029                 1.3885
 Frc consts  --      1.4360                 2.3383                 1.5765
 IR Inten    --      6.2031               294.2482                37.3371

                     76                     77                     78
                      A                      A                      A
 Frequencies --   1394.2871              1401.3247              1413.9702
 Red. masses --      2.0712                 1.6866                 2.5476
 Frc consts  --      2.3723                 1.9514                 3.0010
 IR Inten    --     17.9155                18.3364               120.2313

                     79                     80                     81
                      A                      A                      A
 Frequencies --   1419.8031              1431.7576              1444.1254
 Red. masses --      1.5108                 1.4398                 1.2538
 Frc consts  --      1.7944                 1.7389                 1.5405
 IR Inten    --      8.1292                43.3923                 6.4056

                     82                     83                     84
                      A                      A                      A
 Frequencies --   1446.9523              1447.8410              1478.5862
 Red. masses --      1.3371                 1.2530                 3.6742
 Frc consts  --      1.6494                 1.5475                 4.7327
 IR Inten    --     32.0552                 5.5450               175.3851

                     85                     86                     87
                      A                      A                      A
 Frequencies --   1495.4710              1506.7412              1510.6793
 Red. masses --      1.5769                 1.1766                 1.1358
 Frc consts  --      2.0778                 1.5738                 1.5272
 IR Inten    --      2.7816                24.1852                 3.9088

                     88                     89                     90
                      A                      A                      A
 Frequencies --   1516.9568              1523.9193              1527.6596
 Red. masses --      1.2182                 1.1305                 1.1142
 Frc consts  --      1.6517                 1.5469                 1.5320
 IR Inten    --     17.3830                12.0562                 5.7826

                     91                     92                     93
                      A                      A                      A
 Frequencies --   1529.1917              1530.9535              1536.6311
 Red. masses --      1.0533                 1.0741                 1.0461
 Frc consts  --      1.4512                 1.4833                 1.4553
 IR Inten    --      2.0432                 6.6326                 5.5986

                     94                     95                     96
                      A                      A                      A
 Frequencies --   1540.2201              1543.9449              1587.7600
 Red. masses --      1.0459                 1.0743                 4.9557
 Frc consts  --      1.4618                 1.5089                 7.3609
 IR Inten    --      2.5924                10.8866                29.6582

                     97                     98                     99
                      A                      A                      A
 Frequencies --   1737.9378              1789.8768              3038.3059
 Red. masses --      7.2634                 7.8396                 1.0618
 Frc consts  --     12.9258                14.7976                 5.7749
 IR Inten    --    317.0149               313.4365                16.8934

                    100                    101                    102
                      A                      A                      A
 Frequencies --   3048.7836              3051.7153              3058.0555
 Red. masses --      1.0494                 1.0504                 1.0388
 Frc consts  --      5.7473                 5.7638                 5.7234
 IR Inten    --      8.0498                35.4892                14.4775

                    103                    104                    105
                      A                      A                      A
 Frequencies --   3069.5634              3073.8010              3074.3452
 Red. masses --      1.0390                 1.0756                 1.0905
 Frc consts  --      5.7678                 5.9877                 6.0726
 IR Inten    --     21.6270                23.2518                23.8978

                    106                    107                    108
                      A                      A                      A
 Frequencies --   3089.4406              3114.0623              3124.3183
 Red. masses --      1.0999                 1.0992                 1.1015
 Frc consts  --      6.1851                 6.2800                 6.3351
 IR Inten    --     13.8945                44.8194                29.5611

                    109                    110                    111
                      A                      A                      A
 Frequencies --   3126.1135              3130.2764              3135.1214
 Red. masses --      1.1021                 1.1025                 1.1012
 Frc consts  --      6.3454                 6.3648                 6.3772
 IR Inten    --     54.0546                22.9290                25.2254

                    112                    113                    114
                      A                      A                      A
 Frequencies --   3138.5169              3151.2974              3180.5206
 Red. masses --      1.0873                 1.0967                 1.0972
 Frc consts  --      6.3103                 6.4170                 6.5394
 IR Inten    --      7.5833                16.1651                 7.2790

                    115                    116                    117
                      A                      A                      A
 Frequencies --   3224.8677              3263.0047              3267.8979
 Red. masses --      1.0900                 1.0920                 1.0979
 Frc consts  --      6.6788                 6.8500                 6.9077
 IR Inten    --      8.4532                 1.3786                 1.6256

                    118                    119                    120
                      A                      A                      A
 Frequencies --   3579.0038              3604.9728              3750.9495
 Red. masses --      1.0744                 1.0744                 1.0658
 Frc consts  --      8.1084                 8.2263                 8.8350
 IR Inten    --     13.2412                36.0692                11.2662

 - Thermochemistry -
 -------------------
 Temperature   298.150 Kelvin.  Pressure   1.00000 Atm.
 Atom     1 has atomic number  6 and mass  12.00000

 Molecular mass:   298.13511 amu.
 Principal axes and moments of inertia in atomic units:
                           1         2         3
     Eigenvalues --  2417.02486********************
           X            0.99992   0.01241  -0.00240
           Y           -0.01246   0.99968  -0.02214
           Z            0.00213   0.02217   0.99975
 This molecule is an asymmetric top.
 Rotational symmetry number  1.
 Warning -- assumption of classical behavior for rotation
           may cause significant error
 Rotational temperatures (Kelvin)      0.03583     0.00599     0.00570
 Rotational constants (GHZ):           0.74668     0.12479     0.11880
 Zero-point vibrational energy     931496.4 (Joules/Mol)
                                  222.63298 (Kcal/Mol)
 Warning -- explicit consideration of  34 degrees of freedom as
           vibrations may cause significant error
 Vibrational temperatures:      7.65    36.32    44.45    67.82    86.67
          (Kelvin)            104.97   133.93   147.76   160.20   172.21
                              215.67   255.84   267.98   285.76   308.65
                              332.51   342.73   348.41   389.14   411.88
                              443.79   474.17   519.99   550.38   558.66
                              562.30   645.32   657.14   687.35   691.34
                              717.11   805.78   822.08   866.68   909.21
                              945.46   977.06  1014.38  1043.51  1054.36
                             1082.35  1097.62  1112.69  1126.18  1164.24
                             1168.37  1228.77  1259.40  1310.30  1319.93
                             1346.88  1361.17  1434.35  1455.64  1502.97
                             1527.43  1532.28  1547.32  1574.13  1599.70
                             1609.15  1635.62  1656.33  1672.62  1695.83
                             1717.73  1759.92  1831.65  1862.17  1880.09
                             1921.12  1931.18  1955.20  1976.56  1997.29
                             2006.07  2016.19  2034.39  2042.78  2059.98
                             2077.77  2081.84  2083.12  2127.36  2151.65
                             2167.86  2173.53  2182.56  2192.58  2197.96
                             2200.17  2202.70  2210.87  2216.03  2221.39
                             2284.43  2500.50  2575.23  4371.44  4386.52
                             4390.74  4399.86  4416.42  4422.51  4423.30
                             4445.02  4480.44  4495.20  4497.78  4503.77
                             4510.74  4515.63  4534.01  4576.06  4639.87
                             4694.74  4701.78  5149.39  5186.75  5396.78

 Zero-point correction=                           0.354788 (Hartree/Particle)
 Thermal correction to Energy=                    0.376935
 Thermal correction to Enthalpy=                  0.377879
 Thermal correction to Gibbs Free Energy=         0.300417
 Sum of electronic and zero-point Energies=          -1279.830763
 Sum of electronic and thermal Energies=             -1279.808617
 Sum of electronic and thermal Enthalpies=           -1279.807672
 Sum of electronic and thermal Free Energies=        -1279.885135

                     E (Thermal)             CV                S
                      KCal/Mol        Cal/Mol-Kelvin    Cal/Mol-Kelvin
 Total                  236.530             81.913            163.033
 Electronic               0.000              0.000              0.000
 Translational            0.889              2.981             42.974
 Rotational               0.889              2.981             34.628
 Vibrational            234.753             75.951             85.431
 Vibration     1          0.593              1.987              9.265
 Vibration     2          0.593              1.985              6.172
 Vibration     3          0.594              1.984              5.771
 Vibration     4          0.595              1.979              4.934
 Vibration     5          0.597              1.973              4.449
 Vibration     6          0.599              1.967              4.072
 Vibration     7          0.602              1.954              3.594
 Vibration     8          0.605              1.947              3.402
 Vibration     9          0.607              1.940              3.245
 Vibration    10          0.609              1.933              3.105
 Vibration    11          0.618              1.903              2.673
 Vibration    12          0.628              1.870              2.351
 Vibration    13          0.632              1.859              2.265
 Vibration    14          0.637              1.842              2.146
 Vibration    15          0.644              1.819              2.005
 Vibration    16          0.653              1.793              1.870
 Vibration    17          0.656              1.782              1.816
 Vibration    18          0.658              1.776              1.787
 Vibration    19          0.674              1.728              1.593
 Vibration    20          0.684              1.699              1.496
 Vibration    21          0.698              1.658              1.371
 Vibration    22          0.712              1.616              1.262
 Vibration    23          0.736              1.552              1.116
 Vibration    24          0.752              1.507              1.029
 Vibration    25          0.756              1.495              1.007
 Vibration    26          0.759              1.490              0.997
 Vibration    27          0.808              1.364              0.800
 Vibration    28          0.815              1.346              0.776
 Vibration    29          0.834              1.299              0.716
 Vibration    30          0.837              1.293              0.709
 Vibration    31          0.854              1.254              0.662
 Vibration    32          0.916              1.118              0.524
 Vibration    33          0.928              1.093              0.502
 Vibration    34          0.961              1.027              0.446

 Optimization completed on the basis of negligible forces.
    -- Stationary point found.
 Normal termination of Gaussian 16 at Mon Dec 14 18:22:18 2020.

 ----------------------------------------------------------------------
 # B3LYP/6-311++G(d,p) empiricaldispersion=gd3bj scf=xqc pop=npa geom=c
 heck
 ----------------------------------------------------------------------

 ---------------------------------------
 CID_65113741_JID_10455_Energie_neutraal
 ---------------------------------------
 Structure from the checkpoint file:  "JID_10455.chk"
 Charge =  0 Multiplicity = 1

 SCF Done:  E(RB3LYP) =  -1280.47863851     A.U. after   16 cycles
 Normal termination of Gaussian 16 at Mon Dec 14 18:31:58 2020.

 ----------------------------------------------------------------------
 # B3LYP/6-311++G(d,p) empiricaldispersion=gd3bj scf=xqc pop=npa geom=c
 heck
 ----------------------------------------------------------------------

 -------------------------------------
 CID_65113741_JID_10455_Energie_kation
 -------------------------------------
 Structure from the checkpoint file:  "JID_10455.chk"
 Charge =  1 Multiplicity = 2

 SCF Done:  E(UB3LYP) =  -1280.17288810     A.U. after   33 cycles
 SCF Done:  E(UB3LYP) =  -1280.17288810     a.u. after    2 cycles
 Normal termination of Gaussian 16 at Mon Dec 14 19:34:55 2020.
 Gaussian 16:  ES64L-G16RevA.03 25-Dec-2016

 ----------------------------------------------------------------------
 # B3LYP/6-311++G(d,p) empiricaldispersion=gd3bj scf=xqc pop=npa geom=c
 heck
 ----------------------------------------------------------------------

 ------------------------------------
 CID_65113741_JID_10455_Energie_anion
 ------------------------------------
 Structure from the checkpoint file:  "JID_10455.chk"
 Charge = -1 Multiplicity = 2

                         Standard orientation:
 ---------------------------------------------------------------------
 Center     Atomic      Atomic             Coordinates (Angstroms)
 Number     Number       Type             X           Y           Z
 ---------------------------------------------------------------------
      1          6           0        5.815176   -0.900165   -0.303780
      2          6           0        4.491395   -0.349570   -0.842961
      3          6           0        3.476065    0.072064    0.238917
      4          6           0        4.044257    1.111401    1.227763
      5          6           0        4.602797    2.401036    0.617555
      6          6           0        2.185821    0.628499   -0.402407
      7          7           0        1.495221   -0.301366   -1.283025
      8          6           0        0.461942   -1.166828   -0.997448
      9          8           0        0.301845   -2.183547   -1.656943
     10          6           0       -0.565833   -0.793044    0.087572
     11          6           0       -0.100986   -1.171630    1.502549
     12          7           0       -0.984680    0.607556   -0.028802
     13          6           0       -2.252028    1.104490   -0.234786
     14          8           0       -2.398980    2.230579   -0.710493
     15          6           0       -3.437260    0.298166    0.136361
     16          6           0       -3.635005   -0.798178    0.948252
     17          6           0       -4.999530   -1.190842    1.033060
     18          6           0       -5.821625   -0.386807    0.286086
     19         16           0       -4.953385    0.870639   -0.515986
     20          8           0        3.040671   -1.075653    0.978136
     21          1           0        6.380352   -0.146527    0.254381
     22          1           0        6.448349   -1.245978   -1.126751
     23          1           0        5.653876   -1.761375    0.356263
     24          1           0        4.693388    0.504331   -1.501733
     25          1           0        4.020050   -1.124651   -1.457662
     26          1           0        3.249032    1.349953    1.944902
     27          1           0        4.836182    0.622628    1.811093
     28          1           0        3.842689    2.953567    0.055415
     29          1           0        4.969732    3.065168    1.406883
     30          1           0        5.439673    2.201264   -0.059969
     31          1           0        1.515912    0.924650    0.405739
     32          1           0        2.431591    1.531190   -0.972285
     33          1           0        2.043428   -0.656675   -2.058199
     34          1           0       -1.421950   -1.414236   -0.175362
     35          1           0        0.808147   -0.646322    1.795825
     36          1           0       -0.888254   -0.937888    2.225808
     37          1           0        0.112970   -2.244570    1.543924
     38          1           0       -0.309790    1.253945   -0.417194
     39          1           0       -2.845851   -1.298088    1.492853
     40          1           0       -5.349476   -2.030497    1.623008
     41          1           0       -6.894264   -0.465763    0.168319
     42          1           0        3.805199   -1.430269    1.457322
 ---------------------------------------------------------------------

 SCF Done:  E(UB3LYP) =  -1280.48476094     A.U. after   33 cycles
 SCF Done:  E(UB3LYP) =  -1280.48476094     a.u. after    1 cycles

 The electronic state is 2-A.
 Alpha  occ. eigenvalues --  -88.75561 -19.04530 -19.00318 -18.96466 -14.25242
 Alpha  occ. eigenvalues --  -14.22601 -10.18730 -10.15689 -10.15457 -10.13408
 Alpha  occ. eigenvalues --  -10.12599 -10.09610 -10.09550 -10.09031 -10.08709
 Alpha  occ. eigenvalues --  -10.08235 -10.08138 -10.07108 -10.06840 -10.06440
 Alpha  occ. eigenvalues --   -7.84185  -5.80472  -5.80101  -5.79812  -0.95706
 Alpha  occ. eigenvalues --   -0.95091  -0.92080  -0.84215  -0.81397  -0.76699
 Alpha  occ. eigenvalues --   -0.73233  -0.68141  -0.67224  -0.65096  -0.62734
 Alpha  occ. eigenvalues --   -0.62453  -0.58106  -0.56586  -0.55743  -0.51584
 Alpha  occ. eigenvalues --   -0.50489  -0.48894  -0.45281  -0.44008  -0.43972
 Alpha  occ. eigenvalues --   -0.42683  -0.41802  -0.39871  -0.38592  -0.37253
 Alpha  occ. eigenvalues --   -0.36441  -0.35437  -0.34833  -0.33950  -0.33825
 Alpha  occ. eigenvalues --   -0.33290  -0.33153  -0.32832  -0.31097  -0.30337
 Alpha  occ. eigenvalues --   -0.30297  -0.29464  -0.29406  -0.28383  -0.28141
 Alpha  occ. eigenvalues --   -0.27552  -0.27369  -0.27047  -0.26454  -0.25849
 Alpha  occ. eigenvalues --   -0.25616  -0.24964  -0.23175  -0.20101  -0.18625
 Alpha  occ. eigenvalues --   -0.17416  -0.14930  -0.14789  -0.14057  -0.13143
 Alpha  occ. eigenvalues --    0.03013
 Alpha virt. eigenvalues --    0.04157   0.06034   0.06319   0.07193   0.07540
 Alpha virt. eigenvalues --    0.08704   0.08816   0.08997   0.09538   0.09619
 Alpha virt. eigenvalues --    0.09811   0.10527   0.11577   0.11779   0.12134

  Beta  occ. eigenvalues --  -88.75519 -19.04511 -19.00310 -18.96314 -14.25237
  Beta  occ. eigenvalues --  -14.22578 -10.18723 -10.15688 -10.15320 -10.13401
  Beta  occ. eigenvalues --  -10.12599 -10.09602 -10.09529 -10.09010 -10.08664
  Beta  occ. eigenvalues --  -10.08116 -10.07907 -10.07097 -10.06903 -10.06303
  Beta  occ. eigenvalues --   -7.84147  -5.80453  -5.80082  -5.79671  -0.95684
  Beta  occ. eigenvalues --   -0.95058  -0.91807  -0.84194  -0.81299  -0.76470
  Beta  occ. eigenvalues --   -0.73207  -0.68104  -0.67172  -0.65068  -0.62429
  Beta  occ. eigenvalues --   -0.62159  -0.58059  -0.56533  -0.55677  -0.51253
  Beta  occ. eigenvalues --   -0.50439  -0.48820  -0.45133  -0.43944  -0.43825
  Beta  occ. eigenvalues --   -0.42624  -0.41721  -0.39779  -0.38565  -0.37220
  Beta  occ. eigenvalues --   -0.36416  -0.35380  -0.34773  -0.33902  -0.33758
  Beta  occ. eigenvalues --   -0.33197  -0.33068  -0.32787  -0.30928  -0.30281
  Beta  occ. eigenvalues --   -0.29967  -0.29374  -0.29242  -0.28289  -0.28018
  Beta  occ. eigenvalues --   -0.27475  -0.27313  -0.26886  -0.26406  -0.25792
  Beta  occ. eigenvalues --   -0.25057  -0.24887  -0.22967  -0.20080  -0.18502
  Beta  occ. eigenvalues --   -0.17338  -0.14691  -0.14253  -0.13539  -0.12148
  Beta virt. eigenvalues --    0.05030   0.06396   0.06596   0.06855   0.07311
  Beta virt. eigenvalues --    0.07677   0.08825   0.08878   0.09172   0.09567
  Beta virt. eigenvalues --    0.09728   0.09956   0.10632   0.11720   0.11783

 Mulliken charges and spin densities:
               1          2
     1  C    1.002217  -1.582299
     2  C   -1.069754   0.913257
     3  C    0.107924  -0.056094
     4  C    0.293283  -0.290472
     5  C    0.085033  -0.716265
     6  C   -0.734106  -0.142832
     7  N   -0.025052   0.030774
     8  C   -0.408093   0.109385
     9  O   -0.286495   0.000875
    10  C   -0.189866  -0.001910
    11  C   -0.273817  -0.158825
    12  N    0.085366   0.018830
    13  C   -0.714929   0.002528
    14  O   -0.346508   0.054754
    15  C    0.183590   0.041464
    16  C    0.766107   0.212399
    17  C   -0.610011  -0.087290
    18  C    0.099456   0.159707
    19  S   -0.407770   0.072191
    20  O   -0.090885   0.006129
    21  H   -0.146865   0.301891
    22  H   -0.185135   0.336088
    23  H   -0.272378   0.403576
    24  H    0.007138   0.166439
    25  H    0.215130  -0.085228
    26  H    0.121899   0.030137
    27  H   -0.323510   0.490182
    28  H    0.007514   0.130134
    29  H   -0.057465   0.206987
    30  H   -0.004199   0.158235
    31  H    0.170528  -0.026840
    32  H    0.200166  -0.013870
    33  H    0.244649   0.042129
    34  H    0.232584  -0.010724
    35  H    0.090356   0.111289
    36  H    0.114983   0.028698
    37  H    0.147370   0.013330
    38  H    0.408583   0.005848
    39  H    0.087289   0.017726
    40  H    0.113647   0.004864
    41  H    0.205364  -0.009067
    42  H    0.156664   0.111872
 Sum of Mulliken charges =  -1.00000   1.00000

 Dipole moment (field-independent basis, Debye):
    X=              0.6310    Y=             -0.7550    Z=              0.7085  Tot=              1.2125
 Quadrupole moment (field-independent basis, Debye-Ang):
   XX=           -238.8273   YY=           -168.0765   ZZ=           -154.0718
   XY=             14.1507   XZ=            -11.9969   YZ=             -4.6195

 Summary of Natural Population Analysis:

                                       Natural Population
                Natural  -----------------------------------------------
    Atom  No    Charge         Core      Valence    Rydberg      Total
 -----------------------------------------------------------------------
      C    1   -0.28936      0.99966     2.28387    0.00582     3.28936
      C    2   -0.20660      0.99958     2.19722    0.00980     3.20660
      C    3    0.13124      0.99951     1.85396    0.01529     2.86876
      C    4   -0.20454      0.99959     2.19448    0.01048     3.20454
      C    5   -0.28927      0.99966     2.28394    0.00568     3.28927
      C    6   -0.09813      0.99954     2.08736    0.01122     3.09813
      N    7   -0.32308      0.99967     2.81421    0.00920     3.82308
      C    8    0.35505      0.99964     1.62263    0.02267     2.64495
      O    9   -0.31572      0.99988     3.31005    0.00580     4.31572
      C   10   -0.05542      0.99955     2.04344    0.01243     3.05542
      C   11   -0.28902      0.99964     2.28272    0.00666     3.28902
      N   12   -0.32264      0.99966     2.81308    0.00991     3.82264
      C   13    0.34327      0.99958     1.63661    0.02054     2.65673
      O   14   -0.31535      0.99988     3.31028    0.00519     4.31535
      C   15   -0.12903      0.99947     2.11772    0.01184     3.12903
      C   16   -0.09494      0.99950     2.08744    0.00800     3.09494
      C   17   -0.15256      0.99955     2.14319    0.00983     3.15256
      C   18   -0.15476      0.99956     2.14411    0.01109     3.15476
      S   19    0.23909      4.99944     2.73868    0.02279     7.76091
      O   20   -0.37794      0.99989     3.37103    0.00703     4.37794
      H   21    0.10026      0.00000     0.39836    0.00138     0.39974
      H   22    0.10349      0.00000     0.39570    0.00081     0.39651
      H   23    0.09622      0.00000     0.40238    0.00140     0.40378
      H   24    0.09909      0.00000     0.39988    0.00103     0.40091
      H   25    0.10037      0.00000     0.39797    0.00165     0.39963
      H   26    0.10197      0.00000     0.39683    0.00120     0.39803
      H   27    0.10159      0.00000     0.39698    0.00144     0.39841
      H   28    0.09663      0.00000     0.40249    0.00088     0.40337
      H   29    0.10285      0.00000     0.39644    0.00072     0.39715
      H   30    0.09913      0.00000     0.39993    0.00094     0.40087
      H   31    0.10626      0.00000     0.39199    0.00175     0.39374
      H   32    0.09899      0.00000     0.39983    0.00117     0.40101
      H   33    0.19118      0.00000     0.30611    0.00271     0.30882
      H   34    0.11773      0.00000     0.38057    0.00171     0.38227
      H   35    0.10738      0.00000     0.39123    0.00139     0.39262
      H   36    0.09985      0.00000     0.39924    0.00092     0.40015
      H   37    0.10231      0.00000     0.39694    0.00075     0.39769
      H   38    0.19114      0.00000     0.30551    0.00334     0.30886
      H   39    0.10131      0.00000     0.39700    0.00170     0.39869
      H   40    0.09962      0.00000     0.39935    0.00102     0.40038
      H   41    0.09990      0.00000     0.39919    0.00091     0.40010
      H   42    0.23244      0.00000     0.26465    0.00291     0.26756
 =======================================================================
   * Total *   -0.00000     23.99244    55.75458    0.25298    80.00000

 Normal termination of Gaussian 16 at Mon Dec 14 20:01:05 2020.
