 Gaussian 16, Revision A.03,

 -----------------------------------------------------------
 # opt freq B3LYP/6-31G(d) empiricaldispersion=gd3bj scf=xqc
 -----------------------------------------------------------

 ------------------------------
 CID_66900576_JID_9649_neutraal
 ------------------------------
 Symbolic Z-matrix:
 Charge =  0 Multiplicity = 1

 SCF Done:  E(RB3LYP) =  -1198.67058234     A.U. after   16 cycles
 SCF Done:  E(RB3LYP) =  -1198.68363686     A.U. after   13 cycles
 SCF Done:  E(RB3LYP) =  -1198.68540054     A.U. after   13 cycles
 SCF Done:  E(RB3LYP) =  -1198.68754835     A.U. after   13 cycles
 SCF Done:  E(RB3LYP) =  -1198.68805742     A.U. after   13 cycles
 SCF Done:  E(RB3LYP) =  -1198.68942949     A.U. after   13 cycles
 SCF Done:  E(RB3LYP) =  -1198.69004823     A.U. after   13 cycles
 SCF Done:  E(RB3LYP) =  -1198.69028579     A.U. after   13 cycles
 SCF Done:  E(RB3LYP) =  -1198.69091046     A.U. after   12 cycles
 SCF Done:  E(RB3LYP) =  -1198.69100518     A.U. after   11 cycles
 SCF Done:  E(RB3LYP) =  -1198.69223916     A.U. after   10 cycles
 SCF Done:  E(RB3LYP) =  -1198.69225168     A.U. after   10 cycles
 SCF Done:  E(RB3LYP) =  -1198.69225325     A.U. after    8 cycles
 SCF Done:  E(RB3LYP) =  -1198.69225387     A.U. after    8 cycles
 SCF Done:  E(RB3LYP) =  -1198.69225395     A.U. after    7 cycles
 Optimization completed.
    -- Stationary point found.
 Normal termination of Gaussian 16 at Sat Dec 12 10:19:06 2020.

 --------------------------------------------------------------------
 #N Geom=AllCheck Guess=TCheck SCRF=Check GenChk RB3LYP/6-31G(d) Freq
 --------------------------------------------------------------------

 Structure from the checkpoint file:  "JID_9649.chk"
 ------------------------------
 CID_66900576_JID_9649_neutraal
 ------------------------------
 Charge =  0 Multiplicity = 1

 SCF Done:  E(RB3LYP) =  -1198.69225395     A.U. after    1 cycles

  Exact polarizability: 347.990   5.548 173.367 -11.215  -1.782 119.628
 Approx polarizability: 442.415  20.230 311.453 -27.105 -10.354 189.196

                      1                      2                      3
                      A                      A                      A
 Frequencies --     24.1144                37.0030                47.9611
 Red. masses --      3.9860                 4.4830                 3.0005
 Frc consts  --      0.0014                 0.0036                 0.0041
 IR Inten    --      1.2516                 2.3104                 0.2792

                      4                      5                      6
                      A                      A                      A
 Frequencies --     54.9684                81.8624               103.1381
 Red. masses --      3.5855                 3.2220                 3.0582
 Frc consts  --      0.0064                 0.0127                 0.0192
 IR Inten    --      2.1421                 3.2824                 3.3510

                      7                      8                      9
                      A                      A                      A
 Frequencies --    120.7585               124.2252               143.0561
 Red. masses --      6.7192                 1.9852                 1.8876
 Frc consts  --      0.0577                 0.0181                 0.0228
 IR Inten    --      4.2990                 0.5693                 4.5712

                     10                     11                     12
                      A                      A                      A
 Frequencies --    167.4540               191.1797               200.1672
 Red. masses --      2.8764                 1.9836                 1.7435
 Frc consts  --      0.0475                 0.0427                 0.0412
 IR Inten    --      2.2905                 2.1396                 1.4544

                     13                     14                     15
                      A                      A                      A
 Frequencies --    205.4970               227.5898               231.2715
 Red. masses --      1.2068                 1.9803                 2.7958
 Frc consts  --      0.0300                 0.0604                 0.0881
 IR Inten    --      0.1419                 4.9142                 0.2654

                     16                     17                     18
                      A                      A                      A
 Frequencies --    252.5919               265.6766               291.8612
 Red. masses --      2.0264                 3.0540                 2.8626
 Frc consts  --      0.0762                 0.1270                 0.1437
 IR Inten    --      5.7253                 1.3819                 6.9845

                     19                     20                     21
                      A                      A                      A
 Frequencies --    303.2130               313.9463               334.2198
 Red. masses --      2.5186                 4.1804                 6.5474
 Frc consts  --      0.1364                 0.2428                 0.4309
 IR Inten    --      3.4373                 6.2658                 4.3054

                     22                     23                     24
                      A                      A                      A
 Frequencies --    343.5618               421.1429               428.1343
 Red. masses --      4.3799                 3.4607                 3.1442
 Frc consts  --      0.3046                 0.3616                 0.3396
 IR Inten    --     12.7521                12.9608                 5.1526

                     25                     26                     27
                      A                      A                      A
 Frequencies --    463.2871               464.6317               482.8772
 Red. masses --      3.4212                 3.4558                 4.3018
 Frc consts  --      0.4326                 0.4396                 0.5910
 IR Inten    --      6.4041                27.5790                12.8123

                     28                     29                     30
                      A                      A                      A
 Frequencies --    496.6690               573.2012               601.1904
 Red. masses --      3.4508                 4.5977                 5.6742
 Frc consts  --      0.5015                 0.8900                 1.2083
 IR Inten    --     10.1712                 8.7881                 8.2838

                     31                     32                     33
                      A                      A                      A
 Frequencies --    611.3281               651.7739               683.9390
 Red. masses --      7.5445                 6.0389                 6.7394
 Frc consts  --      1.6612                 1.5115                 1.8574
 IR Inten    --      2.2562                 8.2035                34.7179

                     34                     35                     36
                      A                      A                      A
 Frequencies --    710.5608               744.0935               761.9676
 Red. masses --      4.7898                 5.9498                 7.8820
 Frc consts  --      1.4249                 1.9409                 2.6962
 IR Inten    --      7.0243                14.8626                11.0022

                     37                     38                     39
                      A                      A                      A
 Frequencies --    773.3988               826.3807               869.7031
 Red. masses --      5.6741                 4.4958                 2.5851
 Frc consts  --      1.9996                 1.8089                 1.1520
 IR Inten    --     16.5119                15.5387                23.6710

                     40                     41                     42
                      A                      A                      A
 Frequencies --    896.1814               926.7354               971.9790
 Red. masses --      4.0424                 3.8643                 1.4356
 Frc consts  --      1.9129                 1.9554                 0.7991
 IR Inten    --     51.3651                65.9499                30.3031

                     43                     44                     45
                      A                      A                      A
 Frequencies --    979.5908              1011.3583              1050.5312
 Red. masses --      1.4265                 2.7012                 1.9598
 Frc consts  --      0.8065                 1.6279                 1.2743
 IR Inten    --    113.1976                 9.8671                 8.7998

                     46                     47                     48
                      A                      A                      A
 Frequencies --   1064.8955              1098.0711              1099.0864
 Red. masses --      3.5271                 1.5095                 1.5204
 Frc consts  --      2.3566                 1.0724                 1.0821
 IR Inten    --      4.1353                14.6326                19.6436

                     49                     50                     51
                      A                      A                      A
 Frequencies --   1110.3253              1132.8997              1139.7337
 Red. masses --      1.8578                 1.3964                 1.3945
 Frc consts  --      1.3494                 1.0559                 1.0673
 IR Inten    --    235.6208                83.3048                 5.6383

                     52                     53                     54
                      A                      A                      A
 Frequencies --   1141.2052              1161.4957              1177.6889
 Red. masses --      1.6159                 2.3646                 1.4054
 Frc consts  --      1.2399                 1.8795                 1.1485
 IR Inten    --      4.2277               224.0592                 8.7668

                     55                     56                     57
                      A                      A                      A
 Frequencies --   1179.7561              1203.2695              1207.3923
 Red. masses --      1.3625                 4.8628                 1.1591
 Frc consts  --      1.1173                 4.1482                 0.9956
 IR Inten    --      8.3529                53.5820                 3.3576

                     58                     59                     60
                      A                      A                      A
 Frequencies --   1256.2448              1287.6522              1298.0836
 Red. masses --      1.6063                 3.3879                 3.2066
 Frc consts  --      1.4936                 3.3096                 3.1835
 IR Inten    --     23.1345                50.8159               147.7742

                     61                     62                     63
                      A                      A                      A
 Frequencies --   1325.0693              1351.5587              1368.7178
 Red. masses --      3.8136                 1.7770                 1.6088
 Frc consts  --      3.9451                 1.9125                 1.7757
 IR Inten    --    101.9395               394.1050               191.5826

                     64                     65                     66
                      A                      A                      A
 Frequencies --   1395.6984              1424.6385              1444.5651
 Red. masses --      3.9241                 3.0528                 1.4952
 Frc consts  --      4.5038                 3.6505                 1.8383
 IR Inten    --    184.7349               102.1518                 8.3385

                     67                     68                     69
                      A                      A                      A
 Frequencies --   1449.0557              1451.2833              1476.4705
 Red. masses --      2.4671                 1.8841                 1.2014
 Frc consts  --      3.0521                 2.3380                 1.5431
 IR Inten    --     39.7785                35.0372                10.3013

                     70                     71                     72
                      A                      A                      A
 Frequencies --   1476.8056              1493.4447              1497.1494
 Red. masses --      1.1610                 1.2843                 1.2602
 Frc consts  --      1.4919                 1.6877                 1.6643
 IR Inten    --      4.4669                32.3201               113.5698

                     73                     74                     75
                      A                      A                      A
 Frequencies --   1503.9887              1506.9359              1508.0041
 Red. masses --      1.1291                 1.0606                 1.0526
 Frc consts  --      1.5048                 1.4190                 1.4104
 IR Inten    --      5.1834                11.7865                 8.8705

                     76                     77                     78
                      A                      A                      A
 Frequencies --   1509.4896              1513.6084              1528.1331
 Red. masses --      1.0500                 1.0897                 1.1052
 Frc consts  --      1.4096                 1.4709                 1.5206
 IR Inten    --      9.1921                37.4320                18.4008

                     79                     80                     81
                      A                      A                      A
 Frequencies --   1528.8507              1536.9155              1543.2753
 Red. masses --      1.1098                 1.0560                 1.5302
 Frc consts  --      1.5283                 1.4697                 2.1473
 IR Inten    --     51.0944                 3.6474                51.1553

                     82                     83                     84
                      A                      A                      A
 Frequencies --   1554.3509              1555.1964              1574.2146
 Red. masses --      1.3026                 1.1776                 6.5166
 Frc consts  --      1.8542                 1.6781                 9.5147
 IR Inten    --    113.6536                 7.2552                84.0450

                     85                     86                     87
                      A                      A                      A
 Frequencies --   1653.0023              1712.4269              1734.8133
 Red. masses --      6.6978                 7.1580                 8.1435
 Frc consts  --     10.7828                12.3671                14.4400
 IR Inten    --    466.9054              1587.2679               127.6023

                     88                     89                     90
                      A                      A                      A
 Frequencies --   3002.8588              3006.9834              3013.1790
 Red. masses --      1.0742                 1.0489                 1.0538
 Frc consts  --      5.7068                 5.5880                 5.6372
 IR Inten    --     27.7998                46.4227               142.2822

                     91                     92                     93
                      A                      A                      A
 Frequencies --   3020.4694              3038.2612              3064.6335
 Red. masses --      1.0690                 1.0361                 1.0328
 Frc consts  --      5.7463                 5.6354                 5.7150
 IR Inten    --     36.2915                78.2824                28.0908

                     94                     95                     96
                      A                      A                      A
 Frequencies --   3075.6622              3091.3420              3092.0366
 Red. masses --      1.0904                 1.0872                 1.1043
 Frc consts  --      6.0773                 6.1212                 6.2205
 IR Inten    --     49.9737                49.0287                26.6768

                     97                     98                     99
                      A                      A                      A
 Frequencies --   3093.1313              3134.7454              3135.4302
 Red. masses --      1.0926                 1.0906                 1.0887
 Frc consts  --      6.1588                 6.3143                 6.3062
 IR Inten    --     26.9932                40.0476                30.6361

                    100                    101                    102
                      A                      A                      A
 Frequencies --   3137.1488              3149.0597              3150.7028
 Red. masses --      1.1041                 1.0990                 1.0985
 Frc consts  --      6.4023                 6.4213                 6.4250
 IR Inten    --     19.1331                16.1358                30.5770

                    103                    104                    105
                      A                      A                      A
 Frequencies --   3155.8555              3165.2285              3178.8908
 Red. masses --      1.1039                 1.0975                 1.0873
 Frc consts  --      6.4779                 6.4782                 6.4734
 IR Inten    --     20.1273                 8.6154                 3.6968

 - Thermochemistry -
 -------------------
 Temperature   298.150 Kelvin.  Pressure   1.00000 Atm.
 Atom     1 has atomic number  6 and mass  12.00000

 Molecular mass:   278.12013 amu.
 Principal axes and moments of inertia in atomic units:
                           1         2         3
     Eigenvalues --  2010.09149********************
           X            0.99999   0.00181   0.00390
           Y           -0.00180   1.00000  -0.00253
           Z           -0.00391   0.00253   0.99999
 This molecule is an asymmetric top.
 Rotational symmetry number  1.
 Warning -- assumption of classical behavior for rotation
           may cause significant error
 Rotational temperatures (Kelvin)      0.04309     0.00696     0.00640
 Rotational constants (GHZ):           0.89784     0.14503     0.13336
 Zero-point vibrational energy     803573.8 (Joules/Mol)
                                  192.05876 (Kcal/Mol)
 Warning -- explicit consideration of  31 degrees of freedom as
           vibrations may cause significant error
 Vibrational temperatures:     34.70    53.24    69.01    79.09   117.78
          (Kelvin)            148.39   173.74   178.73   205.83   240.93
                              275.06   288.00   295.66   327.45   332.75
                              363.42   382.25   419.92   436.26   451.70
                              480.87   494.31   605.93   615.99   666.57
                              668.50   694.75   714.60   824.71   864.98
                              879.56   937.76   984.04  1022.34  1070.58
                             1096.30  1112.75  1188.98  1251.31  1289.41
                             1333.37  1398.46  1409.41  1455.12  1511.48
                             1532.15  1579.88  1581.34  1597.51  1629.99
                             1639.82  1641.94  1671.13  1694.43  1697.41
                             1731.24  1737.17  1807.46  1852.64  1867.65
                             1906.48  1944.59  1969.28  2008.10  2049.74
                             2078.41  2084.87  2088.07  2124.31  2124.79
                             2148.73  2154.06  2163.90  2168.14  2169.68
                             2171.82  2177.74  2198.64  2199.68  2211.28
                             2220.43  2236.36  2237.58  2264.94  2378.30
                             2463.80  2496.01  4320.44  4326.38  4335.29
                             4345.78  4371.38  4409.32  4425.19  4447.75
                             4448.75  4450.33  4510.20  4511.18  4513.66
                             4530.79  4533.16  4540.57  4554.06  4573.71

 Zero-point correction=                           0.306065 (Hartree/Particle)
 Thermal correction to Energy=                    0.325607
 Thermal correction to Enthalpy=                  0.326552
 Thermal correction to Gibbs Free Energy=         0.256857
 Sum of electronic and zero-point Energies=          -1198.386189
 Sum of electronic and thermal Energies=             -1198.366647
 Sum of electronic and thermal Enthalpies=           -1198.365702
 Sum of electronic and thermal Free Energies=        -1198.435397

                     E (Thermal)             CV                S
                      KCal/Mol        Cal/Mol-Kelvin    Cal/Mol-Kelvin
 Total                  204.322             71.320            146.685
 Electronic               0.000              0.000              0.000
 Translational            0.889              2.981             42.767
 Rotational               0.889              2.981             34.181
 Vibrational            202.544             65.358             69.737
 Vibration     1          0.593              1.985              6.263
 Vibration     2          0.594              1.982              5.413
 Vibration     3          0.595              1.978              4.900
 Vibration     4          0.596              1.976              4.630
 Vibration     5          0.600              1.962              3.846
 Vibration     6          0.605              1.947              3.394
 Vibration     7          0.609              1.932              3.088
 Vibration     8          0.610              1.929              3.034
 Vibration     9          0.616              1.910              2.763
 Vibration    10          0.624              1.883              2.464
 Vibration    11          0.634              1.852              2.216
 Vibration    12          0.638              1.840              2.132
 Vibration    13          0.640              1.832              2.083
 Vibration    14          0.651              1.799              1.898
 Vibration    15          0.653              1.793              1.869
 Vibration    16          0.664              1.758              1.712
 Vibration    17          0.672              1.736              1.624
 Vibration    18          0.687              1.689              1.463
 Vibration    19          0.695              1.668              1.399
 Vibration    20          0.702              1.647              1.341
 Vibration    21          0.716              1.607              1.240
 Vibration    22          0.722              1.588              1.196
 Vibration    23          0.784              1.424              0.888
 Vibration    24          0.790              1.409              0.865
 Vibration    25          0.821              1.331              0.757
 Vibration    26          0.822              1.329              0.753
 Vibration    27          0.839              1.288              0.702
 Vibration    28          0.852              1.257              0.667
 Vibration    29          0.929              1.089              0.498
 Vibration    30          0.959              1.029              0.448
 Vibration    31          0.970              1.008              0.431

                           ! Non-Optimized Parameters !
 Normal termination of Gaussian 16 at Sat Dec 12 10:34:14 2020.

 ----------------------------------------------------------------------
 # B3LYP/6-311++G(d,p) empiricaldispersion=gd3bj scf=xqc pop=npa geom=c
 heck
 ----------------------------------------------------------------------

 --------------------------------------
 CID_66900576_JID_9649_Energie_neutraal
 --------------------------------------
 Structure from the checkpoint file:  "JID_9649.chk"
 Charge =  0 Multiplicity = 1

 SCF Done:  E(RB3LYP) =  -1198.93288263     A.U. after   17 cycles
 Normal termination of Gaussian 16 at Sat Dec 12 10:42:14 2020.

 ----------------------------------------------------------------------
 # B3LYP/6-311++G(d,p) empiricaldispersion=gd3bj scf=xqc pop=npa geom=c
 heck
 ----------------------------------------------------------------------

 ------------------------------------
 CID_66900576_JID_9649_Energie_kation
 ------------------------------------
 Structure from the checkpoint file:  "JID_9649.chk"
 Charge =  1 Multiplicity = 2

 SCF Done:  E(UB3LYP) =  -1198.68493907     A.U. after   26 cycles
 Normal termination of Gaussian 16 at Sat Dec 12 10:59:56 2020.
 Gaussian 16:  ES64L-G16RevA.03 25-Dec-2016

 ----------------------------------------------------------------------
 # B3LYP/6-311++G(d,p) empiricaldispersion=gd3bj scf=xqc pop=npa geom=c
 heck
 ----------------------------------------------------------------------

 -----------------------------------
 CID_66900576_JID_9649_Energie_anion
 -----------------------------------
 Structure from the checkpoint file:  "JID_9649.chk"
 Charge = -1 Multiplicity = 2

                         Standard orientation:
 ---------------------------------------------------------------------
 Center     Atomic      Atomic             Coordinates (Angstroms)
 Number     Number       Type             X           Y           Z
 ---------------------------------------------------------------------
      1          6           0        5.133376   -1.589659    0.607281
      2          7           0        4.934841   -0.416238   -0.221312
      3          6           0        5.996201   -0.133571   -1.173033
      4          6           0        3.754382    0.258642   -0.329181
      5          6           0        2.502959    0.029622    0.160869
      6          6           0        1.993979   -1.176421    0.933592
      7          6           0        0.566060   -1.595170    0.534808
      8          6           0       -0.340615   -0.403454    0.499219
      9          6           0        0.163495    0.847263    0.232133
     10          6           0        1.557482    1.146789   -0.088711
     11          8           0        1.883920    2.245604   -0.555145
     12         16           0       -1.137410    2.012162    0.176025
     13          6           0       -2.261959    0.692079    0.521486
     14          7           0       -1.695232   -0.498972    0.665087
     15          7           0       -3.570135    0.997445    0.735698
     16          6           0       -4.584898    0.265581    0.411720
     17          7           0       -4.717657   -0.718773   -0.508804
     18          6           0       -5.929261   -1.522868   -0.540780
     19          6           0       -3.670459   -1.069555   -1.458719
     20          1           0        6.197308   -1.666884    0.855586
     21          1           0        4.835046   -2.523887    0.107643
     22          1           0        4.574000   -1.490500    1.538145
     23          1           0        6.044372   -0.888317   -1.973167
     24          1           0        5.825541    0.841928   -1.633551
     25          1           0        6.966694   -0.115481   -0.662754
     26          1           0        3.845139    1.184300   -0.893752
     27          1           0        2.648871   -2.038274    0.797632
     28          1           0        1.984370   -0.953059    2.011654
     29          1           0        0.579123   -2.068656   -0.458519
     30          1           0        0.175247   -2.340515    1.235703
     31          1           0       -5.527694    0.505722    0.907408
     32          1           0       -6.360917   -1.528134   -1.548602
     33          1           0       -5.719629   -2.559409   -0.246828
     34          1           0       -6.664834   -1.111655    0.154347
     35          1           0       -3.146881   -0.166396   -1.778806
     36          1           0       -2.935626   -1.748334   -1.014737
     37          1           0       -4.140090   -1.531775   -2.331445
 ---------------------------------------------------------------------

 SCF Done:  E(UB3LYP) =  -1198.93801709     A.U. after   33 cycles
 SCF Done:  E(UB3LYP) =  -1198.93801709     a.u. after    1 cycles

 The electronic state is 2-A.
 Alpha  occ. eigenvalues --  -88.72184 -18.92349 -14.24034 -14.23343 -14.17184
 Alpha  occ. eigenvalues --  -14.16192 -10.12296 -10.11763 -10.11329 -10.11194
 Alpha  occ. eigenvalues --  -10.10673 -10.09638 -10.08258 -10.07388 -10.06073
 Alpha  occ. eigenvalues --  -10.05873 -10.05454 -10.03892 -10.03343  -7.80827
 Alpha  occ. eigenvalues --   -5.77108  -5.76784  -5.76404  -0.86949  -0.86111
 Alpha  occ. eigenvalues --   -0.84864  -0.82547  -0.76874  -0.69403  -0.64826
 Alpha  occ. eigenvalues --   -0.64293  -0.63615  -0.63250  -0.61417  -0.57862
 Alpha  occ. eigenvalues --   -0.57002  -0.51098  -0.50694  -0.46034  -0.44357
 Alpha  occ. eigenvalues --   -0.42866  -0.40538  -0.39792  -0.38979  -0.37876
 Alpha  occ. eigenvalues --   -0.37783  -0.36648  -0.34772  -0.33528  -0.32641
 Alpha  occ. eigenvalues --   -0.31931  -0.31775  -0.31292  -0.31071  -0.30045
 Alpha  occ. eigenvalues --   -0.29831  -0.29784  -0.28316  -0.27107  -0.26596
 Alpha  occ. eigenvalues --   -0.25359  -0.24942  -0.23880  -0.22523  -0.22055
 Alpha  occ. eigenvalues --   -0.19869  -0.19655  -0.16273  -0.14283  -0.13306
 Alpha  occ. eigenvalues --   -0.13091  -0.09392  -0.08387  -0.07062   0.03919
 Alpha virt. eigenvalues --    0.05577   0.05751   0.07740   0.08414   0.08487
 Alpha virt. eigenvalues --    0.09056   0.09512   0.09958   0.10579   0.10956
 Alpha virt. eigenvalues --    0.11297   0.11482   0.12066   0.12478   0.12835

  Beta  occ. eigenvalues --  -88.72155 -18.92064 -14.23916 -14.23281 -14.17239
  Beta  occ. eigenvalues --  -14.16295 -10.12042 -10.11747 -10.11322 -10.11195
  Beta  occ. eigenvalues --  -10.10306 -10.09644 -10.08052 -10.07203 -10.05898
  Beta  occ. eigenvalues --  -10.05863 -10.05468 -10.03889 -10.03420  -7.80801
  Beta  occ. eigenvalues --   -5.77095  -5.76774  -5.76307  -0.86682  -0.85615
  Beta  occ. eigenvalues --   -0.84684  -0.82323  -0.76760  -0.69309  -0.64733
  Beta  occ. eigenvalues --   -0.64066  -0.63583  -0.63207  -0.61154  -0.57776
  Beta  occ. eigenvalues --   -0.56768  -0.50863  -0.50407  -0.45832  -0.44197
  Beta  occ. eigenvalues --   -0.42681  -0.40394  -0.39717  -0.38787  -0.37736
  Beta  occ. eigenvalues --   -0.37556  -0.36517  -0.34678  -0.33408  -0.32525
  Beta  occ. eigenvalues --   -0.31857  -0.31715  -0.31241  -0.30901  -0.29930
  Beta  occ. eigenvalues --   -0.29780  -0.29671  -0.28033  -0.26859  -0.26332
  Beta  occ. eigenvalues --   -0.24888  -0.24778  -0.23134  -0.22354  -0.21314
  Beta  occ. eigenvalues --   -0.19661  -0.19032  -0.15838  -0.14257  -0.12941
  Beta  occ. eigenvalues --   -0.12677  -0.09072  -0.07731  -0.06431
  Beta virt. eigenvalues --    0.05671   0.05801   0.07659   0.08139   0.08468
  Beta virt. eigenvalues --    0.08623   0.09371   0.09693   0.09925   0.10849
  Beta virt. eigenvalues --    0.11195   0.11358   0.11773   0.12145   0.12415

 Mulliken charges and spin densities:
               1          2
     1  C   -0.335535  -0.059380
     2  N    0.087597   0.033369
     3  C   -0.161556  -0.143928
     4  C    0.017373   0.194097
     5  C    0.959614  -0.056204
     6  C   -0.539916  -0.011815
     7  C   -1.256775   0.079998
     8  C   -0.710153   0.112552
     9  C    1.522521  -0.066227
    10  C   -1.170012   0.121283
    11  O   -0.378469   0.111937
    12  S   -0.502869   0.060628
    13  C   -0.001987   0.145652
    14  N    0.090836  -0.055934
    15  N   -0.055366  -0.043060
    16  C   -0.058635   0.217973
    17  N   -0.018784   0.070625
    18  C    0.018097  -0.356310
    19  C   -0.464496  -0.008315
    20  H    0.111934  -0.001494
    21  H    0.078091   0.064430
    22  H    0.178661  -0.000147
    23  H    0.019795   0.121081
    24  H    0.097754   0.017239
    25  H    0.093321   0.021594
    26  H    0.236041  -0.015870
    27  H    0.074725  -0.001069
    28  H    0.155896   0.002824
    29  H    0.130687   0.006491
    30  H    0.153608   0.005935
    31  H    0.115619   0.002829
    32  H    0.061691   0.072883
    33  H   -0.078036   0.245832
    34  H    0.024217   0.088708
    35  H    0.219945  -0.002455
    36  H    0.203522   0.014234
    37  H    0.081046   0.010013
 Sum of Mulliken charges =  -1.00000   1.00000

 Dipole moment (field-independent basis, Debye):
    X=              1.7691    Y=             -5.5684    Z=             -1.0262  Tot=              5.9322
 Quadrupole moment (field-independent basis, Debye-Ang):
   XX=           -163.0978   YY=           -153.5077   ZZ=           -133.6423
   XY=             -8.5009   XZ=             12.7257   YZ=              0.8774

 Summary of Natural Population Analysis:

                                       Natural Population
                Natural  -----------------------------------------------
    Atom  No    Charge         Core      Valence    Rydberg      Total
 -----------------------------------------------------------------------
      C    1   -0.17413      0.99966     2.16825    0.00622     3.17413
      N    2   -0.23758      0.99967     2.72937    0.00854     3.73758
      C    3   -0.16637      0.99966     2.16099    0.00573     3.16637
      C    4    0.07327      0.99949     1.91554    0.01171     2.92673
      C    5   -0.12241      0.99949     2.11399    0.00894     3.12241
      C    6   -0.19026      0.99962     2.18428    0.00636     3.19026
      C    7   -0.19382      0.99960     2.18701    0.00721     3.19382
      C    8    0.11473      0.99943     1.86857    0.01726     2.88527
      C    9   -0.15937      0.99934     2.14908    0.01095     3.15937
      C   10    0.26653      0.99950     1.71362    0.02036     2.73347
      O   11   -0.30179      0.99989     3.29610    0.00580     4.30179
      S   12    0.19217      4.99943     2.78859    0.01981     7.80783
      C   13    0.18402      0.99960     1.79446    0.02192     2.81598
      N   14   -0.30964      0.99964     2.79788    0.01212     3.80964
      N   15   -0.30041      0.99962     2.78838    0.01241     3.80041
      C   16    0.21615      0.99960     1.76612    0.01813     2.78385
      N   17   -0.22722      0.99967     2.71898    0.00858     3.72722
      C   18   -0.16956      0.99965     2.16323    0.00669     3.16956
      C   19   -0.18266      0.99965     2.17484    0.00817     3.18266
      H   20    0.08878      0.00000     0.40998    0.00123     0.41122
      H   21    0.08492      0.00000     0.41258    0.00250     0.41508
      H   22    0.10235      0.00000     0.39675    0.00089     0.39765
      H   23    0.08312      0.00000     0.41406    0.00282     0.41688
      H   24    0.10070      0.00000     0.39811    0.00119     0.39930
      H   25    0.08529      0.00000     0.41330    0.00141     0.41471
      H   26    0.10452      0.00000     0.39378    0.00169     0.39548
      H   27    0.09249      0.00000     0.40579    0.00172     0.40751
      H   28    0.09301      0.00000     0.40575    0.00124     0.40699
      H   29    0.09797      0.00000     0.40074    0.00128     0.40203
      H   30    0.10060      0.00000     0.39809    0.00131     0.39940
      H   31    0.07145      0.00000     0.42697    0.00158     0.42855
      H   32    0.08765      0.00000     0.41143    0.00092     0.41235
      H   33    0.09368      0.00000     0.40453    0.00179     0.40632
      H   34    0.09713      0.00000     0.40201    0.00086     0.40287
      H   35    0.10705      0.00000     0.39214    0.00081     0.39295
      H   36    0.11024      0.00000     0.38812    0.00163     0.38976
      H   37    0.08746      0.00000     0.41173    0.00081     0.41254
 =======================================================================
   * Total *    0.00006     22.99218    50.76515    0.24260    73.99994

 Normal termination of Gaussian 16 at Sat Dec 12 11:23:14 2020.
