 Gaussian 16, Revision A.03,

 -----------------------------------------------------------
 # opt freq B3LYP/6-31G(d) empiricaldispersion=gd3bj scf=xqc
 -----------------------------------------------------------

 -------------------------------
 CID_84198380_JID_10533_neutraal
 -------------------------------
 Symbolic Z-matrix:
 Charge =  0 Multiplicity = 1

 SCF Done:  E(RB3LYP) =  -807.547536692     A.U. after   15 cycles
 SCF Done:  E(RB3LYP) =  -807.552760623     A.U. after   12 cycles
 SCF Done:  E(RB3LYP) =  -807.553758881     A.U. after   12 cycles
 SCF Done:  E(RB3LYP) =  -807.554115215     A.U. after   12 cycles
 SCF Done:  E(RB3LYP) =  -807.554314271     A.U. after   11 cycles
 SCF Done:  E(RB3LYP) =  -807.554372888     A.U. after   10 cycles
 SCF Done:  E(RB3LYP) =  -807.554387681     A.U. after    9 cycles
 SCF Done:  E(RB3LYP) =  -807.554392530     A.U. after    9 cycles
 SCF Done:  E(RB3LYP) =  -807.554395628     A.U. after    9 cycles
 SCF Done:  E(RB3LYP) =  -807.554397100     A.U. after    9 cycles
 SCF Done:  E(RB3LYP) =  -807.554397947     A.U. after    8 cycles
 SCF Done:  E(RB3LYP) =  -807.554398312     A.U. after    9 cycles
 SCF Done:  E(RB3LYP) =  -807.554398378     A.U. after    7 cycles
 Optimization completed.
    -- Stationary point found.
 Normal termination of Gaussian 16 at Sun Dec 13 20:20:42 2020.

 --------------------------------------------------------------------
 #N Geom=AllCheck Guess=TCheck SCRF=Check GenChk RB3LYP/6-31G(d) Freq
 --------------------------------------------------------------------

 Structure from the checkpoint file:  "JID_10533.chk"
 -------------------------------
 CID_84198380_JID_10533_neutraal
 -------------------------------
 Charge =  0 Multiplicity = 1

 SCF Done:  E(RB3LYP) =  -807.554398378     A.U. after    1 cycles

  Exact polarizability: 272.608 -32.193 177.834  10.941  25.034 158.511
 Approx polarizability: 393.944 -59.766 282.888  24.480  56.798 255.026

                      1                      2                      3
                      A                      A                      A
 Frequencies --     21.8027                29.8993                54.5216
 Red. masses --      3.9342                 3.7110                 4.2359
 Frc consts  --      0.0011                 0.0020                 0.0074
 IR Inten    --      0.0752                 0.0109                 0.5530

                      4                      5                      6
                      A                      A                      A
 Frequencies --     73.0788                80.0652               104.9559
 Red. masses --      3.7188                 4.3230                 1.9261
 Frc consts  --      0.0117                 0.0163                 0.0125
 IR Inten    --      0.3483                 0.5276                 4.5676

                      7                      8                      9
                      A                      A                      A
 Frequencies --    133.3629               143.3434               166.7304
 Red. masses --      2.9243                 1.3532                 2.1211
 Frc consts  --      0.0306                 0.0164                 0.0347
 IR Inten    --      2.7836                 0.6270                 0.9069

                     10                     11                     12
                      A                      A                      A
 Frequencies --    191.1475               204.2465               242.9785
 Red. masses --      3.8254                 3.5634                 2.2369
 Frc consts  --      0.0823                 0.0876                 0.0778
 IR Inten    --      3.1354                 0.5929                 3.6641

                     13                     14                     15
                      A                      A                      A
 Frequencies --    259.3507               266.0647               283.2479
 Red. masses --      2.1103                 3.2488                 2.0730
 Frc consts  --      0.0836                 0.1355                 0.0980
 IR Inten    --      1.0641                 4.1744                 1.6210

                     16                     17                     18
                      A                      A                      A
 Frequencies --    310.8032               337.9249               359.2734
 Red. masses --      2.8590                 2.4090                 2.8735
 Frc consts  --      0.1627                 0.1621                 0.2185
 IR Inten    --     18.3061                16.9737                17.3676

                     19                     20                     21
                      A                      A                      A
 Frequencies --    395.0603               430.5430               456.8156
 Red. masses --      2.0916                 3.1722                 3.2078
 Frc consts  --      0.1923                 0.3465                 0.3944
 IR Inten    --     30.6771                 3.4208                 0.5202

                     22                     23                     24
                      A                      A                      A
 Frequencies --    463.8450               480.9386               517.6984
 Red. masses --      3.0076                 3.0709                 3.4660
 Frc consts  --      0.3813                 0.4185                 0.5473
 IR Inten    --      1.0443                 4.2952                 3.0215

                     25                     26                     27
                      A                      A                      A
 Frequencies --    547.0462               551.9176               577.1322
 Red. masses --      5.3215                 3.5067                 4.1506
 Frc consts  --      0.9383                 0.6293                 0.8145
 IR Inten    --      2.6948                 4.3553                 4.0946

                     28                     29                     30
                      A                      A                      A
 Frequencies --    611.2152               631.9426               675.1487
 Red. masses --      4.2380                 3.0524                 4.1986
 Frc consts  --      0.9328                 0.7182                 1.1276
 IR Inten    --      4.9298                 5.4196                 5.8522

                     31                     32                     33
                      A                      A                      A
 Frequencies --    693.0739               741.7046               753.2347
 Red. masses --      3.9699                 2.6960                 4.2490
 Frc consts  --      1.1235                 0.8739                 1.4204
 IR Inten    --      4.7503                 4.2019                 3.0658

                     34                     35                     36
                      A                      A                      A
 Frequencies --    770.8425               781.4162               788.6781
 Red. masses --      1.5631                 3.3377                 1.6113
 Frc consts  --      0.5472                 1.2008                 0.5905
 IR Inten    --     40.3848                 2.0922                26.9206

                     37                     38                     39
                      A                      A                      A
 Frequencies --    798.9784               808.9348               822.6580
 Red. masses --      2.7689                 1.9097                 1.6217
 Frc consts  --      1.0414                 0.7363                 0.6466
 IR Inten    --      6.6183                46.2337                11.1446

                     40                     41                     42
                      A                      A                      A
 Frequencies --    833.8827               880.7864               884.0441
 Red. masses --      4.1177                 1.5049                 1.3302
 Frc consts  --      1.6870                 0.6879                 0.6125
 IR Inten    --      2.0945                 9.0763                 0.4580

                     43                     44                     45
                      A                      A                      A
 Frequencies --    906.7455               918.8056               940.5139
 Red. masses --      1.4631                 4.8057                 1.2649
 Frc consts  --      0.7087                 2.3903                 0.6592
 IR Inten    --      9.0726                 6.8740                 0.7687

                     46                     47                     48
                      A                      A                      A
 Frequencies --    948.1343               969.6170               981.8109
 Red. masses --      1.3708                 1.8950                 1.2524
 Frc consts  --      0.7261                 1.0497                 0.7113
 IR Inten    --      0.0517                 9.7664                 0.0353

                     49                     50                     51
                      A                      A                      A
 Frequencies --   1019.3749              1019.6172              1050.0787
 Red. masses --      1.8218                 1.5867                 2.5392
 Frc consts  --      1.1153                 0.9719                 1.6497
 IR Inten    --      1.2983                 2.6909                 2.2983

                     52                     53                     54
                      A                      A                      A
 Frequencies --   1054.1871              1074.7961              1085.0968
 Red. masses --      2.3152                 1.5159                 2.1182
 Frc consts  --      1.5159                 1.0317                 1.4694
 IR Inten    --      4.8221                 4.7232                 3.1675

                     55                     56                     57
                      A                      A                      A
 Frequencies --   1098.1034              1114.8304              1149.7966
 Red. masses --      2.3552                 1.5922                 1.6449
 Frc consts  --      1.6733                 1.1659                 1.2813
 IR Inten    --      5.5300                32.2915                 3.2138

                     58                     59                     60
                      A                      A                      A
 Frequencies --   1155.4229              1165.1928              1174.9233
 Red. masses --      1.8892                 1.7020                 1.3344
 Frc consts  --      1.4860                 1.3615                 1.0853
 IR Inten    --      9.8718                26.1090                 9.4091

                     61                     62                     63
                      A                      A                      A
 Frequencies --   1193.9706              1196.4446              1228.7394
 Red. masses --      1.7837                 1.0939                 2.3247
 Frc consts  --      1.4982                 0.9226                 2.0679
 IR Inten    --      2.6738                 0.2455                 3.5119

                     64                     65                     66
                      A                      A                      A
 Frequencies --   1233.5414              1257.6115              1283.9317
 Red. masses --      1.5874                 2.3177                 1.6212
 Frc consts  --      1.4231                 2.1598                 1.5746
 IR Inten    --      4.0066                24.2244                 3.0834

                     67                     68                     69
                      A                      A                      A
 Frequencies --   1294.5532              1306.7144              1314.5726
 Red. masses --      1.8375                 1.7596                 1.4239
 Frc consts  --      1.8143                 1.7703                 1.4497
 IR Inten    --      8.5313                 3.8664                 7.8801

                     70                     71                     72
                      A                      A                      A
 Frequencies --   1341.9634              1344.8137              1355.5296
 Red. masses --      3.9995                 2.5843                 2.8631
 Frc consts  --      4.2436                 2.7538                 3.0996
 IR Inten    --      4.4016                 2.8939                15.7527

                     73                     74                     75
                      A                      A                      A
 Frequencies --   1383.2869              1392.9050              1409.9677
 Red. masses --      1.6004                 2.9762                 1.4842
 Frc consts  --      1.8042                 3.4021                 1.7384
 IR Inten    --      2.6505                17.2293                 9.2097

                     76                     77                     78
                      A                      A                      A
 Frequencies --   1445.1602              1464.0851              1483.9372
 Red. masses --      1.2388                 2.6670                 1.2021
 Frc consts  --      1.5243                 3.3683                 1.5597
 IR Inten    --      0.8887                30.5747                 2.1902

                     79                     80                     81
                      A                      A                      A
 Frequencies --   1485.6398              1498.7880              1504.0347
 Red. masses --      2.2359                 2.6299                 1.1970
 Frc consts  --      2.9076                 3.4808                 1.5954
 IR Inten    --      2.3679                 6.9559                 7.0256

                     82                     83                     84
                      A                      A                      A
 Frequencies --   1510.5948              1511.8836              1516.7048
 Red. masses --      2.4035                 1.1878                 1.0676
 Frc consts  --      3.2314                 1.5996                 1.4470
 IR Inten    --     26.6225                50.0638                 8.7229

                     85                     86                     87
                      A                      A                      A
 Frequencies --   1519.8814              1526.0049              1542.9854
 Red. masses --      1.0763                 1.2768                 1.0784
 Frc consts  --      1.4648                 1.7518                 1.5127
 IR Inten    --      0.8668                25.5528                24.3948

                     88                     89                     90
                      A                      A                      A
 Frequencies --   1548.0179              1549.5365              1609.6564
 Red. masses --      2.6167                 1.0677                 5.7092
 Frc consts  --      3.6945                 1.5105                 8.7155
 IR Inten    --      6.2870                 1.3226                 5.5873

                     91                     92                     93
                      A                      A                      A
 Frequencies --   1631.4403              1637.7181              1663.4316
 Red. masses --      5.4760                 5.6402                 5.6760
 Frc consts  --      8.5872                 8.9130                 9.2535
 IR Inten    --      0.2968                 3.4734                 4.4542

                     94                     95                     96
                      A                      A                      A
 Frequencies --   1679.0964              2931.3718              2949.0744
 Red. masses --      6.4541                 1.0727                 1.0616
 Frc consts  --     10.7210                 5.4306                 5.4398
 IR Inten    --      2.7524                52.8736                98.8673

                     97                     98                     99
                      A                      A                      A
 Frequencies --   3040.1999              3047.1714              3055.0208
 Red. masses --      1.0666                 1.0408                 1.0838
 Frc consts  --      5.8085                 5.6941                 5.9597
 IR Inten    --     14.2216                25.4895                71.3376

                    100                    101                    102
                      A                      A                      A
 Frequencies --   3068.0534              3093.4054              3102.8435
 Red. masses --      1.0728                 1.1002                 1.0956
 Frc consts  --      5.9496                 6.2028                 6.2144
 IR Inten    --     66.3304                28.5829                21.8926

                    103                    104                    105
                      A                      A                      A
 Frequencies --   3114.9452              3134.2084              3173.0209
 Red. masses --      1.1020                 1.1021                 1.0864
 Frc consts  --      6.3000                 6.3784                 6.4444
 IR Inten    --     33.6046                18.6120                11.9367

                    106                    107                    108
                      A                      A                      A
 Frequencies --   3184.1788              3187.2980              3194.9333
 Red. masses --      1.0874                 1.0883                 1.0916
 Frc consts  --      6.4958                 6.5138                 6.5650
 IR Inten    --      6.3974                14.1141                29.5850

                    109                    110                    111
                      A                      A                      A
 Frequencies --   3197.1498              3207.8561              3210.8768
 Red. masses --      1.0905                 1.0975                 1.0933
 Frc consts  --      6.5673                 6.6539                 6.6411
 IR Inten    --     12.0236                32.1313                15.4992

                    112                    113                    114
                      A                      A                      A
 Frequencies --   3267.9390              3485.9069              3673.9821
 Red. masses --      1.0967                 1.0733                 1.0800
 Frc consts  --      6.9004                 7.6840                 8.5894
 IR Inten    --      1.6008                 2.9400                71.3990

 - Thermochemistry -
 -------------------
 Temperature   298.150 Kelvin.  Pressure   1.00000 Atm.
 Atom     1 has atomic number  6 and mass  12.00000

 Molecular mass:   264.16265 amu.
 Principal axes and moments of inertia in atomic units:
                           1         2         3
     Eigenvalues --  3389.726259585.94379**********
           X            0.99990   0.01444   0.00117
           Y           -0.01444   0.99989   0.00415
           Z           -0.00111  -0.00417   0.99999
 This molecule is an asymmetric top.
 Rotational symmetry number  1.
 Warning -- assumption of classical behavior for rotation
           may cause significant error
 Rotational temperatures (Kelvin)      0.02555     0.00904     0.00798
 Rotational constants (GHZ):           0.53242     0.18827     0.16636
 Zero-point vibrational energy     898239.8 (Joules/Mol)
                                  214.68446 (Kcal/Mol)
 Warning -- explicit consideration of  28 degrees of freedom as
           vibrations may cause significant error
 Vibrational temperatures:     31.37    43.02    78.44   105.14   115.20
          (Kelvin)            151.01   191.88   206.24   239.89   275.02
                              293.87   349.59   373.15   382.81   407.53
                              447.18   486.20   516.91   568.40   619.46
                              657.26   667.37   691.96   744.85   787.08
                              794.09   830.36   879.40   909.22   971.39
                              997.18  1067.15  1083.74  1109.07  1124.28
                             1134.73  1149.55  1163.88  1183.62  1199.77
                             1267.26  1271.94  1304.60  1321.96  1353.19
                             1364.15  1395.06  1412.61  1466.65  1467.00
                             1510.83  1516.74  1546.39  1561.21  1579.93
                             1603.99  1654.30  1662.40  1676.45  1690.45
                             1717.86  1721.42  1767.88  1774.79  1809.42
                             1847.29  1862.57  1880.07  1891.38  1930.79
                             1934.89  1950.30  1990.24  2004.08  2028.63
                             2079.26  2106.49  2135.05  2137.50  2156.42
                             2163.97  2173.41  2175.26  2182.20  2186.77
                             2195.58  2220.01  2227.25  2229.44  2315.94
                             2347.28  2356.31  2393.31  2415.85  4217.59
                             4243.06  4374.17  4384.20  4395.49  4414.24
                             4450.72  4464.30  4481.71  4509.43  4565.27
                             4581.32  4585.81  4596.80  4599.99  4615.39
                             4619.74  4701.84  5015.44  5286.04

 Zero-point correction=                           0.342121 (Hartree/Particle)
 Thermal correction to Energy=                    0.360254
 Thermal correction to Enthalpy=                  0.361198
 Thermal correction to Gibbs Free Energy=         0.294712
 Sum of electronic and zero-point Energies=           -807.212277
 Sum of electronic and thermal Energies=              -807.194144
 Sum of electronic and thermal Enthalpies=            -807.193200
 Sum of electronic and thermal Free Energies=         -807.259687

                     E (Thermal)             CV                S
                      KCal/Mol        Cal/Mol-Kelvin    Cal/Mol-Kelvin
 Total                  226.063             70.747            139.933
 Electronic               0.000              0.000              0.000
 Translational            0.889              2.981             42.614
 Rotational               0.889              2.981             34.221
 Vibrational            224.285             64.786             63.098
 Vibration     1          0.593              1.985              6.463
 Vibration     2          0.594              1.984              5.836
 Vibration     3          0.596              1.976              4.646
 Vibration     4          0.599              1.967              4.069
 Vibration     5          0.600              1.963              3.889
 Vibration     6          0.605              1.945              3.360
 Vibration     7          0.613              1.920              2.897
 Vibration     8          0.616              1.910              2.759
 Vibration     9          0.624              1.883              2.472
 Vibration    10          0.634              1.852              2.217
 Vibration    11          0.640              1.834              2.095
 Vibration    12          0.659              1.774              1.781
 Vibration    13          0.668              1.747              1.666
 Vibration    14          0.672              1.735              1.622
 Vibration    15          0.682              1.705              1.514
 Vibration    16          0.700              1.653              1.358
 Vibration    17          0.718              1.600              1.222
 Vibration    18          0.734              1.556              1.125
 Vibration    19          0.762              1.481              0.981
 Vibration    20          0.792              1.404              0.857
 Vibration    21          0.815              1.346              0.775
 Vibration    22          0.821              1.330              0.755
 Vibration    23          0.837              1.292              0.708
 Vibration    24          0.873              1.211              0.615
 Vibration    25          0.902              1.146              0.550
 Vibration    26          0.907              1.135              0.540
 Vibration    27          0.934              1.081              0.491
 Vibration    28          0.970              1.008              0.431

 Optimization completed.
    -- Stationary point found.
 Normal termination of Gaussian 16 at Sun Dec 13 20:43:39 2020.

 ----------------------------------------------------------------------
 # B3LYP/6-311++G(d,p) empiricaldispersion=gd3bj scf=xqc pop=npa geom=c
 heck
 ----------------------------------------------------------------------

 ---------------------------------------
 CID_84198380_JID_10533_Energie_neutraal
 ---------------------------------------
 Structure from the checkpoint file:  "JID_10533.chk"
 Charge =  0 Multiplicity = 1

 SCF Done:  E(RB3LYP) =  -807.765663770     A.U. after   16 cycles
 Normal termination of Gaussian 16 at Sun Dec 13 20:55:06 2020.

 ----------------------------------------------------------------------
 # B3LYP/6-311++G(d,p) empiricaldispersion=gd3bj scf=xqc pop=npa geom=c
 heck
 ----------------------------------------------------------------------

 -------------------------------------
 CID_84198380_JID_10533_Energie_kation
 -------------------------------------
 Structure from the checkpoint file:  "JID_10533.chk"
 Charge =  1 Multiplicity = 2

 SCF Done:  E(UB3LYP) =  -807.501872725     A.U. after   26 cycles
 Normal termination of Gaussian 16 at Sun Dec 13 21:21:33 2020.
 Gaussian 16:  ES64L-G16RevA.03 25-Dec-2016

 ----------------------------------------------------------------------
 # B3LYP/6-311++G(d,p) empiricaldispersion=gd3bj scf=xqc pop=npa geom=c
 heck
 ----------------------------------------------------------------------

 ------------------------------------
 CID_84198380_JID_10533_Energie_anion
 ------------------------------------
 Structure from the checkpoint file:  "JID_10533.chk"
 Charge = -1 Multiplicity = 2

                         Standard orientation:
 ---------------------------------------------------------------------
 Center     Atomic      Atomic             Coordinates (Angstroms)
 Number     Number       Type             X           Y           Z
 ---------------------------------------------------------------------
      1          6           0        2.933000    0.259769    2.282211
      2          6           0        3.309105   -0.210682    0.895870
      3          6           0        4.513561   -0.900332    0.712402
      4          6           0        4.897147   -1.389506   -0.534903
      5          6           0        4.060706   -1.200240   -1.633827
      6          6           0        2.858995   -0.516111   -1.469467
      7          6           0        2.468302   -0.008212   -0.220926
      8          6           0        1.166071    0.704731   -0.118075
      9          6           0        0.000007    0.089359   -0.575952
     10          6           0       -1.224910    0.768726   -0.504674
     11          6           0       -1.252766    2.085794    0.030917
     12          6           0       -0.094572    2.721709    0.486260
     13          6           0        1.099982    2.019415    0.406100
     14          7           0       -2.563195    2.514956   -0.013142
     15          6           0       -3.352160    1.514374   -0.558870
     16          6           0       -2.577634    0.425995   -0.877956
     17          6           0       -3.043238   -0.880993   -1.448258
     18          6           0       -3.048396   -2.013050   -0.408335
     19          7           0       -3.981717   -1.714437    0.669009
     20          6           0       -3.950339   -2.705973    1.734804
     21          1           0        3.458290   -0.328004    3.041846
     22          1           0        3.197599    1.311833    2.446458
     23          1           0        1.857109    0.171862    2.458861
     24          1           0        5.156357   -1.067019    1.573806
     25          1           0        5.838455   -1.921125   -0.644039
     26          1           0        4.342219   -1.577916   -2.612893
     27          1           0        2.207126   -0.350515   -2.322654
     28          1           0        0.047466   -0.921137   -0.971451
     29          1           0       -0.121612    3.733284    0.882189
     30          1           0        2.017756    2.497408    0.732770
     31          1           0       -2.892036    3.420381    0.281675
     32          1           0       -4.416336    1.658621   -0.684576
     33          1           0       -4.058643   -0.771751   -1.845329
     34          1           0       -2.396605   -1.176388   -2.285002
     35          1           0       -3.367383   -2.946740   -0.890488
     36          1           0       -2.015606   -2.180233   -0.044047
     37          1           0       -3.738553   -0.800998    1.049507
     38          1           0       -2.944444   -2.881801    2.161668
     39          1           0       -4.617888   -2.395844    2.545661
     40          1           0       -4.316061   -3.666191    1.351044
 ---------------------------------------------------------------------

 SCF Done:  E(UB3LYP) =  -807.754846232     A.U. after   33 cycles
 SCF Done:  E(UB3LYP) =  -807.754869909     a.u. after    7 cycles

 The electronic state is 2-A.
 Alpha  occ. eigenvalues --  -14.25583 -14.20875 -10.11015 -10.10763 -10.10550
 Alpha  occ. eigenvalues --  -10.10294 -10.09793 -10.09551 -10.09036 -10.08955
 Alpha  occ. eigenvalues --  -10.08767 -10.08758 -10.08680 -10.08421 -10.07938
 Alpha  occ. eigenvalues --  -10.07869 -10.07819 -10.07675 -10.07647 -10.07446
 Alpha  occ. eigenvalues --   -0.88253  -0.81903  -0.78117  -0.74977  -0.71129
 Alpha  occ. eigenvalues --   -0.68992  -0.67890  -0.65800  -0.63081  -0.62419
 Alpha  occ. eigenvalues --   -0.59916  -0.57778  -0.54388  -0.52987  -0.51214
 Alpha  occ. eigenvalues --   -0.50920  -0.48740  -0.46140  -0.44255  -0.42312
 Alpha  occ. eigenvalues --   -0.40395  -0.39521  -0.38402  -0.37784  -0.37351
 Alpha  occ. eigenvalues --   -0.35984  -0.35123  -0.34355  -0.34079  -0.33501
 Alpha  occ. eigenvalues --   -0.33042  -0.32639  -0.32302  -0.30920  -0.30166
 Alpha  occ. eigenvalues --   -0.29813  -0.29223  -0.27834  -0.27229  -0.27129
 Alpha  occ. eigenvalues --   -0.26767  -0.26121  -0.24807  -0.24247  -0.23751
 Alpha  occ. eigenvalues --   -0.18492  -0.17213  -0.16301  -0.14353  -0.12680
 Alpha  occ. eigenvalues --   -0.11393   0.04052
 Alpha virt. eigenvalues --    0.05320   0.05907   0.06169   0.06590   0.06698
 Alpha virt. eigenvalues --    0.07172   0.07446   0.07833   0.08272   0.08816
 Alpha virt. eigenvalues --    0.09507   0.09522   0.10170   0.10638   0.11047

  Beta  occ. eigenvalues --  -14.25526 -14.20866 -10.11015 -10.10745 -10.10546
  Beta  occ. eigenvalues --  -10.10283 -10.09782 -10.09549 -10.09028 -10.08944
  Beta  occ. eigenvalues --  -10.08760 -10.08757 -10.08678 -10.08421 -10.07910
  Beta  occ. eigenvalues --  -10.07851 -10.07807 -10.07667 -10.07637 -10.07446
  Beta  occ. eigenvalues --   -0.88191  -0.81891  -0.78099  -0.74945  -0.71099
  Beta  occ. eigenvalues --   -0.68967  -0.67866  -0.65770  -0.63044  -0.62383
  Beta  occ. eigenvalues --   -0.59888  -0.57745  -0.54343  -0.52959  -0.51171
  Beta  occ. eigenvalues --   -0.50892  -0.48699  -0.46110  -0.44176  -0.42289
  Beta  occ. eigenvalues --   -0.40378  -0.39483  -0.38378  -0.37759  -0.37324
  Beta  occ. eigenvalues --   -0.35958  -0.35095  -0.34328  -0.34046  -0.33468
  Beta  occ. eigenvalues --   -0.33016  -0.32613  -0.32270  -0.30897  -0.30145
  Beta  occ. eigenvalues --   -0.29791  -0.29202  -0.27814  -0.27204  -0.27115
  Beta  occ. eigenvalues --   -0.26752  -0.26104  -0.24785  -0.24207  -0.23723
  Beta  occ. eigenvalues --   -0.18434  -0.17184  -0.16250  -0.14331  -0.12642
  Beta  occ. eigenvalues --   -0.11333
  Beta virt. eigenvalues --    0.05541   0.06026   0.06135   0.06618   0.06801
  Beta virt. eigenvalues --    0.07189   0.07578   0.07677   0.07954   0.08685
  Beta virt. eigenvalues --    0.09250   0.09525   0.09725   0.10431   0.10661

 Mulliken charges and spin densities:
               1          2
     1  C    0.343381  -0.970517
     2  C   -0.019891   0.453841
     3  C    0.011609  -0.388300
     4  C    0.359074  -0.701203
     5  C   -0.197880  -0.150268
     6  C   -0.838681   0.248377
     7  C    0.664083   0.221175
     8  C    0.740598  -0.007734
     9  C   -1.105896   0.155985
    10  C    1.318434  -0.569263
    11  C    0.057712  -0.906530
    12  C    0.194126  -0.748229
    13  C   -0.551736   0.059927
    14  N   -0.142832   0.066097
    15  C   -0.051291  -0.012819
    16  C    0.873596  -0.069601
    17  C   -0.730529   0.008540
    18  C   -0.334571  -0.046120
    19  N   -0.203670   0.029995
    20  C   -0.083017  -0.272929
    21  H   -0.011941   0.146479
    22  H   -0.001560   0.172343
    23  H    0.085488   0.058818
    24  H   -0.208028   0.358290
    25  H   -0.113586   0.258921
    26  H    0.033135   0.120670
    27  H    0.158096   0.017333
    28  H    0.116144   0.040397
    29  H   -0.850258   1.029126
    30  H    0.126724   0.039272
    31  H   -0.582111   0.922000
    32  H   -0.795869   0.981414
    33  H    0.192670  -0.022258
    34  H    0.113456   0.023273
    35  H    0.085504   0.058521
    36  H    0.097810  -0.006996
    37  H    0.239028   0.042776
    38  H    0.024672   0.098228
    39  H   -0.045085   0.171312
    40  H    0.033090   0.089658
 Sum of Mulliken charges =  -1.00000   1.00000

 Dipole moment (field-independent basis, Debye):
    X=              4.0372    Y=             -7.3176    Z=             -3.2331  Tot=              8.9610
 Quadrupole moment (field-independent basis, Debye-Ang):
   XX=           -215.2207   YY=           -187.8297   ZZ=           -148.5096
   XY=             23.3584   XZ=              4.1300   YZ=             -4.1517

 Summary of Natural Population Analysis:

                                       Natural Population
                Natural  -----------------------------------------------
    Atom  No    Charge         Core      Valence    Rydberg      Total
 -----------------------------------------------------------------------
      C    1   -0.29490      0.99964     2.29064    0.00462     3.29490
      C    2   -0.00842      0.99948     1.99958    0.00937     3.00842
      C    3   -0.10139      0.99952     2.09206    0.00982     3.10139
      C    4   -0.10474      0.99956     2.09542    0.00976     3.10474
      C    5   -0.10628      0.99956     2.09687    0.00985     3.10628
      C    6   -0.09400      0.99953     2.08641    0.00806     3.09400
      C    7   -0.01774      0.99945     2.00765    0.01064     3.01774
      C    8   -0.04186      0.99950     2.03157    0.01079     3.04186
      C    9   -0.08734      0.99949     2.08072    0.00714     3.08734
      C   10   -0.04313      0.99946     2.03355    0.01012     3.04313
      C   11    0.08033      0.99947     1.90706    0.01314     2.91967
      C   12   -0.10614      0.99952     2.09679    0.00983     3.10614
      C   13   -0.09770      0.99953     2.08893    0.00924     3.09770
      N   14   -0.26818      0.99966     2.75721    0.01131     3.76818
      C   15    0.00724      0.99949     1.97981    0.01347     2.99276
      C   16   -0.06349      0.99948     2.05238    0.01163     3.06349
      C   17   -0.19832      0.99960     2.19016    0.00856     3.19832
      C   18   -0.07990      0.99963     2.07091    0.00936     3.07990
      N   19   -0.34052      0.99974     2.82956    0.01121     3.84052
      C   20   -0.17689      0.99967     2.17028    0.00694     3.17689
      H   21    0.10000      0.00000     0.39911    0.00089     0.40000
      H   22    0.10565      0.00000     0.39304    0.00131     0.39435
      H   23    0.11118      0.00000     0.38780    0.00101     0.38882
      H   24    0.09844      0.00000     0.40061    0.00095     0.40156
      H   25    0.09898      0.00000     0.40016    0.00086     0.40102
      H   26    0.09858      0.00000     0.40065    0.00077     0.40142
      H   27    0.10208      0.00000     0.39673    0.00119     0.39792
      H   28    0.10013      0.00000     0.39799    0.00189     0.39987
      H   29    0.10748      0.00000     0.39099    0.00153     0.39252
      H   30    0.10039      0.00000     0.39814    0.00147     0.39961
      H   31    0.21082      0.00000     0.25474    0.03444     0.28918
      H   32    0.10387      0.00000     0.39454    0.00158     0.39613
      H   33    0.10381      0.00000     0.39490    0.00129     0.39619
      H   34    0.10047      0.00000     0.39850    0.00103     0.39953
      H   35    0.08644      0.00000     0.41218    0.00138     0.41356
      H   36    0.07922      0.00000     0.41889    0.00189     0.42078
      H   37    0.17666      0.00000     0.31906    0.00428     0.32334
      H   38    0.07806      0.00000     0.41989    0.00205     0.42194
      H   39    0.09421      0.00000     0.40472    0.00107     0.40579
      H   40    0.08690      0.00000     0.41174    0.00136     0.41310
 =======================================================================
   * Total *    0.00000     19.99098    50.75193    0.25709    71.00000

 Normal termination of Gaussian 16 at Mon Dec 14 01:05:07 2020.
