 Gaussian 16, Revision A.03,

 -----------------------------------------------------------
 # opt freq B3LYP/6-31G(d) empiricaldispersion=gd3bj scf=xqc
 -----------------------------------------------------------

 ------------------------------
 CID_15439782_JID_1898_neutraal
 ------------------------------
 Symbolic Z-matrix:
 Charge =  0 Multiplicity = 1

 SCF Done:  E(RB3LYP) =  -480.798880985     A.U. after   15 cycles
 SCF Done:  E(RB3LYP) =  -480.800573054     A.U. after   12 cycles
 SCF Done:  E(RB3LYP) =  -480.800793088     A.U. after   11 cycles
 SCF Done:  E(RB3LYP) =  -480.800847035     A.U. after   11 cycles
 SCF Done:  E(RB3LYP) =  -480.800894160     A.U. after   10 cycles
 SCF Done:  E(RB3LYP) =  -480.800924077     A.U. after   10 cycles
 SCF Done:  E(RB3LYP) =  -480.800942554     A.U. after   11 cycles
 SCF Done:  E(RB3LYP) =  -480.800946019     A.U. after    9 cycles
 SCF Done:  E(RB3LYP) =  -480.800950070     A.U. after   10 cycles
 SCF Done:  E(RB3LYP) =  -480.800951178     A.U. after    9 cycles
 SCF Done:  E(RB3LYP) =  -480.800951425     A.U. after    8 cycles
 SCF Done:  E(RB3LYP) =  -480.800951451     A.U. after    7 cycles
 Optimization completed.
    -- Stationary point found.
 Normal termination of Gaussian 16 at Tue Dec  8 21:30:56 2020.

 --------------------------------------------------------------------
 #N Geom=AllCheck Guess=TCheck SCRF=Check GenChk RB3LYP/6-31G(d) Freq
 --------------------------------------------------------------------

 Structure from the checkpoint file:  "JID_1898.chk"
 ------------------------------
 CID_15439782_JID_1898_neutraal
 ------------------------------
 Charge =  0 Multiplicity = 1

 SCF Done:  E(RB3LYP) =  -480.800951451     A.U. after    1 cycles

  Exact polarizability: 136.104   3.593  96.521 -10.346   9.734  69.960
 Approx polarizability: 194.813  -1.743 147.522 -26.927  23.562 107.222

                      1                      2                      3
                      A                      A                      A
 Frequencies --     34.9307                53.5211                78.7115
 Red. masses --      2.9799                 4.0338                 2.0283
 Frc consts  --      0.0021                 0.0068                 0.0074
 IR Inten    --      0.8402                 1.3676                 1.6520

                      4                      5                      6
                      A                      A                      A
 Frequencies --    108.9134               130.9112               163.6691
 Red. masses --      1.3523                 2.2340                 3.2677
 Frc consts  --      0.0095                 0.0226                 0.0516
 IR Inten    --      0.0911                 1.1730                 1.7820

                      7                      8                      9
                      A                      A                      A
 Frequencies --    183.0252               257.2608               287.3970
 Red. masses --      2.8369                 1.3135                 3.4722
 Frc consts  --      0.0560                 0.0512                 0.1690
 IR Inten    --      0.1676                 0.9791                 0.9367

                     10                     11                     12
                      A                      A                      A
 Frequencies --    360.2658               369.4672               448.0567
 Red. masses --      3.3738                 2.7427                 2.3730
 Frc consts  --      0.2580                 0.2206                 0.2807
 IR Inten    --      3.7575                 0.2637                 1.0267

                     13                     14                     15
                      A                      A                      A
 Frequencies --    521.0948               557.3237               621.4590
 Red. masses --      3.7097                 3.0297                 3.8154
 Frc consts  --      0.5935                 0.5545                 0.8682
 IR Inten    --      1.6737                 0.8278                18.6122

                     16                     17                     18
                      A                      A                      A
 Frequencies --    641.5089               674.3862               679.9863
 Red. masses --      3.5786                 2.3689                 2.6421
 Frc consts  --      0.8677                 0.6348                 0.7198
 IR Inten    --     10.0525                 7.3240                 4.2980

                     19                     20                     21
                      A                      A                      A
 Frequencies --    698.4071               789.7219               813.5893
 Red. masses --      1.3491                 1.3547                 1.4158
 Frc consts  --      0.3877                 0.4978                 0.5521
 IR Inten    --     10.1411                33.2329                12.9526

                     22                     23                     24
                      A                      A                      A
 Frequencies --    867.3620               878.3204               915.7612
 Red. masses --      1.3359                 2.4893                 1.3304
 Frc consts  --      0.5922                 1.1314                 0.6574
 IR Inten    --      4.8246                 2.9097                 2.6417

                     25                     26                     27
                      A                      A                      A
 Frequencies --    944.8213               992.2770              1017.2233
 Red. masses --      3.3096                 2.4200                 2.4313
 Frc consts  --      1.7407                 1.4039                 1.4822
 IR Inten    --     40.6005                 0.0719                 4.8909

                     28                     29                     30
                      A                      A                      A
 Frequencies --   1053.4158              1053.9276              1094.4718
 Red. masses --      1.8148                 1.7666                 1.6583
 Frc consts  --      1.1865                 1.1562                 1.1704
 IR Inten    --      2.7707                 6.8677                 5.3789

                     31                     32                     33
                      A                      A                      A
 Frequencies --   1115.0825              1131.3750              1138.5781
 Red. masses --      1.8510                 1.6964                 1.6312
 Frc consts  --      1.3561                 1.2793                 1.2459
 IR Inten    --     14.5389                19.2093                 7.8415

                     34                     35                     36
                      A                      A                      A
 Frequencies --   1231.1632              1252.7642              1285.9338
 Red. masses --      2.0711                 1.5372                 1.5766
 Frc consts  --      1.8496                 1.4214                 1.5361
 IR Inten    --    139.9908                 4.7862                50.2856

                     37                     38                     39
                      A                      A                      A
 Frequencies --   1314.6464              1388.0383              1397.9053
 Red. masses --      1.1976                 1.7688                 1.4252
 Frc consts  --      1.2195                 2.0078                 1.6409
 IR Inten    --      2.8789                11.0694                 3.6554

                     40                     41                     42
                      A                      A                      A
 Frequencies --   1403.5625              1421.6292              1427.5904
 Red. masses --      1.3215                 3.2099                 3.4542
 Frc consts  --      1.5338                 3.8222                 4.1477
 IR Inten    --     20.6393                43.4193                48.6935

                     43                     44                     45
                      A                      A                      A
 Frequencies --   1447.4974              1452.5874              1501.3162
 Red. masses --      1.2814                 3.6012                 1.0593
 Frc consts  --      1.5818                 4.4769                 1.4067
 IR Inten    --      7.9353                12.4656                 7.9440

                     46                     47                     48
                      A                      A                      A
 Frequencies --   1507.5709              1511.5300              1516.0688
 Red. masses --      1.0485                 1.1066                 1.1189
 Frc consts  --      1.4040                 1.4896                 1.5153
 IR Inten    --      8.9239                17.5058                13.3380

                     49                     50                     51
                      A                      A                      A
 Frequencies --   1530.4025              1537.0707              1559.6484
 Red. masses --      1.0615                 1.0622                 3.1516
 Frc consts  --      1.4648                 1.4786                 4.5168
 IR Inten    --      3.8627                 9.3131                52.3491

                     52                     53                     54
                      A                      A                      A
 Frequencies --   1587.2116              1768.7816              3046.3173
 Red. masses --      4.4670                10.5767                 1.0602
 Frc consts  --      6.6303                19.4962                 5.7970
 IR Inten    --     93.1812               252.3288                17.9084

                     55                     56                     57
                      A                      A                      A
 Frequencies --   3049.9287              3050.3721              3065.2122
 Red. masses --      1.0397                 1.0378                 1.0626
 Frc consts  --      5.6980                 5.6897                 5.8820
 IR Inten    --     22.5752                 5.5703                31.3520

                     58                     59                     60
                      A                      A                      A
 Frequencies --   3082.2800              3109.4306              3112.0428
 Red. masses --      1.0992                 1.1002                 1.1041
 Frc consts  --      6.1529                 6.2671                 6.3002
 IR Inten    --     29.6218                14.1566                10.9620

                     61                     62                     63
                      A                      A                      A
 Frequencies --   3118.7408              3133.1573              3167.5155
 Red. masses --      1.1017                 1.1027                 1.1012
 Frc consts  --      6.3134                 6.3779                 6.5093
 IR Inten    --     45.2100                35.0631                14.2223

                     64                     65                     66
                      A                      A                      A
 Frequencies --   3266.4311              3273.7687              3289.6041
 Red. masses --      1.0908                 1.0961                 1.1027
 Frc consts  --      6.8571                 6.9212                 7.0304
 IR Inten    --      0.6505                 0.2204                 2.4584

 - Thermochemistry -
 -------------------
 Temperature   298.150 Kelvin.  Pressure   1.00000 Atm.
 Atom     1 has atomic number  6 and mass  12.00000

 Molecular mass:   151.09971 amu.
 Principal axes and moments of inertia in atomic units:
                           1         2         3
     Eigenvalues --   802.855873004.710413374.77429
           X            0.99991   0.00769   0.01143
           Y           -0.00779   0.99993   0.00862
           Z           -0.01136  -0.00870   0.99990
 This molecule is an asymmetric top.
 Rotational symmetry number  1.
 Warning -- assumption of classical behavior for rotation
           may cause significant error
 Rotational temperatures (Kelvin)      0.10788     0.02883     0.02567
 Rotational constants (GHZ):           2.24790     0.60064     0.53477
 Zero-point vibrational energy     541214.2 (Joules/Mol)
                                  129.35329 (Kcal/Mol)
 Warning -- explicit consideration of  14 degrees of freedom as
           vibrations may cause significant error
 Vibrational temperatures:     50.26    77.00   113.25   156.70   188.35
          (Kelvin)            235.48   263.33   370.14   413.50   518.34
                              531.58   644.65   749.74   801.86   894.14
                              922.99   970.29   978.35  1004.85  1136.23
                             1170.57  1247.94  1263.71  1317.58  1359.39
                             1427.67  1463.56  1515.63  1516.37  1574.70
                             1604.35  1627.80  1638.16  1771.37  1802.45
                             1850.17  1891.48  1997.08  2011.27  2019.41
                             2045.41  2053.98  2082.63  2089.95  2160.06
                             2169.06  2174.75  2181.28  2201.91  2211.50
                             2243.99  2283.64  2544.88  4382.97  4388.17
                             4388.81  4410.16  4434.71  4473.78  4477.54
                             4487.17  4507.91  4557.35  4699.67  4710.22
                             4733.01

 Zero-point correction=                           0.206138 (Hartree/Particle)
 Thermal correction to Energy=                    0.217682
 Thermal correction to Enthalpy=                  0.218626
 Thermal correction to Gibbs Free Energy=         0.167534
 Sum of electronic and zero-point Energies=           -480.594814
 Sum of electronic and thermal Energies=              -480.583269
 Sum of electronic and thermal Enthalpies=            -480.582325
 Sum of electronic and thermal Free Energies=         -480.633417

                     E (Thermal)             CV                S
                      KCal/Mol        Cal/Mol-Kelvin    Cal/Mol-Kelvin
 Total                  136.598             41.893            107.532
 Electronic               0.000              0.000              0.000
 Translational            0.889              2.981             40.948
 Rotational               0.889              2.981             30.477
 Vibrational            134.820             35.931             36.107
 Vibration     1          0.594              1.983              5.528
 Vibration     2          0.596              1.976              4.683
 Vibration     3          0.600              1.963              3.923
 Vibration     4          0.606              1.942              3.288
 Vibration     5          0.612              1.922              2.933
 Vibration     6          0.623              1.887              2.507
 Vibration     7          0.631              1.863              2.297
 Vibration     8          0.667              1.751              1.680
 Vibration     9          0.685              1.697              1.489
 Vibration    10          0.735              1.554              1.121
 Vibration    11          0.742              1.535              1.082
 Vibration    12          0.807              1.365              0.802
 Vibration    13          0.876              1.203              0.607
 Vibration    14          0.913              1.124              0.529

                           ! Non-Optimized Parameters !
 Normal termination of Gaussian 16 at Tue Dec  8 21:36:48 2020.

 ----------------------------------------------------------------------
 # B3LYP/6-311++G(d,p) empiricaldispersion=gd3bj scf=xqc pop=npa geom=c
 heck
 ----------------------------------------------------------------------

 --------------------------------------
 CID_15439782_JID_1898_Energie_neutraal
 --------------------------------------
 Structure from the checkpoint file:  "JID_1898.chk"
 Charge =  0 Multiplicity = 1

 SCF Done:  E(RB3LYP) =  -480.936172118     A.U. after   15 cycles
 Normal termination of Gaussian 16 at Tue Dec  8 21:39:25 2020.

 ----------------------------------------------------------------------
 # B3LYP/6-311++G(d,p) empiricaldispersion=gd3bj scf=xqc pop=npa geom=c
 heck
 ----------------------------------------------------------------------

 ------------------------------------
 CID_15439782_JID_1898_Energie_kation
 ------------------------------------
 Structure from the checkpoint file:  "JID_1898.chk"
 Charge =  1 Multiplicity = 2

 SCF Done:  E(UB3LYP) =  -480.629303321     A.U. after   27 cycles
 Normal termination of Gaussian 16 at Tue Dec  8 21:47:32 2020.
 Gaussian 16:  ES64L-G16RevA.03 25-Dec-2016

 ----------------------------------------------------------------------
 # B3LYP/6-311++G(d,p) empiricaldispersion=gd3bj scf=xqc pop=npa geom=c
 heck
 ----------------------------------------------------------------------

 -----------------------------------
 CID_15439782_JID_1898_Energie_anion
 -----------------------------------
 Structure from the checkpoint file:  "JID_1898.chk"
 Charge = -1 Multiplicity = 2

                         Standard orientation:
 ---------------------------------------------------------------------
 Center     Atomic      Atomic             Coordinates (Angstroms)
 Number     Number       Type             X           Y           Z
 ---------------------------------------------------------------------
      1          6           0        2.732573   -1.361127    1.079698
      2          6           0        3.238538   -0.182537    0.247177
      3          6           0        2.341612    0.137153   -0.955716
      4          7           0        0.979272    0.480076   -0.568868
      5          6           0        0.600626    1.671758    0.029681
      6          6           0       -0.727997    1.587627    0.359033
      7          6           0       -1.186734    0.293385   -0.044787
      8          6           0       -0.096986   -0.359464   -0.610119
      9          6           0       -2.555244   -0.211426    0.116443
     10          8           0       -3.429992    0.469253    0.637345
     11          6           0       -2.852234   -1.617788   -0.386320
     12          1           0        1.739974   -1.154210    1.492214
     13          1           0        3.408980   -1.568114    1.915267
     14          1           0        2.661541   -2.272446    0.472964
     15          1           0        3.318465    0.712003    0.877371
     16          1           0        4.247172   -0.389454   -0.133538
     17          1           0        2.756427    0.971429   -1.532027
     18          1           0        2.281902   -0.726309   -1.626254
     19          1           0        1.318420    2.469898    0.154489
     20          1           0       -1.339026    2.347314    0.823721
     21          1           0       -0.005766   -1.348663   -1.034750
     22          1           0       -2.652528   -1.695246   -1.461868
     23          1           0       -2.214993   -2.353369    0.119297
     24          1           0       -3.900453   -1.852872   -0.194109
 ---------------------------------------------------------------------

 SCF Done:  E(UB3LYP) =  -480.928310781     A.U. after   32 cycles

 The electronic state is 2-A.
 Alpha  occ. eigenvalues --  -18.97334 -14.25517 -10.12674 -10.10352 -10.08537
 Alpha  occ. eigenvalues --  -10.08506 -10.06770 -10.06066 -10.05856 -10.05142
 Alpha  occ. eigenvalues --  -10.04909  -0.90825  -0.88144  -0.71492  -0.66132
 Alpha  occ. eigenvalues --   -0.63876  -0.61138  -0.58293  -0.50874  -0.49494
 Alpha  occ. eigenvalues --   -0.44828  -0.42976  -0.39303  -0.36604  -0.35493
 Alpha  occ. eigenvalues --   -0.32975  -0.32668  -0.32535  -0.31953  -0.30877
 Alpha  occ. eigenvalues --   -0.29450  -0.28661  -0.27333  -0.26059  -0.25196
 Alpha  occ. eigenvalues --   -0.24717  -0.23917  -0.23587  -0.13444  -0.12974
 Alpha  occ. eigenvalues --   -0.11787   0.04472
 Alpha virt. eigenvalues --    0.06773   0.07605   0.08258   0.08493   0.09641
 Alpha virt. eigenvalues --    0.10667   0.10874   0.11251   0.12038   0.12261
 Alpha virt. eigenvalues --    0.12907   0.13747   0.13864   0.14714   0.15714

  Beta  occ. eigenvalues --  -18.97167 -14.25492 -10.12540 -10.10314 -10.08541
  Beta  occ. eigenvalues --  -10.08380 -10.06736 -10.06071 -10.05839 -10.05137
  Beta  occ. eigenvalues --  -10.04914  -0.90514  -0.88065  -0.71424  -0.66042
  Beta  occ. eigenvalues --   -0.63771  -0.61028  -0.58228  -0.50725  -0.49377
  Beta  occ. eigenvalues --   -0.44712  -0.42873  -0.39133  -0.36491  -0.35415
  Beta  occ. eigenvalues --   -0.32776  -0.32552  -0.32445  -0.31860  -0.30798
  Beta  occ. eigenvalues --   -0.29348  -0.28593  -0.27233  -0.26016  -0.24961
  Beta  occ. eigenvalues --   -0.24649  -0.23846  -0.23053  -0.13235  -0.12823
  Beta  occ. eigenvalues --   -0.11404
  Beta virt. eigenvalues --    0.07236   0.08030   0.08054   0.08776   0.09427
  Beta virt. eigenvalues --    0.10029   0.11158   0.11361   0.11522   0.12341
  Beta virt. eigenvalues --    0.12644   0.13216   0.13803   0.14253   0.14794

 Mulliken charges and spin densities:
               1          2
     1  C    0.499599  -1.048856
     2  C    0.162170  -0.270894
     3  C    0.517016  -0.783935
     4  N    0.211502   0.079407
     5  C    0.051267  -0.496659
     6  C    0.191688   0.329664
     7  C    1.320348  -1.077718
     8  C   -0.997382   0.488496
     9  C   -0.428655   0.061010
    10  O   -0.361662   0.058597
    11  C   -0.093417  -0.442603
    12  H    0.160026  -0.007241
    13  H   -0.099107   0.233408
    14  H   -0.005304   0.145239
    15  H    0.017577   0.108964
    16  H   -0.860798   1.025726
    17  H   -0.486391   0.675757
    18  H   -0.798590   0.960233
    19  H   -0.194694   0.339973
    20  H    0.122104   0.054917
    21  H   -0.156660   0.346774
    22  H   -0.076882   0.231446
    23  H    0.135774   0.003346
    24  H    0.170472  -0.015050
 Sum of Mulliken charges =  -1.00000   1.00000

 Dipole moment (field-independent basis, Debye):
    X=             -3.7921    Y=             -0.0604    Z=              3.0501  Tot=              4.8668
 Quadrupole moment (field-independent basis, Debye-Ang):
   XX=           -149.0494   YY=            -92.0862   ZZ=            -97.5149
   XY=              9.0889   XZ=             13.3324   YZ=             -2.6429

 Summary of Natural Population Analysis:

                                       Natural Population
                Natural  -----------------------------------------------
    Atom  No    Charge         Core      Valence    Rydberg      Total
 -----------------------------------------------------------------------
      C    1   -0.28871      0.99966     2.28341    0.00564     3.28871
      C    2   -0.19385      0.99964     2.18592    0.00829     3.19385
      C    3   -0.07950      0.99960     2.06728    0.01262     3.07950
      N    4   -0.19932      0.99966     2.68761    0.01205     3.69932
      C    5   -0.02554      0.99955     2.01383    0.01215     3.02554
      C    6   -0.12170      0.99953     2.11363    0.00853     3.12170
      C    7   -0.11885      0.99949     2.10820    0.01116     3.11885
      C    8    0.03275      0.99952     1.95627    0.01147     2.96725
      C    9    0.28665      0.99962     1.69384    0.01989     2.71335
      O   10   -0.28897      0.99988     3.28308    0.00601     4.28897
      C   11   -0.33155      0.99964     2.32696    0.00495     3.33155
      H   12    0.10083      0.00000     0.39814    0.00103     0.39917
      H   13    0.09806      0.00000     0.40118    0.00076     0.40194
      H   14    0.09737      0.00000     0.40156    0.00107     0.40263
      H   15    0.09380      0.00000     0.40499    0.00121     0.40620
      H   16    0.10420      0.00000     0.39080    0.00500     0.39580
      H   17    0.10322      0.00000     0.39363    0.00316     0.39678
      H   18    0.10332      0.00000     0.39271    0.00397     0.39668
      H   19    0.09986      0.00000     0.39922    0.00092     0.40014
      H   20    0.10951      0.00000     0.38963    0.00086     0.39049
      H   21    0.10247      0.00000     0.39619    0.00133     0.39753
      H   22    0.10759      0.00000     0.39088    0.00153     0.39241
      H   23    0.10398      0.00000     0.39506    0.00096     0.39602
      H   24    0.10440      0.00000     0.39453    0.00108     0.39560
 =======================================================================
   * Total *    0.00000     10.99579    29.86855    0.13566    41.00000

 Normal termination of Gaussian 16 at Tue Dec  8 21:55:07 2020.
