 Gaussian 16, Revision A.03,

 -----------------------------------------------------------
 # opt freq B3LYP/6-31G(d) empiricaldispersion=gd3bj scf=xqc
 -----------------------------------------------------------

 -------------------------------
 CID_116584639_JID_7941_neutraal
 -------------------------------
 Symbolic Z-matrix:
 Charge =  0 Multiplicity = 1

 SCF Done:  E(RB3LYP) =  -747.587438881     A.U. after   15 cycles
 SCF Done:  E(RB3LYP) =  -747.588529334     A.U. after   15 cycles
 SCF Done:  E(RB3LYP) =  -747.589443043     A.U. after   14 cycles
 SCF Done:  E(RB3LYP) =  -747.591587163     A.U. after   13 cycles
 SCF Done:  E(RB3LYP) =  -747.592871829     A.U. after   12 cycles
 SCF Done:  E(RB3LYP) =  -747.592403373     A.U. after   13 cycles
 SCF Done:  E(RB3LYP) =  -747.592857486     A.U. after   12 cycles
 SCF Done:  E(RB3LYP) =  -747.593268004     A.U. after    9 cycles
 SCF Done:  E(RB3LYP) =  -747.593386541     A.U. after   11 cycles
 SCF Done:  E(RB3LYP) =  -747.593372971     A.U. after   11 cycles
 SCF Done:  E(RB3LYP) =  -747.593416674     A.U. after    9 cycles
 SCF Done:  E(RB3LYP) =  -747.593417416     A.U. after    8 cycles
 SCF Done:  E(RB3LYP) =  -747.593417785     A.U. after    7 cycles
 SCF Done:  E(RB3LYP) =  -747.593417814     A.U. after    7 cycles
 SCF Done:  E(RB3LYP) =  -747.593417841     A.U. after    6 cycles
 Optimization completed.
    -- Stationary point found.
 Normal termination of Gaussian 16 at Fri Dec 11 13:17:52 2020.

 --------------------------------------------------------------------
 #N Geom=AllCheck Guess=TCheck SCRF=Check GenChk RB3LYP/6-31G(d) Freq
 --------------------------------------------------------------------

 Structure from the checkpoint file:  "JID_7941.chk"
 -------------------------------
 CID_116584639_JID_7941_neutraal
 -------------------------------
 Charge =  0 Multiplicity = 1

 SCF Done:  E(RB3LYP) =  -747.593417841     A.U. after    1 cycles

  Exact polarizability: 189.521 -11.232 158.262   0.868   8.902 119.300
 Approx polarizability: 258.182 -19.441 241.398   3.430  33.289 189.648

                      1                      2                      3
                      A                      A                      A
 Frequencies --     32.2066                39.8451                81.3855
 Red. masses --      4.2109                 4.3783                 3.2686
 Frc consts  --      0.0026                 0.0041                 0.0128
 IR Inten    --      2.0595                 0.1110                 0.8277

                      4                      5                      6
                      A                      A                      A
 Frequencies --    102.7049               128.4510               153.7079
 Red. masses --      3.1916                 3.7754                 3.3607
 Frc consts  --      0.0198                 0.0367                 0.0468
 IR Inten    --      0.2559                 0.6596                 3.1432

                      7                      8                      9
                      A                      A                      A
 Frequencies --    168.4146               185.5813               188.6792
 Red. masses --      4.3550                 3.8478                 4.4725
 Frc consts  --      0.0728                 0.0781                 0.0938
 IR Inten    --      4.1562                 0.7395                 1.4699

                     10                     11                     12
                      A                      A                      A
 Frequencies --    201.0671               225.8729               243.2296
 Red. masses --      2.8251                 1.4523                 2.2271
 Frc consts  --      0.0673                 0.0437                 0.0776
 IR Inten    --      3.0924                 1.5351                 1.7909

                     13                     14                     15
                      A                      A                      A
 Frequencies --    261.2454               323.4332               335.7068
 Red. masses --      2.0116                 3.2632                 1.6839
 Frc consts  --      0.0809                 0.2011                 0.1118
 IR Inten    --      0.4885                 8.9181                 1.6680

                     16                     17                     18
                      A                      A                      A
 Frequencies --    356.2760               369.0133               384.9049
 Red. masses --      1.2017                 3.4939                 3.8244
 Frc consts  --      0.0899                 0.2803                 0.3338
 IR Inten    --     51.2867                 5.4589                 0.8137

                     19                     20                     21
                      A                      A                      A
 Frequencies --    418.5104               448.3318               484.0568
 Red. masses --      3.1308                 2.3557                 3.3709
 Frc consts  --      0.3231                 0.2790                 0.4654
 IR Inten    --      0.9570                 2.4245                 6.7278

                     22                     23                     24
                      A                      A                      A
 Frequencies --    504.9805               513.7674               559.0061
 Red. masses --      3.3463                 3.9683                 2.1425
 Frc consts  --      0.5028                 0.6171                 0.3945
 IR Inten    --      4.6491                 4.5107                 2.2561

                     25                     26                     27
                      A                      A                      A
 Frequencies --    651.3106               686.9700               688.2394
 Red. masses --      3.7539                 4.1553                 5.8869
 Frc consts  --      0.9382                 1.1554                 1.6429
 IR Inten    --      1.1359                 7.4463                11.5743

                     28                     29                     30
                      A                      A                      A
 Frequencies --    762.3678               770.9379               787.6405
 Red. masses --      2.4584                 1.4673                 2.2691
 Frc consts  --      0.8418                 0.5138                 0.8294
 IR Inten    --      6.6533                18.3160                 5.4859

                     31                     32                     33
                      A                      A                      A
 Frequencies --    800.6983               805.9587               855.1726
 Red. masses --      1.7789                 1.8216                 1.7797
 Frc consts  --      0.6719                 0.6972                 0.7668
 IR Inten    --      3.8060                 3.8598                26.8641

                     34                     35                     36
                      A                      A                      A
 Frequencies --    857.7729               860.7294               896.2883
 Red. masses --      1.8354                 1.8114                 1.7898
 Frc consts  --      0.7957                 0.7907                 0.8471
 IR Inten    --      7.2261                 2.9795                35.1061

                     37                     38                     39
                      A                      A                      A
 Frequencies --    923.3330               931.1655               949.7551
 Red. masses --      1.9476                 2.4308                 1.9798
 Frc consts  --      0.9783                 1.2418                 1.0522
 IR Inten    --     20.3221                16.5226                64.8218

                     40                     41                     42
                      A                      A                      A
 Frequencies --    951.6306               980.2363              1003.5376
 Red. masses --      2.4684                 2.2675                 1.5567
 Frc consts  --      1.3171                 1.2837                 0.9237
 IR Inten    --     63.0954                 8.4585                13.0914

                     43                     44                     45
                      A                      A                      A
 Frequencies --   1026.3078              1054.0606              1065.6382
 Red. masses --      2.9233                 2.0836                 2.1506
 Frc consts  --      1.8142                 1.3639                 1.4389
 IR Inten    --     70.2647                 2.2882                 4.9743

                     46                     47                     48
                      A                      A                      A
 Frequencies --   1078.5018              1100.4455              1112.0485
 Red. masses --      2.1990                 1.7198                 1.9931
 Frc consts  --      1.5070                 1.2270                 1.4522
 IR Inten    --     28.0578                 2.2567                 5.7409

                     49                     50                     51
                      A                      A                      A
 Frequencies --   1120.6050              1127.2461              1128.1154
 Red. masses --      1.5343                 1.8953                 1.7303
 Frc consts  --      1.1352                 1.4189                 1.2974
 IR Inten    --      6.4237                 4.4890                 1.1219

                     52                     53                     54
                      A                      A                      A
 Frequencies --   1162.2236              1169.0786              1192.1628
 Red. masses --      1.6280                 1.5686                 1.3124
 Frc consts  --      1.2956                 1.2631                 1.0990
 IR Inten    --      5.3498                 6.6936                 7.1776

                     55                     56                     57
                      A                      A                      A
 Frequencies --   1198.2173              1242.0384              1250.9920
 Red. masses --      1.9678                 1.3145                 2.9494
 Frc consts  --      1.6646                 1.1948                 2.7195
 IR Inten    --     24.0006                 2.7120                17.4946

                     58                     59                     60
                      A                      A                      A
 Frequencies --   1278.9436              1293.5165              1298.8608
 Red. masses --      1.3163                 1.8676                 1.3897
 Frc consts  --      1.2685                 1.8411                 1.3814
 IR Inten    --     12.2272                15.7315                 8.0445

                     61                     62                     63
                      A                      A                      A
 Frequencies --   1318.6782              1337.3603              1345.5485
 Red. masses --      1.3088                 1.3323                 2.5020
 Frc consts  --      1.3409                 1.4039                 2.6689
 IR Inten    --      3.4807                 8.6457                38.1858

                     64                     65                     66
                      A                      A                      A
 Frequencies --   1359.7527              1376.3009              1383.2305
 Red. masses --      1.3067                 1.3787                 1.2896
 Frc consts  --      1.4235                 1.5386                 1.4537
 IR Inten    --      2.7632                15.8548                 0.2085

                     67                     68                     69
                      A                      A                      A
 Frequencies --   1398.2135              1404.3491              1408.5223
 Red. masses --      1.5503                 1.3380                 1.3857
 Frc consts  --      1.7857                 1.5548                 1.6197
 IR Inten    --      2.1798                16.5684                 1.8124

                     70                     71                     72
                      A                      A                      A
 Frequencies --   1416.1695              1420.6486              1427.9557
 Red. masses --      1.4732                 1.9655                 2.6493
 Frc consts  --      1.7408                 2.3373                 3.1828
 IR Inten    --      2.3263                76.2143                 6.2847

                     73                     74                     75
                      A                      A                      A
 Frequencies --   1438.7020              1454.9811              1464.9747
 Red. masses --      1.3075                 1.4429                 2.3225
 Frc consts  --      1.5945                 1.7997                 2.9368
 IR Inten    --     12.3169                11.3977               119.3273

                     76                     77                     78
                      A                      A                      A
 Frequencies --   1493.4856              1511.4709              1516.0825
 Red. masses --      1.8681                 1.0951                 1.0946
 Frc consts  --      2.4550                 1.4740                 1.4824
 IR Inten    --     14.6664                 0.2948                 4.3227

                     79                     80                     81
                      A                      A                      A
 Frequencies --   1516.2664              1519.5673              1521.3053
 Red. masses --      1.3152                 1.0830                 1.2430
 Frc consts  --      1.7815                 1.4733                 1.6950
 IR Inten    --     19.2104                 8.5159                29.5518

                     82                     83                     84
                      A                      A                      A
 Frequencies --   1532.2434              1536.7900              1539.7719
 Red. masses --      1.1011                 1.0899                 1.0868
 Frc consts  --      1.5232                 1.5166                 1.5181
 IR Inten    --      8.4598                 3.1729                 1.1159

                     85                     86                     87
                      A                      A                      A
 Frequencies --   1549.8229              1725.7692              1730.2592
 Red. masses --      3.3852                 1.1686                 5.8199
 Frc consts  --      4.7907                 2.0505                10.2656
 IR Inten    --      4.1897                48.7299               112.9046

                     88                     89                     90
                      A                      A                      A
 Frequencies --   2922.2059              3017.3723              3025.8385
 Red. masses --      1.0732                 1.0672                 1.0801
 Frc consts  --      5.3996                 5.7247                 5.8267
 IR Inten    --     81.8234                24.6513                13.4351

                     91                     92                     93
                      A                      A                      A
 Frequencies --   3031.2385              3038.2789              3048.9583
 Red. masses --      1.0652                 1.0639                 1.0697
 Frc consts  --      5.7665                 5.7862                 5.8589
 IR Inten    --     36.5925                27.9051                62.4637

                     94                     95                     96
                      A                      A                      A
 Frequencies --   3060.2370              3063.5362              3068.8596
 Red. masses --      1.0868                 1.0367                 1.0943
 Frc consts  --      5.9965                 5.7328                 6.0724
 IR Inten    --     47.8845                20.9467                82.1625

                     97                     98                     99
                      A                      A                      A
 Frequencies --   3070.6679              3085.1856              3089.3492
 Red. masses --      1.1010                 1.1010                 1.0685
 Frc consts  --      6.1163                 6.1743                 6.0087
 IR Inten    --     33.7994                47.8177                28.5832

                    100                    101                    102
                      A                      A                      A
 Frequencies --   3111.4126              3119.1970              3128.8735
 Red. masses --      1.0841                 1.0952                 1.1030
 Frc consts  --      6.1835                 6.2782                 6.3624
 IR Inten    --      4.2936                31.2049                20.8388

                    103                    104                    105
                      A                      A                      A
 Frequencies --   3159.3919              3178.5583              3263.1027
 Red. masses --      1.0990                 1.0999                 1.0916
 Frc consts  --      6.4634                 6.5472                 6.8480
 IR Inten    --     11.9014                 5.7104                 5.8110

                    106                    107                    108
                      A                      A                      A
 Frequencies --   3285.9535              3447.7462              3536.4535
 Red. masses --      1.1040                 1.0515                 1.0910
 Frc consts  --      7.0236                 7.3643                 8.0391
 IR Inten    --      3.7804                46.5942                17.3554

 - Thermochemistry -
 -------------------
 Temperature   298.150 Kelvin.  Pressure   1.00000 Atm.
 Atom     1 has atomic number  6 and mass  12.00000

 Molecular mass:   235.16846 amu.
 Principal axes and moments of inertia in atomic units:
                           1         2         3
     Eigenvalues --  2535.075904986.022276435.58969
           X            0.99991   0.01274   0.00363
           Y           -0.01270   0.99985  -0.01141
           Z           -0.00377   0.01136   0.99993
 This molecule is an asymmetric top.
 Rotational symmetry number  1.
 Warning -- assumption of classical behavior for rotation
           may cause significant error
 Rotational temperatures (Kelvin)      0.03417     0.01737     0.01346
 Rotational constants (GHZ):           0.71191     0.36196     0.28043
 Zero-point vibrational energy     886275.9 (Joules/Mol)
                                  211.82503 (Kcal/Mol)
 Warning -- explicit consideration of  24 degrees of freedom as
           vibrations may cause significant error
 Vibrational temperatures:     46.34    57.33   117.10   147.77   184.81
          (Kelvin)            221.15   242.31   267.01   271.47   289.29
                              324.98   349.95   375.87   465.35   483.01
                              512.60   530.93   553.79   602.14   645.05
                              696.45   726.55   739.20   804.29   937.09
                              988.40   990.22  1096.88  1109.21  1133.24
                             1152.03  1159.59  1230.40  1234.14  1238.40
                             1289.56  1328.47  1339.74  1366.49  1369.18
                             1410.34  1443.87  1476.63  1516.56  1533.22
                             1551.72  1583.30  1599.99  1612.30  1621.86
                             1623.11  1672.18  1682.04  1715.26  1723.97
                             1787.02  1799.90  1840.11  1861.08  1868.77
                             1897.28  1924.16  1935.94  1956.38  1980.19
                             1990.16  2011.72  2020.55  2026.55  2037.55
                             2044.00  2054.51  2069.97  2093.39  2107.77
                             2148.79  2174.67  2181.30  2181.57  2186.32
                             2188.82  2204.56  2211.10  2215.39  2229.85
                             2483.00  2489.46  4204.40  4341.33  4353.51
                             4361.28  4371.41  4386.77  4403.00  4407.75
                             4415.40  4418.01  4438.89  4444.88  4476.63
                             4487.83  4501.75  4545.66  4573.24  4694.88
                             4727.75  4960.54  5088.17

 Zero-point correction=                           0.337565 (Hartree/Particle)
 Thermal correction to Energy=                    0.353791
 Thermal correction to Enthalpy=                  0.354735
 Thermal correction to Gibbs Free Energy=         0.293933
 Sum of electronic and zero-point Energies=           -747.255853
 Sum of electronic and thermal Energies=              -747.239627
 Sum of electronic and thermal Enthalpies=            -747.238683
 Sum of electronic and thermal Free Energies=         -747.299485

                     E (Thermal)             CV                S
                      KCal/Mol        Cal/Mol-Kelvin    Cal/Mol-Kelvin
 Total                  222.007             63.336            127.969
 Electronic               0.000              0.000              0.000
 Translational            0.889              2.981             42.267
 Rotational               0.889              2.981             32.764
 Vibrational            220.230             57.374             52.938
 Vibration     1          0.594              1.983              5.689
 Vibration     2          0.594              1.981              5.267
 Vibration     3          0.600              1.962              3.857
 Vibration     4          0.605              1.947              3.402
 Vibration     5          0.611              1.925              2.969
 Vibration     6          0.619              1.899              2.626
 Vibration     7          0.625              1.881              2.453
 Vibration     8          0.632              1.860              2.272
 Vibration     9          0.633              1.855              2.241
 Vibration    10          0.638              1.838              2.123
 Vibration    11          0.650              1.802              1.912
 Vibration    12          0.659              1.774              1.779
 Vibration    13          0.669              1.744              1.653
 Vibration    14          0.708              1.629              1.293
 Vibration    15          0.717              1.604              1.232
 Vibration    16          0.732              1.562              1.138
 Vibration    17          0.741              1.536              1.084
 Vibration    18          0.754              1.502              1.020
 Vibration    19          0.781              1.430              0.897
 Vibration    20          0.807              1.365              0.801
 Vibration    21          0.840              1.285              0.699
 Vibration    22          0.860              1.239              0.646
 Vibration    23          0.869              1.219              0.625
 Vibration    24          0.915              1.120              0.526

 Optimization completed.
    -- Stationary point found.
 Normal termination of Gaussian 16 at Fri Dec 11 13:35:25 2020.

 ----------------------------------------------------------------------
 # B3LYP/6-311++G(d,p) empiricaldispersion=gd3bj scf=xqc pop=npa geom=c
 heck
 ----------------------------------------------------------------------

 ---------------------------------------
 CID_116584639_JID_7941_Energie_neutraal
 ---------------------------------------
 Structure from the checkpoint file:  "JID_7941.chk"
 Charge =  0 Multiplicity = 1

 SCF Done:  E(RB3LYP) =  -747.801173802     A.U. after   15 cycles
 Normal termination of Gaussian 16 at Fri Dec 11 13:44:18 2020.

 ----------------------------------------------------------------------
 # B3LYP/6-311++G(d,p) empiricaldispersion=gd3bj scf=xqc pop=npa geom=c
 heck
 ----------------------------------------------------------------------

 -------------------------------------
 CID_116584639_JID_7941_Energie_kation
 -------------------------------------
 Structure from the checkpoint file:  "JID_7941.chk"
 Charge =  1 Multiplicity = 2

 SCF Done:  E(UB3LYP) =  -747.498763659     A.U. after   33 cycles
 SCF Done:  E(UB3LYP) =  -747.498763659     a.u. after    1 cycles
 Normal termination of Gaussian 16 at Fri Dec 11 14:12:09 2020.
 Gaussian 16:  ES64L-G16RevA.03 25-Dec-2016

 ----------------------------------------------------------------------
 # B3LYP/6-311++G(d,p) empiricaldispersion=gd3bj scf=xqc pop=npa geom=c
 heck
 ----------------------------------------------------------------------

 ------------------------------------
 CID_116584639_JID_7941_Energie_anion
 ------------------------------------
 Structure from the checkpoint file:  "JID_7941.chk"
 Charge = -1 Multiplicity = 2

                         Standard orientation:
 ---------------------------------------------------------------------
 Center     Atomic      Atomic             Coordinates (Angstroms)
 Number     Number       Type             X           Y           Z
 ---------------------------------------------------------------------
      1          6           0       -2.953696   -2.592297   -0.130354
      2          6           0       -2.803527   -1.375977   -1.039595
      3          7           0       -2.527125   -0.149446   -0.279582
      4          6           0       -3.473710    0.776559    0.061728
      5          6           0       -2.825913    1.742898    0.807360
      6          7           0       -1.509441    1.424554    0.935086
      7          6           0       -1.336213    0.274426    0.277107
      8          6           0       -0.050531   -0.433138    0.134135
      9          8           0        0.005931   -1.484508   -0.504860
     10          6           0        1.162545    0.195030    0.801322
     11          6           0        1.977398   -0.850319    1.598845
     12          6           0        2.769849   -1.828391    0.721508
     13          6           0        3.634021   -1.086871   -0.305756
     14          6           0        2.801331   -0.100776   -1.135236
     15          6           0        2.077776    0.911514   -0.236836
     16          6           0        1.342112    1.985723   -1.046343
     17          7           0        0.899163    3.087731   -0.189692
     18          1           0       -2.013879   -2.789156    0.390222
     19          1           0       -3.204889   -3.473635   -0.729936
     20          1           0       -3.748114   -2.435698    0.606967
     21          1           0       -1.986140   -1.525028   -1.743313
     22          1           0       -3.723877   -1.189037   -1.600905
     23          1           0       -4.502346    0.670430   -0.250441
     24          1           0       -3.241610    2.638582    1.247835
     25          1           0        0.797564    0.952058    1.499308
     26          1           0        2.675860   -0.288331    2.234173
     27          1           0        1.312539   -1.399624    2.277209
     28          1           0        2.072512   -2.489223    0.198810
     29          1           0        3.401263   -2.458638    1.361100
     30          1           0        4.137776   -1.805830   -0.963759
     31          1           0        4.426229   -0.530230    0.216969
     32          1           0        2.070611   -0.653126   -1.739037
     33          1           0        3.450298    0.442104   -1.835095
     34          1           0        2.833886    1.441308    0.360173
     35          1           0        2.044875    2.393598   -1.783707
     36          1           0        0.528715    1.508169   -1.628100
     37          1           0        0.539700    3.842167   -0.771938
     38          1           0        0.114732    2.775044    0.384350
 ---------------------------------------------------------------------

 SCF Done:  E(UB3LYP) =  -747.809621070     A.U. after   31 cycles

 The electronic state is 2-A.
 Alpha  occ. eigenvalues --  -18.91137 -14.21367 -14.15720 -14.13897 -10.08309
 Alpha  occ. eigenvalues --  -10.06141 -10.06047 -10.05414 -10.05265 -10.04784
 Alpha  occ. eigenvalues --  -10.04530 -10.04365 -10.03833 -10.03729 -10.03666
 Alpha  occ. eigenvalues --  -10.03609 -10.02469  -0.87498  -0.84978  -0.75300
 Alpha  occ. eigenvalues --   -0.74335  -0.70088  -0.63581  -0.62651  -0.62046
 Alpha  occ. eigenvalues --   -0.59847  -0.53387  -0.52258  -0.50097  -0.46380
 Alpha  occ. eigenvalues --   -0.45642  -0.45307  -0.42065  -0.39537  -0.36381
 Alpha  occ. eigenvalues --   -0.35280  -0.34934  -0.33157  -0.32461  -0.32265
 Alpha  occ. eigenvalues --   -0.31475  -0.30448  -0.29664  -0.29398  -0.28650
 Alpha  occ. eigenvalues --   -0.27559  -0.26053  -0.25866  -0.25307  -0.24731
 Alpha  occ. eigenvalues --   -0.23602  -0.23300  -0.22652  -0.22178  -0.21330
 Alpha  occ. eigenvalues --   -0.20315  -0.19988  -0.17594  -0.16727  -0.14109
 Alpha  occ. eigenvalues --   -0.13401  -0.11159  -0.09286  -0.07682   0.04880
 Alpha virt. eigenvalues --    0.07754   0.08263   0.09073   0.09594   0.09890
 Alpha virt. eigenvalues --    0.10396   0.10693   0.11355   0.11757   0.12549
 Alpha virt. eigenvalues --    0.13111   0.13376   0.13686   0.13862   0.14835

  Beta  occ. eigenvalues --  -18.90499 -14.21075 -14.15717 -14.13575 -10.08319
  Beta  occ. eigenvalues --  -10.06107 -10.06039 -10.05121 -10.04958 -10.04783
  Beta  occ. eigenvalues --  -10.04624 -10.04341 -10.03788 -10.03729 -10.03640
  Beta  occ. eigenvalues --  -10.03607 -10.02508  -0.86980  -0.83929  -0.75244
  Beta  occ. eigenvalues --   -0.73909  -0.70036  -0.63393  -0.62547  -0.61912
  Beta  occ. eigenvalues --   -0.59584  -0.53251  -0.52098  -0.49792  -0.46014
  Beta  occ. eigenvalues --   -0.45560  -0.45145  -0.41868  -0.39353  -0.36316
  Beta  occ. eigenvalues --   -0.34997  -0.34760  -0.33075  -0.32168  -0.32050
  Beta  occ. eigenvalues --   -0.31444  -0.30233  -0.29273  -0.29206  -0.28492
  Beta  occ. eigenvalues --   -0.27449  -0.25800  -0.25705  -0.24881  -0.24582
  Beta  occ. eigenvalues --   -0.23417  -0.23205  -0.22533  -0.21912  -0.20793
  Beta  occ. eigenvalues --   -0.20043  -0.18604  -0.17423  -0.15965  -0.13171
  Beta  occ. eigenvalues --   -0.12601  -0.11006  -0.07960  -0.07151
  Beta virt. eigenvalues --    0.07789   0.08233   0.09048   0.09544   0.09926
  Beta virt. eigenvalues --    0.10363   0.10572   0.11232   0.11638   0.12091
  Beta virt. eigenvalues --    0.12640   0.13085   0.13324   0.13653   0.13814

 Mulliken charges and spin densities:
               1          2
     1  C   -0.246992  -0.190527
     2  C   -0.061810  -0.032344
     3  N    0.171352   0.081803
     4  C   -0.147703   0.192801
     5  C   -0.002752  -0.128202
     6  N   -0.112498   0.137446
     7  C   -0.310618  -0.047571
     8  C   -0.663579   0.303917
     9  O   -0.384391   0.224345
    10  C    0.626540   0.064110
    11  C   -0.549649  -0.026528
    12  C   -0.353198   0.005921
    13  C   -0.536113  -0.004392
    14  C   -0.243745   0.004506
    15  C    0.195683  -0.081814
    16  C   -0.767187   0.020236
    17  N   -0.358353   0.003194
    18  H    0.165253   0.040729
    19  H   -0.027790   0.126766
    20  H    0.122257  -0.003677
    21  H    0.198246  -0.019078
    22  H   -0.093885   0.214745
    23  H    0.028824   0.078530
    24  H    0.105669   0.008571
    25  H    0.287337   0.004597
    26  H    0.114648   0.001814
    27  H    0.124267   0.009766
    28  H    0.174129  -0.000143
    29  H    0.122398   0.000819
    30  H    0.139968   0.000090
    31  H    0.087189  -0.000109
    32  H    0.191207  -0.001085
    33  H    0.102638   0.001481
    34  H    0.169189   0.001622
    35  H    0.136404   0.007256
    36  H    0.130572   0.003240
    37  H    0.207301   0.001979
    38  H    0.259192  -0.004814
 Sum of Mulliken charges =  -1.00000   1.00000

 Dipole moment (field-independent basis, Debye):
    X=              1.4600    Y=             -0.3547    Z=             -0.8713  Tot=              1.7368
 Quadrupole moment (field-independent basis, Debye-Ang):
   XX=           -137.6367   YY=           -132.7217   ZZ=           -117.9330
   XY=             -2.3767   XZ=             -1.2550   YZ=             -5.8317

 Summary of Natural Population Analysis:

                                       Natural Population
                Natural  -----------------------------------------------
    Atom  No    Charge         Core      Valence    Rydberg      Total
 -----------------------------------------------------------------------
      C    1   -0.29010      0.99966     2.28459    0.00585     3.29010
      C    2   -0.08543      0.99963     2.07471    0.01109     3.08543
      N    3   -0.16314      0.99961     2.65345    0.01008     3.66314
      C    4   -0.01333      0.99958     2.00026    0.01350     3.01333
      C    5   -0.06343      0.99960     2.05056    0.01327     3.06343
      N    6   -0.22921      0.99969     2.72003    0.00949     3.72921
      C    7    0.15536      0.99955     1.82435    0.02074     2.84464
      C    8    0.31155      0.99958     1.66677    0.02211     2.68845
      O    9   -0.26210      0.99988     3.25654    0.00568     4.26210
      C   10   -0.15127      0.99955     2.13967    0.01205     3.15127
      C   11   -0.17597      0.99962     2.16838    0.00797     3.17597
      C   12   -0.19467      0.99963     2.18782    0.00722     3.19467
      C   13   -0.18434      0.99964     2.17772    0.00699     3.18434
      C   14   -0.19293      0.99961     2.18556    0.00776     3.19293
      C   15   -0.09796      0.99958     2.08836    0.01002     3.09796
      C   16   -0.08411      0.99960     2.07461    0.00990     3.08411
      N   17   -0.43618      0.99976     2.92626    0.01016     3.93618
      H   18    0.11363      0.00000     0.38521    0.00116     0.38637
      H   19    0.09205      0.00000     0.40680    0.00114     0.40795
      H   20    0.09215      0.00000     0.40702    0.00083     0.40785
      H   21    0.11445      0.00000     0.38420    0.00136     0.38555
      H   22    0.08637      0.00000     0.41225    0.00137     0.41363
      H   23    0.09178      0.00000     0.40725    0.00096     0.40822
      H   24    0.08726      0.00000     0.41178    0.00095     0.41274
      H   25    0.11405      0.00000     0.38461    0.00134     0.38595
      H   26    0.08623      0.00000     0.41254    0.00122     0.41377
      H   27    0.09801      0.00000     0.40097    0.00102     0.40199
      H   28    0.11216      0.00000     0.38654    0.00129     0.38784
      H   29    0.08494      0.00000     0.41373    0.00132     0.41506
      H   30    0.09024      0.00000     0.40857    0.00120     0.40976
      H   31    0.08448      0.00000     0.41404    0.00148     0.41552
      H   32    0.10798      0.00000     0.39068    0.00134     0.39202
      H   33    0.08761      0.00000     0.41104    0.00135     0.41239
      H   34    0.08966      0.00000     0.40844    0.00189     0.41034
      H   35    0.07957      0.00000     0.41902    0.00141     0.42043
      H   36    0.08400      0.00000     0.41474    0.00126     0.41600
      H   37    0.16505      0.00000     0.33324    0.00171     0.33495
      H   38    0.19559      0.00000     0.30241    0.00201     0.30441
 =======================================================================
   * Total *    0.00000     16.99377    46.79477    0.21146    64.00000

 Normal termination of Gaussian 16 at Fri Dec 11 14:38:16 2020.
