 Gaussian 16, Revision A.03,

 -----------------------------------------------------------
 # opt freq B3LYP/6-31G(d) empiricaldispersion=gd3bj scf=xqc
 -----------------------------------------------------------

 ------------------------------
 CID_83235572_JID_3657_neutraal
 ------------------------------
 Symbolic Z-matrix:
 Charge =  0 Multiplicity = 1

 SCF Done:  E(RB3LYP) =  -613.728215596     A.U. after   15 cycles
 SCF Done:  E(RB3LYP) =  -613.731023562     A.U. after   14 cycles
 SCF Done:  E(RB3LYP) =  -613.735155655     A.U. after   12 cycles
 SCF Done:  E(RB3LYP) =  -613.734308056     A.U. after   13 cycles
 SCF Done:  E(RB3LYP) =  -613.734208661     A.U. after   13 cycles
 SCF Done:  E(RB3LYP) =  -613.734409661     A.U. after   13 cycles
 SCF Done:  E(RB3LYP) =  -613.736839653     A.U. after   10 cycles
 SCF Done:  E(RB3LYP) =  -613.738450082     A.U. after   12 cycles
 SCF Done:  E(RB3LYP) =  -613.738823128     A.U. after   13 cycles
 SCF Done:  E(RB3LYP) =  -613.739824688     A.U. after   11 cycles
 SCF Done:  E(RB3LYP) =  -613.743701974     A.U. after   10 cycles
 SCF Done:  E(RB3LYP) =  -613.743727203     A.U. after   10 cycles
 SCF Done:  E(RB3LYP) =  -613.743734736     A.U. after    8 cycles
 SCF Done:  E(RB3LYP) =  -613.743735482     A.U. after    8 cycles
 SCF Done:  E(RB3LYP) =  -613.743735508     A.U. after    7 cycles
 Optimization completed.
    -- Stationary point found.
 Normal termination of Gaussian 16 at Sun Dec 13 16:05:23 2020.

 --------------------------------------------------------------------
 #N Geom=AllCheck Guess=TCheck SCRF=Check GenChk RB3LYP/6-31G(d) Freq
 --------------------------------------------------------------------

 Structure from the checkpoint file:  "JID_3657.chk"
 ------------------------------
 CID_83235572_JID_3657_neutraal
 ------------------------------
 Charge =  0 Multiplicity = 1

 SCF Done:  E(RB3LYP) =  -613.743735508     A.U. after    1 cycles

  Exact polarizability: 132.673   3.281 107.129  -3.095   3.383  96.712
 Approx polarizability: 178.793   9.982 155.013  -5.511   3.104 138.079

                      1                      2                      3
                      A                      A                      A
 Frequencies --     50.7482                61.4939                88.5065
 Red. masses --      3.6037                 3.9518                 3.4984
 Frc consts  --      0.0055                 0.0088                 0.0161
 IR Inten    --      0.5204                 0.8105                 0.1061

                      4                      5                      6
                      A                      A                      A
 Frequencies --     95.3699               119.8141               137.7853
 Red. masses --      3.6665                 2.2420                 2.7342
 Frc consts  --      0.0196                 0.0190                 0.0306
 IR Inten    --      0.8153                 0.0948                 1.1520

                      7                      8                      9
                      A                      A                      A
 Frequencies --    177.0324               205.8369               214.8477
 Red. masses --      2.5750                 2.9220                 2.8677
 Frc consts  --      0.0475                 0.0729                 0.0780
 IR Inten    --      1.5053                 1.7391                 4.3049

                     10                     11                     12
                      A                      A                      A
 Frequencies --    229.6358               274.1260               285.9864
 Red. masses --      1.1849                 3.9960                 2.9708
 Frc consts  --      0.0368                 0.1769                 0.1432
 IR Inten    --      3.3045                 0.4928                 1.4174

                     13                     14                     15
                      A                      A                      A
 Frequencies --    293.7513               349.4996               372.8483
 Red. masses --      2.1617                 1.3641                 2.0256
 Frc consts  --      0.1099                 0.0982                 0.1659
 IR Inten    --      7.7900                28.7354                 4.0185

                     16                     17                     18
                      A                      A                      A
 Frequencies --    437.9950               486.5604               543.1585
 Red. masses --      3.6419                 4.1346                 2.8600
 Frc consts  --      0.4116                 0.5767                 0.4971
 IR Inten    --      9.5013                 8.9673                32.6547

                     19                     20                     21
                      A                      A                      A
 Frequencies --    591.0350               601.0129               707.1424
 Red. masses --      2.3621                 2.2884                 3.6818
 Frc consts  --      0.4861                 0.4870                 1.0847
 IR Inten    --     45.8330                 3.2076                12.8144

                     22                     23                     24
                      A                      A                      A
 Frequencies --    745.4923               759.2957               783.3502
 Red. masses --      3.1555                 2.2692                 1.6554
 Frc consts  --      1.0333                 0.7708                 0.5985
 IR Inten    --      3.7178                12.8835                15.0537

                     25                     26                     27
                      A                      A                      A
 Frequencies --    796.0151               853.8805               867.5987
 Red. masses --      2.3598                 2.0527                 2.5583
 Frc consts  --      0.8810                 0.8818                 1.1346
 IR Inten    --    111.3950                23.6481                 7.5909

                     28                     29                     30
                      A                      A                      A
 Frequencies --    871.3338               898.9423               902.9769
 Red. masses --      2.3625                 1.6326                 2.3633
 Frc consts  --      1.0568                 0.7773                 1.1353
 IR Inten    --     19.9947                 2.6367                 0.9910

                     31                     32                     33
                      A                      A                      A
 Frequencies --    916.5803               942.5211               950.0781
 Red. masses --      2.1306                 2.1934                 1.9385
 Frc consts  --      1.0546                 1.1480                 1.0309
 IR Inten    --      3.1635                84.3723               168.5396

                     34                     35                     36
                      A                      A                      A
 Frequencies --    994.3175              1017.1790              1030.6875
 Red. masses --      1.6092                 1.4133                 1.5698
 Frc consts  --      0.9374                 0.8615                 0.9826
 IR Inten    --     46.5972                 1.8826                 5.1817

                     37                     38                     39
                      A                      A                      A
 Frequencies --   1060.1900              1065.4437              1093.4753
 Red. masses --      1.9944                 1.8379                 2.3026
 Frc consts  --      1.3208                 1.2292                 1.6221
 IR Inten    --      2.6008                 2.9317                 6.3557

                     40                     41                     42
                      A                      A                      A
 Frequencies --   1111.6695              1134.4711              1156.3786
 Red. masses --      2.1822                 2.3288                 2.3609
 Frc consts  --      1.5889                 1.7659                 1.8600
 IR Inten    --     12.3512                19.8518                10.0262

                     43                     44                     45
                      A                      A                      A
 Frequencies --   1211.4956              1213.5359              1226.8613
 Red. masses --      1.5852                 1.4153                 1.3820
 Frc consts  --      1.3709                 1.2280                 1.2256
 IR Inten    --     16.7692                36.2283                 3.8631

                     46                     47                     48
                      A                      A                      A
 Frequencies --   1234.3262              1283.3435              1300.8173
 Red. masses --      1.4241                 1.3787                 1.2987
 Frc consts  --      1.2783                 1.3378                 1.2948
 IR Inten    --      4.2220                 6.8805                11.1445

                     49                     50                     51
                      A                      A                      A
 Frequencies --   1316.1920              1329.4816              1353.3865
 Red. masses --      1.3851                 1.3439                 1.3170
 Frc consts  --      1.4138                 1.3995                 1.4212
 IR Inten    --     11.5998                 0.5644                 9.0323

                     52                     53                     54
                      A                      A                      A
 Frequencies --   1366.2550              1368.5038              1375.7519
 Red. masses --      2.0755                 1.3499                 1.5048
 Frc consts  --      2.2826                 1.4895                 1.6781
 IR Inten    --     50.0487                 2.1594                 0.9238

                     55                     56                     57
                      A                      A                      A
 Frequencies --   1379.2475              1393.4147              1405.8859
 Red. masses --      1.7506                 1.2941                 1.2366
 Frc consts  --      1.9622                 1.4804                 1.4401
 IR Inten    --     37.3145                22.5087                13.7585

                     58                     59                     60
                      A                      A                      A
 Frequencies --   1429.4202              1439.2803              1455.7760
 Red. masses --      1.2215                 1.2926                 1.3236
 Frc consts  --      1.4704                 1.5776                 1.6527
 IR Inten    --      2.4180                 8.8908                11.6846

                     61                     62                     63
                      A                      A                      A
 Frequencies --   1507.2748              1513.4879              1515.1366
 Red. masses --      1.0912                 1.0788                 1.0807
 Frc consts  --      1.4606                 1.4560                 1.4617
 IR Inten    --      5.4226                 3.3227                 2.7471

                     64                     65                     66
                      A                      A                      A
 Frequencies --   1520.2751              1526.8213              1540.6101
 Red. masses --      1.0789                 1.0525                 1.0873
 Frc consts  --      1.4691                 1.4456                 1.5205
 IR Inten    --      5.6581                 9.1192                20.6387

                     67                     68                     69
                      A                      A                      A
 Frequencies --   1550.0604              1722.1850              1776.2558
 Red. masses --      1.0715                 1.0841                 8.8030
 Frc consts  --      1.5168                 1.8945                16.3641
 IR Inten    --      3.5943                34.3199               255.8897

                     70                     71                     72
                      A                      A                      A
 Frequencies --   3040.8397              3049.2509              3058.0329
 Red. masses --      1.0837                 1.0618                 1.0455
 Frc consts  --      5.9041                 5.8168                 5.7605
 IR Inten    --     33.4890                34.4422                20.6286

                     73                     74                     75
                      A                      A                      A
 Frequencies --   3062.3165              3065.8215              3068.7641
 Red. masses --      1.0697                 1.0652                 1.0624
 Frc consts  --      5.9103                 5.8988                 5.8946
 IR Inten    --     18.4390                34.1817                34.8483

                     76                     77                     78
                      A                      A                      A
 Frequencies --   3071.9067              3083.0532              3092.5015
 Red. masses --      1.0797                 1.0697                 1.1063
 Frc consts  --      6.0031                 5.9906                 6.2336
 IR Inten    --     25.6152                36.3273                25.6074

                     79                     80                     81
                      A                      A                      A
 Frequencies --   3105.8933              3115.7141              3115.9549
 Red. masses --      1.0976                 1.1007                 1.0998
 Frc consts  --      6.2381                 6.2955                 6.2915
 IR Inten    --     16.0820                25.0523                23.7626

                     82                     83                     84
                      A                      A                      A
 Frequencies --   3123.0439              3139.4122              3184.3120
 Red. masses --      1.1039                 1.0982                 1.0939
 Frc consts  --      6.3437                 6.3769                 6.5354
 IR Inten    --     49.5423                27.2992                12.1435

                     85                     86                     87
                      A                      A                      A
 Frequencies --   3483.6988              3488.2288              3568.8713
 Red. masses --      1.0500                 1.0765                 1.0911
 Frc consts  --      7.5083                 7.7175                 8.1877
 IR Inten    --      4.0990                 7.0397                12.4387

 - Thermochemistry -
 -------------------
 Temperature   298.150 Kelvin.  Pressure   1.00000 Atm.
 Atom     1 has atomic number  6 and mass  12.00000

 Molecular mass:   186.13683 amu.
 Principal axes and moments of inertia in atomic units:
                           1         2         3
     Eigenvalues --  1531.454163246.334123654.23360
           X            0.99971  -0.02376  -0.00246
           Y            0.02381   0.99939   0.02539
           Z            0.00185  -0.02544   0.99967
 This molecule is an asymmetric top.
 Rotational symmetry number  1.
 Warning -- assumption of classical behavior for rotation
           may cause significant error
 Rotational temperatures (Kelvin)      0.05656     0.02668     0.02370
 Rotational constants (GHZ):           1.17845     0.55593     0.49388
 Zero-point vibrational energy     726424.9 (Joules/Mol)
                                  173.61972 (Kcal/Mol)
 Warning -- explicit consideration of  20 degrees of freedom as
           vibrations may cause significant error
 Vibrational temperatures:     73.02    88.48   127.34   137.22   172.39
          (Kelvin)            198.24   254.71   296.15   309.12   330.39
                              394.41   411.47   422.64   502.85   536.45
                              630.18   700.05   781.48   850.37   864.72
                             1017.42  1072.60  1092.46  1127.07  1145.29
                             1228.54  1248.28  1253.65  1293.38  1299.18
                             1318.75  1356.08  1366.95  1430.60  1463.49
                             1482.93  1525.38  1532.94  1573.27  1599.44
                             1632.25  1663.77  1743.07  1746.01  1765.18
                             1775.92  1846.45  1871.59  1893.71  1912.83
                             1947.22  1965.74  1968.97  1979.40  1984.43
                             2004.81  2022.76  2056.62  2070.80  2094.54
                             2168.63  2177.57  2179.94  2187.34  2196.76
                             2216.59  2230.19  2477.84  2555.64  4375.09
                             4387.19  4399.83  4405.99  4411.03  4415.27
                             4419.79  4435.83  4449.42  4468.69  4482.82
                             4483.16  4493.36  4516.91  4581.51  5012.27
                             5018.78  5134.81

 Zero-point correction=                           0.276681 (Hartree/Particle)
 Thermal correction to Energy=                    0.290631
 Thermal correction to Enthalpy=                  0.291575
 Thermal correction to Gibbs Free Energy=         0.236074
 Sum of electronic and zero-point Energies=           -613.467055
 Sum of electronic and thermal Energies=              -613.453105
 Sum of electronic and thermal Enthalpies=            -613.452161
 Sum of electronic and thermal Free Energies=         -613.507661

                     E (Thermal)             CV                S
                      KCal/Mol        Cal/Mol-Kelvin    Cal/Mol-Kelvin
 Total                  182.374             52.444            116.811
 Electronic               0.000              0.000              0.000
 Translational            0.889              2.981             41.570
 Rotational               0.889              2.981             31.275
 Vibrational            180.596             46.482             43.966
 Vibration     1          0.595              1.977              4.788
 Vibration     2          0.597              1.973              4.409
 Vibration     3          0.601              1.957              3.693
 Vibration     4          0.603              1.952              3.547
 Vibration     5          0.609              1.933              3.103
 Vibration     6          0.614              1.916              2.834
 Vibration     7          0.628              1.871              2.359
 Vibration     8          0.640              1.832              2.080
 Vibration     9          0.645              1.818              2.002
 Vibration    10          0.652              1.796              1.882
 Vibration    11          0.676              1.721              1.570
 Vibration    12          0.684              1.700              1.498
 Vibration    13          0.689              1.685              1.452
 Vibration    14          0.727              1.576              1.168
 Vibration    15          0.744              1.528              1.068
 Vibration    16          0.798              1.387              0.833
 Vibration    17          0.843              1.280              0.693
 Vibration    18          0.898              1.155              0.559
 Vibration    19          0.948              1.051              0.465
 Vibration    20          0.959              1.030              0.448

                           ! Non-Optimized Parameters !
 Normal termination of Gaussian 16 at Sun Dec 13 16:13:46 2020.

 ----------------------------------------------------------------------
 # B3LYP/6-311++G(d,p) empiricaldispersion=gd3bj scf=xqc pop=npa geom=c
 heck
 ----------------------------------------------------------------------

 --------------------------------------
 CID_83235572_JID_3657_Energie_neutraal
 --------------------------------------
 Structure from the checkpoint file:  "JID_3657.chk"
 Charge =  0 Multiplicity = 1

 SCF Done:  E(RB3LYP) =  -613.930455512     A.U. after   14 cycles
 Normal termination of Gaussian 16 at Sun Dec 13 16:17:01 2020.

 ----------------------------------------------------------------------
 # B3LYP/6-311++G(d,p) empiricaldispersion=gd3bj scf=xqc pop=npa geom=c
 heck
 ----------------------------------------------------------------------

 ------------------------------------
 CID_83235572_JID_3657_Energie_kation
 ------------------------------------
 Structure from the checkpoint file:  "JID_3657.chk"
 Charge =  1 Multiplicity = 2

 SCF Done:  E(UB3LYP) =  -613.609823682     A.U. after   33 cycles
 SCF Done:  E(UB3LYP) =  -613.609823682     a.u. after    1 cycles
 Normal termination of Gaussian 16 at Sun Dec 13 16:27:35 2020.
 Gaussian 16:  ES64L-G16RevA.03 25-Dec-2016

 ----------------------------------------------------------------------
 # B3LYP/6-311++G(d,p) empiricaldispersion=gd3bj scf=xqc pop=npa geom=c
 heck
 ----------------------------------------------------------------------

 -----------------------------------
 CID_83235572_JID_3657_Energie_anion
 -----------------------------------
 Structure from the checkpoint file:  "JID_3657.chk"
 Charge = -1 Multiplicity = 2

                         Standard orientation:
 ---------------------------------------------------------------------
 Center     Atomic      Atomic             Coordinates (Angstroms)
 Number     Number       Type             X           Y           Z
 ---------------------------------------------------------------------
      1          6           0       -0.979014    0.776948    1.685244
      2          6           0       -2.073783    0.353170    0.703584
      3          6           0       -2.385599    1.452145   -0.363688
      4          7           0       -1.279524    2.043787   -1.106424
      5          6           0       -1.895157   -1.014170    0.055479
      6          8           0       -2.832407   -1.790283   -0.067465
      7          7           0       -0.644678   -1.454721   -0.377971
      8          8           0        0.284907   -0.500355   -0.844467
      9          6           0        1.639193   -0.971450   -0.635870
     10          6           0        2.536645    0.127719   -1.202711
     11          6           0        2.605769    1.158884   -0.065082
     12          6           0        2.673673    0.297040    1.217279
     13          6           0        2.011743   -1.062721    0.852161
     14          1           0       -0.036031    0.975048    1.176756
     15          1           0       -0.802029    0.005967    2.442250
     16          1           0       -1.286373    1.691651    2.205934
     17          1           0       -3.007811    0.216245    1.260180
     18          1           0       -3.103173    1.034954   -1.080152
     19          1           0       -2.905829    2.264713    0.157769
     20          1           0       -0.701018    1.311258   -1.511785
     21          1           0       -0.671292    2.557242   -0.471580
     22          1           0       -0.742804   -2.211657   -1.054718
     23          1           0        1.741027   -1.929596   -1.162110
     24          1           0        3.529397   -0.298727   -1.392805
     25          1           0        2.154104    0.524701   -2.147890
     26          1           0        1.695676    1.769043   -0.071503
     27          1           0        3.454890    1.842089   -0.162146
     28          1           0        2.179375    0.783336    2.063336
     29          1           0        3.717768    0.139424    1.508563
     30          1           0        1.121999   -1.287253    1.444511
     31          1           0        2.710727   -1.892172    1.003233
 ---------------------------------------------------------------------

 SCF Done:  E(UB3LYP) =  -613.920090423     A.U. after   32 cycles

 The electronic state is 2-A.
 Alpha  occ. eigenvalues --  -19.07854 -19.01045 -14.28957 -14.19552 -10.18913
 Alpha  occ. eigenvalues --  -10.12794 -10.10787 -10.09490 -10.07093 -10.06955
 Alpha  occ. eigenvalues --  -10.06595 -10.06455 -10.06388  -1.00662  -0.95164
 Alpha  occ. eigenvalues --   -0.79300  -0.77945  -0.72126  -0.69143  -0.61644
 Alpha  occ. eigenvalues --   -0.60696  -0.58707  -0.54476  -0.48902  -0.48381
 Alpha  occ. eigenvalues --   -0.47572  -0.42783  -0.40953  -0.39658  -0.38737
 Alpha  occ. eigenvalues --   -0.37504  -0.37021  -0.35604  -0.34542  -0.33218
 Alpha  occ. eigenvalues --   -0.31318  -0.31253  -0.29098  -0.28124  -0.27149
 Alpha  occ. eigenvalues --   -0.26610  -0.25809  -0.25506  -0.24767  -0.24377
 Alpha  occ. eigenvalues --   -0.24104  -0.22640  -0.21366  -0.17694  -0.15906
 Alpha  occ. eigenvalues --   -0.14883   0.04222
 Alpha virt. eigenvalues --    0.06186   0.07234   0.07666   0.08097   0.09030
 Alpha virt. eigenvalues --    0.09357   0.09619   0.09952   0.10376   0.11651
 Alpha virt. eigenvalues --    0.11863   0.12072   0.12402   0.13305   0.14785

  Beta  occ. eigenvalues --  -19.07844 -19.01042 -14.28940 -14.19539 -10.18913
  Beta  occ. eigenvalues --  -10.12771 -10.10778 -10.09484 -10.07063 -10.06927
  Beta  occ. eigenvalues --  -10.06574 -10.06434 -10.06363  -1.00647  -0.95157
  Beta  occ. eigenvalues --   -0.79276  -0.77909  -0.72085  -0.69114  -0.61586
  Beta  occ. eigenvalues --   -0.60635  -0.58657  -0.54441  -0.48855  -0.48345
  Beta  occ. eigenvalues --   -0.47497  -0.42724  -0.40928  -0.39598  -0.38687
  Beta  occ. eigenvalues --   -0.37476  -0.36999  -0.35571  -0.34518  -0.33191
  Beta  occ. eigenvalues --   -0.31279  -0.31227  -0.29064  -0.28084  -0.27124
  Beta  occ. eigenvalues --   -0.26587  -0.25779  -0.25477  -0.24722  -0.24326
  Beta  occ. eigenvalues --   -0.24059  -0.22596  -0.21327  -0.17677  -0.15887
  Beta  occ. eigenvalues --   -0.14868
  Beta virt. eigenvalues --    0.06443   0.07236   0.07871   0.08007   0.08659
  Beta virt. eigenvalues --    0.09441   0.09857   0.09979   0.10390   0.10765
  Beta virt. eigenvalues --    0.12150   0.12245   0.12438   0.12838   0.13542

 Mulliken charges and spin densities:
               1          2
     1  C   -0.097191  -0.652055
     2  C   -0.311249   0.795513
     3  C   -0.051466  -0.504542
     4  N   -0.301982  -0.028572
     5  C    0.083447  -0.325416
     6  O   -0.298292   0.008580
     7  N   -0.431829   0.032903
     8  O    0.151914  -0.042297
     9  C   -0.087163   0.193923
    10  C    0.955141  -1.573735
    11  C   -0.104354   0.039069
    12  C    0.314818  -0.769657
    13  C    0.274359  -0.577277
    14  H    1.043788  -0.894459
    15  H   -0.311706   0.470889
    16  H   -0.157722   0.311800
    17  H    0.082876   0.153742
    18  H    0.152804   0.017110
    19  H   -0.087966   0.250156
    20  H    0.265588  -0.006464
    21  H   -0.004698   0.230010
    22  H    0.175478   0.141596
    23  H   -0.724775   0.925720
    24  H   -0.221011   0.384333
    25  H   -0.095180   0.258927
    26  H    0.124296  -0.015924
    27  H   -0.532667   0.720210
    28  H   -0.337014   0.478605
    29  H   -0.351820   0.525663
    30  H    0.307691  -0.151676
    31  H   -0.424116   0.603325
 Sum of Mulliken charges =  -1.00000   1.00000

 Dipole moment (field-independent basis, Debye):
    X=             -5.0208    Y=              0.9979    Z=             -0.1380  Tot=              5.1208
 Quadrupole moment (field-independent basis, Debye-Ang):
   XX=           -156.9379   YY=           -127.2956   ZZ=           -118.1160
   XY=              1.2497   XZ=             -0.0943   YZ=             -0.6319

 Summary of Natural Population Analysis:

                                       Natural Population
                Natural  -----------------------------------------------
    Atom  No    Charge         Core      Valence    Rydberg      Total
 -----------------------------------------------------------------------
      C    1   -0.29262      0.99964     2.28505    0.00793     3.29262
      C    2   -0.15935      0.99955     2.14897    0.01083     3.15935
      C    3   -0.08260      0.99962     2.07192    0.01107     3.08260
      N    4   -0.42154      0.99977     2.91280    0.00897     3.92154
      C    5    0.34394      0.99964     1.63353    0.02289     2.65606
      O    6   -0.31371      0.99988     3.30810    0.00574     4.31371
      N    7   -0.16786      0.99963     2.65593    0.01230     3.66786
      O    8   -0.23370      0.99988     3.22181    0.01201     4.23370
      C    9    0.06811      0.99954     1.91657    0.01578     2.93189
      C   10   -0.20003      0.99960     2.19086    0.00957     3.20003
      C   11   -0.19218      0.99964     2.18414    0.00841     3.19218
      C   12   -0.19467      0.99964     2.18693    0.00810     3.19467
      C   13   -0.20919      0.99961     2.20089    0.00869     3.20919
      H   14    0.10502      0.00000     0.39253    0.00245     0.39498
      H   15    0.10334      0.00000     0.39555    0.00112     0.39666
      H   16    0.10056      0.00000     0.39821    0.00123     0.39944
      H   17    0.11068      0.00000     0.38771    0.00160     0.38932
      H   18    0.09260      0.00000     0.40631    0.00109     0.40740
      H   19    0.09143      0.00000     0.40753    0.00104     0.40857
      H   20    0.18309      0.00000     0.31407    0.00284     0.31691
      H   21    0.17152      0.00000     0.32575    0.00273     0.32848
      H   22    0.18492      0.00000     0.31251    0.00257     0.31508
      H   23    0.09095      0.00000     0.40598    0.00306     0.40905
      H   24    0.10663      0.00000     0.39095    0.00241     0.39337
      H   25    0.10464      0.00000     0.39397    0.00139     0.39536
      H   26    0.09184      0.00000     0.40614    0.00202     0.40816
      H   27    0.10295      0.00000     0.39563    0.00142     0.39705
      H   28    0.09916      0.00000     0.39969    0.00115     0.40084
      H   29    0.10128      0.00000     0.39668    0.00205     0.39872
      H   30    0.10822      0.00000     0.39034    0.00144     0.39178
      H   31    0.10656      0.00000     0.39155    0.00189     0.39344
 =======================================================================
   * Total *    0.00000     12.99564    37.82858    0.17578    51.00000

 Normal termination of Gaussian 16 at Sun Dec 13 16:37:37 2020.
