 Gaussian 16, Revision A.03,

 -----------------------------------------------------------
 # opt freq B3LYP/6-31G(d) empiricaldispersion=gd3bj scf=xqc
 -----------------------------------------------------------

 -----------------------------
 CID_14509705_JID_534_neutraal
 -----------------------------
 Symbolic Z-matrix:
 Charge =  0 Multiplicity = 1

 SCF Done:  E(RB3LYP) =  -407.920275157     A.U. after   13 cycles
 SCF Done:  E(RB3LYP) =  -407.922244116     A.U. after   12 cycles
 SCF Done:  E(RB3LYP) =  -407.922306676     A.U. after   11 cycles
 SCF Done:  E(RB3LYP) =  -407.922694813     A.U. after   11 cycles
 SCF Done:  E(RB3LYP) =  -407.922757753     A.U. after   10 cycles
 SCF Done:  E(RB3LYP) =  -407.922774308     A.U. after   10 cycles
 SCF Done:  E(RB3LYP) =  -407.922780515     A.U. after   10 cycles
 SCF Done:  E(RB3LYP) =  -407.922782818     A.U. after    8 cycles
 SCF Done:  E(RB3LYP) =  -407.922783640     A.U. after    8 cycles
 SCF Done:  E(RB3LYP) =  -407.922783762     A.U. after    7 cycles
 SCF Done:  E(RB3LYP) =  -407.922783803     A.U. after    7 cycles
 SCF Done:  E(RB3LYP) =  -407.922783818     A.U. after    7 cycles
 SCF Done:  E(RB3LYP) =  -407.922783823     A.U. after    6 cycles
 Optimization completed.
    -- Stationary point found.

 1\1\GINC-NODE371\FOpt\RB3LYP\6-31G(d)\C9H17N1\VSC10255\08-Dec-2020\0\\
 # opt freq B3LYP/6-31G(d) empiricaldispersion=gd3bj scf=xqc\\CID_14509
 705_JID_534_neutraal\\0,1\C,0.9082168923,0.14269647,-0.027713065\N,0.5
 836693238,-1.186795088,-0.5167274541\C,-0.8199160129,-1.494100473,-0.3
 10437457\C,1.0734784374,-1.5415439866,-1.8543767207\C,0.5855102399,-0.
 6463084207,-3.0382991549\C,1.2960149133,0.6668301326,-3.2178564122\C,2
 .1590737041,0.9298840206,-4.2005390575\C,2.6052003905,-1.7057395665,-1
 .8651993927\C,3.0806751138,-2.7541214468,-0.9016166392\C,3.8388936964,

 Normal termination of Gaussian 16 at Tue Dec  8 12:27:38 2020.

 --------------------------------------------------------------------
 #N Geom=AllCheck Guess=TCheck SCRF=Check GenChk RB3LYP/6-31G(d) Freq
 --------------------------------------------------------------------

 Structure from the checkpoint file:  "JID_534.chk"
 -----------------------------
 CID_14509705_JID_534_neutraal
 -----------------------------
 Charge =  0 Multiplicity = 1

 SCF Done:  E(RB3LYP) =  -407.922783823     A.U. after    1 cycles

  Exact polarizability: 109.743  -0.475 115.428   7.703   4.386  80.715
 Approx polarizability: 141.525   1.895 162.503  13.256   8.668 118.168

                      1                      2                      3
                      A                      A                      A
 Frequencies --     42.6997                62.1082                69.8219
 Red. masses --      2.5623                 2.4213                 2.7579
 Frc consts  --      0.0028                 0.0055                 0.0079
 IR Inten    --      0.0963                 0.0721                 0.1082

                      4                      5                      6
                      A                      A                      A
 Frequencies --     97.6187               106.5876               181.5449
 Red. masses --      2.7085                 2.6507                 2.1689
 Frc consts  --      0.0152                 0.0177                 0.0421
 IR Inten    --      0.1478                 0.2561                 0.1707

                      7                      8                      9
                      A                      A                      A
 Frequencies --    227.2660               249.5858               258.0583
 Red. masses --      2.3211                 1.1446                 2.1841
 Frc consts  --      0.0706                 0.0420                 0.0857
 IR Inten    --      1.2033                 0.7170                 0.0535

                     10                     11                     12
                      A                      A                      A
 Frequencies --    293.9365               302.1290               371.0447
 Red. masses --      1.1514                 2.5988                 2.7407
 Frc consts  --      0.0586                 0.1398                 0.2223
 IR Inten    --      0.5702                 0.2325                11.0122

                     13                     14                     15
                      A                      A                      A
 Frequencies --    389.7367               418.2970               446.4047
 Red. masses --      2.2877                 1.9941                 2.2418
 Frc consts  --      0.2047                 0.2056                 0.2632
 IR Inten    --      0.4008                 1.0124                 0.5046

                     16                     17                     18
                      A                      A                      A
 Frequencies --    505.7343               555.6857               658.8983
 Red. masses --      1.8162                 1.7017                 1.7574
 Frc consts  --      0.2737                 0.3096                 0.4495
 IR Inten    --      5.5436                 0.9943                 6.4639

                     19                     20                     21
                      A                      A                      A
 Frequencies --    738.7275               753.5187               873.9390
 Red. masses --      2.3047                 2.7821                 1.7022
 Frc consts  --      0.7410                 0.9307                 0.7660
 IR Inten    --     15.0046                 4.2302                 3.4110

                     22                     23                     24
                      A                      A                      A
 Frequencies --    888.9979               933.6996               936.6114
 Red. masses --      2.3023                 1.3561                 1.3622
 Frc consts  --      1.0720                 0.6965                 0.7041
 IR Inten    --      4.3443                37.6832                34.7709

                     25                     26                     27
                      A                      A                      A
 Frequencies --    948.9058               964.8532              1002.9360
 Red. masses --      1.6368                 2.1374                 2.0266
 Frc consts  --      0.8683                 1.1723                 1.2011
 IR Inten    --      4.0783                 1.5235                 4.2237

                     28                     29                     30
                      A                      A                      A
 Frequencies --   1036.1547              1041.8519              1049.7210
 Red. masses --      1.1129                 1.2470                 1.7463
 Frc consts  --      0.7040                 0.7975                 1.1338
 IR Inten    --     13.2838                12.4133                44.3866

                     31                     32                     33
                      A                      A                      A
 Frequencies --   1072.2386              1088.5870              1134.1659
 Red. masses --      1.8030                 1.6396                 1.2543
 Frc consts  --      1.2213                 1.1447                 0.9506
 IR Inten    --     19.2114                10.1426                 7.3866

                     34                     35                     36
                      A                      A                      A
 Frequencies --   1151.4606              1166.0407              1197.4764
 Red. masses --      1.8713                 1.9782                 1.5069
 Frc consts  --      1.4618                 1.5847                 1.2731
 IR Inten    --     15.2220                16.8380                12.6915

                     37                     38                     39
                      A                      A                      A
 Frequencies --   1229.1257              1249.7349              1284.4774
 Red. masses --      1.7694                 1.5425                 1.3456
 Frc consts  --      1.5749                 1.4195                 1.3081
 IR Inten    --      6.5761                11.2869                 4.6804

                     40                     41                     42
                      A                      A                      A
 Frequencies --   1306.7292              1325.2448              1333.8271
 Red. masses --      1.5358                 1.3368                 1.4701
 Frc consts  --      1.5451                 1.3832                 1.5410
 IR Inten    --      1.7369                 5.0177                 7.4442

                     43                     44                     45
                      A                      A                      A
 Frequencies --   1351.0450              1356.9352              1398.2160
 Red. masses --      1.4915                 1.4039                 1.3933
 Frc consts  --      1.6040                 1.5230                 1.6049
 IR Inten    --     14.6556                 3.8234                 4.4838

                     46                     47                     48
                      A                      A                      A
 Frequencies --   1434.2426              1467.5467              1474.3647
 Red. masses --      1.3094                 1.1496                 1.1673
 Frc consts  --      1.5870                 1.4588                 1.4950
 IR Inten    --     19.1558                 1.5335                 0.8175

                     49                     50                     51
                      A                      A                      A
 Frequencies --   1476.9150              1497.3150              1507.5352
 Red. masses --      1.1915                 1.1554                 1.0653
 Frc consts  --      1.5313                 1.5261                 1.4264
 IR Inten    --      2.1016                 6.1279                 8.7722

                     52                     53                     54
                      A                      A                      A
 Frequencies --   1510.1741              1515.0237              1526.0804
 Red. masses --      1.1225                 1.0973                 1.0758
 Frc consts  --      1.5084                 1.4839                 1.4761
 IR Inten    --      4.1681                 2.2675                23.3230

                     55                     56                     57
                      A                      A                      A
 Frequencies --   1538.1517              1553.5712              1728.2381
 Red. masses --      1.0526                 1.0543                 4.3734
 Frc consts  --      1.4672                 1.4992                 7.6962
 IR Inten    --      6.7193                 5.6947                 6.9524

                     58                     59                     60
                      A                      A                      A
 Frequencies --   1733.8375              2936.9543              2951.8693
 Red. masses --      4.5516                 1.0615                 1.0624
 Frc consts  --      8.0618                 5.3944                 5.4542
 IR Inten    --      8.1171                61.3014               121.4413

                     61                     62                     63
                      A                      A                      A
 Frequencies --   3030.5201              3041.1707              3048.4074
 Red. masses --      1.0654                 1.0657                 1.0751
 Frc consts  --      5.7649                 5.8074                 5.8866
 IR Inten    --     10.6601                14.1511                44.9952

                     64                     65                     66
                      A                      A                      A
 Frequencies --   3068.8171              3070.7170              3072.9091
 Red. masses --      1.0720                 1.0826                 1.0936
 Frc consts  --      5.9482                 6.0144                 6.0841
 IR Inten    --     31.9523                56.1554                18.2184

                     67                     68                     69
                      A                      A                      A
 Frequencies --   3082.4908              3117.7695              3139.5144
 Red. masses --      1.0992                 1.1028                 1.0968
 Frc consts  --      6.1537                 6.3157                 6.3694
 IR Inten    --     34.9559                33.1262                29.7823

                     70                     71                     72
                      A                      A                      A
 Frequencies --   3149.9525              3152.7310              3169.7290
 Red. masses --      1.0592                 1.0589                 1.0908
 Frc consts  --      6.1919                 6.2010                 6.4573
 IR Inten    --     14.1525                12.5285                12.0925

                     73                     74                     75
                      A                      A                      A
 Frequencies --   3175.1344              3230.3578              3234.4646
 Red. masses --      1.0911                 1.1148                 1.1153
 Frc consts  --      6.4811                 6.8542                 6.8745
 IR Inten    --      6.9703                25.9129                22.5736

 - Thermochemistry -
 -------------------
 Temperature   298.150 Kelvin.  Pressure   1.00000 Atm.
 Atom     1 has atomic number  6 and mass  12.00000

 Molecular mass:   139.13610 amu.
 Principal axes and moments of inertia in atomic units:
                           1         2         3
     Eigenvalues --  1385.186311780.664012645.28216
           X            0.99979   0.01926   0.00707
           Y           -0.01928   0.99981   0.00360
           Z           -0.00700  -0.00374   0.99997
 This molecule is an asymmetric top.
 Rotational symmetry number  1.
 Warning -- assumption of classical behavior for rotation
           may cause significant error
 Rotational temperatures (Kelvin)      0.06253     0.04864     0.03274
 Rotational constants (GHZ):           1.30289     1.01352     0.68225
 Zero-point vibrational energy     644122.6 (Joules/Mol)
                                  153.94899 (Kcal/Mol)
 Warning -- explicit consideration of  17 degrees of freedom as
           vibrations may cause significant error
 Vibrational temperatures:     61.44    89.36   100.46   140.45   153.36
          (Kelvin)            261.20   326.99   359.10   371.29   422.91
                              434.70   533.85   560.74   601.84   642.28
                              727.64   799.51   948.01  1062.86  1084.15
                             1257.40  1279.07  1343.39  1347.57  1365.26
                             1388.21  1443.00  1490.80  1498.99  1510.31
                             1542.71  1566.23  1631.81  1656.69  1677.67
                             1722.90  1768.44  1798.09  1848.08  1880.09
                             1906.73  1919.08  1943.85  1952.33  2011.72
                             2063.56  2111.47  2121.28  2124.95  2154.30
                             2169.01  2172.80  2179.78  2195.69  2213.06
                             2235.24  2486.55  2494.61  4225.62  4247.08
                             4360.24  4375.57  4385.98  4415.34  4418.08
                             4421.23  4435.02  4485.77  4517.06  4532.08
                             4536.08  4560.53  4568.31  4647.76  4653.67

 Zero-point correction=                           0.245333 (Hartree/Particle)
 Thermal correction to Energy=                    0.257657
 Thermal correction to Enthalpy=                  0.258601
 Thermal correction to Gibbs Free Energy=         0.206539
 Sum of electronic and zero-point Energies=           -407.677450
 Sum of electronic and thermal Energies=              -407.665127
 Sum of electronic and thermal Enthalpies=            -407.664183
 Sum of electronic and thermal Free Energies=         -407.716245

                     E (Thermal)             CV                S
                      KCal/Mol        Cal/Mol-Kelvin    Cal/Mol-Kelvin
 Total                  161.682             44.781            109.574
 Electronic               0.000              0.000              0.000
 Translational            0.889              2.981             40.703
 Rotational               0.889              2.981             30.257
 Vibrational            159.905             38.819             38.614
 Vibration     1          0.595              1.980              5.130
 Vibration     2          0.597              1.972              4.389
 Vibration     3          0.598              1.969              4.158
 Vibration     4          0.603              1.951              3.501
 Vibration     5          0.605              1.944              3.330
 Vibration     6          0.630              1.865              2.312
 Vibration     7          0.651              1.799              1.900
 Vibration     8          0.662              1.763              1.734
 Vibration     9          0.667              1.749              1.675
 Vibration    10          0.689              1.685              1.451
 Vibration    11          0.694              1.670              1.405
 Vibration    12          0.743              1.532              1.075
 Vibration    13          0.758              1.492              1.001
 Vibration    14          0.781              1.430              0.898
 Vibration    15          0.806              1.369              0.807
 Vibration    16          0.861              1.237              0.644
 Vibration    17          0.911              1.127              0.533

 Optimization completed.
    -- Stationary point found.

 1\1\GINC-NODE371\Freq\RB3LYP\6-31G(d)\C9H17N1\VSC10255\08-Dec-2020\0\\
 #N Geom=AllCheck Guess=TCheck SCRF=Check GenChk RB3LYP/6-31G(d) Freq\\
 CID_14509705_JID_534_neutraal\\0,1\C,0.9082168923,0.14269647,-0.027713
 065\N,0.5836693238,-1.186795088,-0.5167274541\C,-0.8199160129,-1.49410
 0473,-0.310437457\C,1.0734784374,-1.5415439866,-1.8543767207\C,0.58551
 02399,-0.6463084207,-3.0382991549\C,1.2960149133,0.6668301326,-3.21785
 64122\C,2.1590737041,0.9298840206,-4.2005390575\C,2.6052003905,-1.7057
 395665,-1.8651993927\C,3.0806751138,-2.7541214468,-0.9016166392\C,3.83

 Normal termination of Gaussian 16 at Tue Dec  8 12:43:50 2020.

 ----------------------------------------------------------------------
 # B3LYP/6-311++G(d,p) empiricaldispersion=gd3bj scf=xqc pop=npa geom=c
 heck
 ----------------------------------------------------------------------

 -------------------------------------
 CID_14509705_JID_534_Energie_neutraal
 -------------------------------------
 Structure from the checkpoint file:  "JID_534.chk"
 Charge =  0 Multiplicity = 1

 SCF Done:  E(RB3LYP) =  -408.040743994     A.U. after   13 cycles
 Normal termination of Gaussian 16 at Tue Dec  8 12:51:49 2020.

 ----------------------------------------------------------------------
 # B3LYP/6-311++G(d,p) empiricaldispersion=gd3bj scf=xqc pop=npa geom=c
 heck
 ----------------------------------------------------------------------

 -----------------------------------
 CID_14509705_JID_534_Energie_kation
 -----------------------------------
 Structure from the checkpoint file:  "JID_534.chk"
 Charge =  1 Multiplicity = 2

 SCF Done:  E(UB3LYP) =  -407.758066611     A.U. after   20 cycles
 Normal termination of Gaussian 16 at Tue Dec  8 13:04:40 2020.
 Gaussian 16:  ES64L-G16RevA.03 25-Dec-2016

 ----------------------------------
 CID_14509705_JID_534_Energie_anion
 ----------------------------------
 Structure from the checkpoint file:  "JID_534.chk"
 Charge = -1 Multiplicity = 2

                         Standard orientation:
 ---------------------------------------------------------------------
 Center     Atomic      Atomic             Coordinates (Angstroms)
 Number     Number       Type             X           Y           Z
 ---------------------------------------------------------------------
      1          6           0        0.500240    1.581018    1.390470
      2          7           0       -0.193867    1.462501    0.119178
      3          6           0        0.064604    2.611479   -0.729401
      4          6           0       -0.084446    0.176985   -0.581207
      5          6           0        1.355977   -0.288629   -0.968011
      6          6           0        2.172168   -0.912623    0.130102
      7          6           0        2.453227   -2.213955    0.215393
      8          6           0       -0.856286   -0.932056    0.158754
      9          6           0       -2.314067   -0.612085    0.320510
     10          6           0       -3.313216   -1.394447   -0.087849
     11          1           0        0.117904    2.457632    1.926858
     12          1           0        1.594555    1.708525    1.291032
     13          1           0        0.316237    0.702012    2.012782
     14          1           0        1.125968    2.722610   -1.026003
     15          1           0       -0.537716    2.543162   -1.641281
     16          1           0       -0.223673    3.526561   -0.199140
     17          1           0       -0.606733    0.337477   -1.532861
     18          1           0        1.252933   -1.015972   -1.783309
     19          1           0        1.893196    0.573544   -1.386224
     20          1           0        2.550369   -0.245905    0.903108
     21          1           0        3.044986   -2.621796    1.030386
     22          1           0        2.102626   -2.922412   -0.532812
     23          1           0       -0.734375   -1.870831   -0.395275
     24          1           0       -0.393418   -1.106327    1.139187
     25          1           0       -2.532035    0.345110    0.791031
     26          1           0       -4.354233   -1.113691    0.048918
     27          1           0       -3.128727   -2.351342   -0.573197
 ---------------------------------------------------------------------

 SCF Done:  E(UB3LYP) =  -408.022750939     A.U. after   32 cycles

 The electronic state is 2-A.
 Alpha  occ. eigenvalues --  -14.19748 -10.09886 -10.07917 -10.07669 -10.07291
 Alpha  occ. eigenvalues --  -10.07230 -10.06596 -10.06553 -10.06306 -10.06109
 Alpha  occ. eigenvalues --   -0.81927  -0.70596  -0.68458  -0.63531  -0.60120
 Alpha  occ. eigenvalues --   -0.57818  -0.54198  -0.47682  -0.45523  -0.44228
 Alpha  occ. eigenvalues --   -0.38656  -0.38051  -0.36296  -0.34892  -0.34088
 Alpha  occ. eigenvalues --   -0.32721  -0.32171  -0.29935  -0.28909  -0.27683
 Alpha  occ. eigenvalues --   -0.27252  -0.26261  -0.25356  -0.24109  -0.23868
 Alpha  occ. eigenvalues --   -0.22438  -0.17026  -0.15748  -0.10545   0.04811
 Alpha virt. eigenvalues --    0.07096   0.07369   0.07656   0.09012   0.09106
 Alpha virt. eigenvalues --    0.09512   0.09712   0.10146   0.10650   0.11277
 Alpha virt. eigenvalues --    0.12010   0.12351   0.12784   0.13202   0.14258

  Beta  occ. eigenvalues --  -14.19744 -10.09878 -10.07878 -10.07625 -10.07287
  Beta  occ. eigenvalues --  -10.07214 -10.06585 -10.06531 -10.06291 -10.06084
  Beta  occ. eigenvalues --   -0.81909  -0.70570  -0.68430  -0.63500  -0.60056
  Beta  occ. eigenvalues --   -0.57775  -0.54133  -0.47620  -0.45471  -0.44165
  Beta  occ. eigenvalues --   -0.38612  -0.38017  -0.36264  -0.34849  -0.34044
  Beta  occ. eigenvalues --   -0.32688  -0.32122  -0.29902  -0.28871  -0.27645
  Beta  occ. eigenvalues --   -0.27214  -0.26222  -0.25319  -0.24074  -0.23838
  Beta  occ. eigenvalues --   -0.22401  -0.16988  -0.15717  -0.10517
  Beta virt. eigenvalues --    0.06995   0.07863   0.08001   0.08326   0.09167
  Beta virt. eigenvalues --    0.09695   0.09791   0.10225   0.10807   0.10911
  Beta virt. eigenvalues --    0.11719   0.12553   0.12775   0.13383   0.13604

 Mulliken charges and spin densities:
               1          2
     1  C    0.639090  -1.106570
     2  N   -0.154671   0.281860
     3  C    1.101179  -1.354022
     4  C   -0.355246   0.355824
     5  C    0.973915  -1.851392
     6  C   -1.538951   1.966545
     7  C    1.376753  -1.894962
     8  C    0.863232  -1.545221
     9  C   -0.197001   0.748944
    10  C   -0.624295  -0.105791
    11  H   -0.350213   0.499014
    12  H   -0.236523   0.366382
    13  H   -0.097060   0.246729
    14  H   -0.252630   0.364057
    15  H   -0.585595   0.723964
    16  H   -0.198473   0.333029
    17  H    0.089590   0.118359
    18  H   -0.629558   0.787930
    19  H    0.106549   0.042726
    20  H   -0.483414   0.639657
    21  H   -0.210881   0.328528
    22  H   -0.225803   0.337758
    23  H    0.251264  -0.120083
    24  H    0.102939   0.041221
    25  H   -0.073316   0.270425
    26  H   -0.023172   0.142595
    27  H   -0.267708   0.382493
 Sum of Mulliken charges =  -1.00000   1.00000

 Dipole moment (field-independent basis, Debye):
    X=             -1.7822    Y=             -2.3978    Z=              0.9478  Tot=              3.1343
 Quadrupole moment (field-independent basis, Debye-Ang):
   XX=           -115.2073   YY=           -118.2011   ZZ=           -104.4831
   XY=              1.4393   XZ=             -1.5472   YZ=             -1.0612

 Summary of Natural Population Analysis:

                                       Natural Population
                Natural  -----------------------------------------------
    Atom  No    Charge         Core      Valence    Rydberg      Total
 -----------------------------------------------------------------------
      C    1   -0.17855      0.99963     2.16943    0.00949     3.17855
      N    2   -0.28661      0.99972     2.77237    0.01452     3.78661
      C    3   -0.17406      0.99964     2.16548    0.00895     3.17406
      C    4    0.00800      0.99956     1.97848    0.01396     2.99200
      C    5   -0.21963      0.99959     2.20903    0.01101     3.21963
      C    6   -0.08329      0.99956     2.07240    0.01133     3.08329
      C    7   -0.19204      0.99955     2.18601    0.00649     3.19204
      C    8   -0.21455      0.99958     2.20485    0.01012     3.21455
      C    9   -0.07314      0.99956     2.06325    0.01033     3.07314
      C   10   -0.20007      0.99956     2.19404    0.00646     3.20007
      H   11    0.09651      0.00000     0.40213    0.00136     0.40349
      H   12    0.08048      0.00000     0.41753    0.00200     0.41952
      H   13    0.09555      0.00000     0.40305    0.00140     0.40445
      H   14    0.08043      0.00000     0.41739    0.00218     0.41957
      H   15    0.09661      0.00000     0.40180    0.00160     0.40339
      H   16    0.09576      0.00000     0.40281    0.00143     0.40424
      H   17    0.09847      0.00000     0.39930    0.00223     0.40153
      H   18    0.10168      0.00000     0.39666    0.00166     0.39832
      H   19    0.10802      0.00000     0.39020    0.00177     0.39198
      H   20    0.09397      0.00000     0.40440    0.00163     0.40603
      H   21    0.09280      0.00000     0.40599    0.00121     0.40720
      H   22    0.08898      0.00000     0.40953    0.00149     0.41102
      H   23    0.10099      0.00000     0.39705    0.00196     0.39901
      H   24    0.10591      0.00000     0.39240    0.00168     0.39409
      H   25    0.09888      0.00000     0.39935    0.00176     0.40112
      H   26    0.09090      0.00000     0.40801    0.00109     0.40910
      H   27    0.08798      0.00000     0.41070    0.00132     0.41202
 =======================================================================
   * Total *    0.00000      9.99595    28.87362    0.13043    39.00000

 Normal termination of Gaussian 16 at Tue Dec  8 13:17:08 2020.
