 Gaussian 16, Revision A.03,

 -----------------------------------------------------------
 # opt freq B3LYP/6-31G(d) empiricaldispersion=gd3bj scf=xqc
 -----------------------------------------------------------

 ------------------------------
 CID_58109101_JID_5504_neutraal
 ------------------------------
 Symbolic Z-matrix:
 Charge =  0 Multiplicity = 1

 SCF Done:  E(RB3LYP) =  -656.753878039     A.U. after   15 cycles
 SCF Done:  E(RB3LYP) =  -656.755014295     A.U. after   12 cycles
 SCF Done:  E(RB3LYP) =  -656.755013441     A.U. after   14 cycles
 SCF Done:  E(RB3LYP) =  -656.756770447     A.U. after   12 cycles
 SCF Done:  E(RB3LYP) =  -656.757231542     A.U. after   12 cycles
 SCF Done:  E(RB3LYP) =  -656.757776647     A.U. after   12 cycles
 SCF Done:  E(RB3LYP) =  -656.758194925     A.U. after   14 cycles
 SCF Done:  E(RB3LYP) =  -656.758406469     A.U. after   11 cycles
 SCF Done:  E(RB3LYP) =  -656.758445472     A.U. after   10 cycles
 SCF Done:  E(RB3LYP) =  -656.758474810     A.U. after   11 cycles
 SCF Done:  E(RB3LYP) =  -656.758484962     A.U. after   10 cycles
 SCF Done:  E(RB3LYP) =  -656.758487104     A.U. after   11 cycles
 SCF Done:  E(RB3LYP) =  -656.758488093     A.U. after    9 cycles
 SCF Done:  E(RB3LYP) =  -656.758488211     A.U. after    7 cycles
 SCF Done:  E(RB3LYP) =  -656.758488222     A.U. after    7 cycles
 Optimization completed.
    -- Stationary point found.
 Normal termination of Gaussian 16 at Thu Dec 10 16:34:40 2020.

 --------------------------------------------------------------------
 #N Geom=AllCheck Guess=TCheck SCRF=Check GenChk RB3LYP/6-31G(d) Freq
 --------------------------------------------------------------------

 Structure from the checkpoint file:  "JID_5504.chk"
 ------------------------------
 CID_58109101_JID_5504_neutraal
 ------------------------------
 Charge =  0 Multiplicity = 1

 SCF Done:  E(RB3LYP) =  -656.758488222     A.U. after    1 cycles

  Exact polarizability: 143.578 -21.970 126.906   1.057   0.156 129.504
 Approx polarizability: 180.727 -40.814 188.274   5.094  -3.313 232.609

                      1                      2                      3
                      A                      A                      A
 Frequencies --     22.8530                31.0545                32.9934
 Red. masses --      3.3824                 4.5184                 3.5633
 Frc consts  --      0.0010                 0.0026                 0.0023
 IR Inten    --      0.1212                 0.4969                 0.0341

                      4                      5                      6
                      A                      A                      A
 Frequencies --     65.5361               107.5667               113.6566
 Red. masses --      2.7715                 5.0030                 5.1424
 Frc consts  --      0.0070                 0.0341                 0.0391
 IR Inten    --      0.1492                 1.6784                 1.5424

                      7                      8                      9
                      A                      A                      A
 Frequencies --    188.7103               206.6942               213.8152
 Red. masses --      2.7463                 1.3136                 3.2534
 Frc consts  --      0.0576                 0.0331                 0.0876
 IR Inten    --      3.1738                 0.4026                 1.6614

                     10                     11                     12
                      A                      A                      A
 Frequencies --    219.7777               231.4548               275.0496
 Red. masses --      1.3586                 1.2692                 2.1025
 Frc consts  --      0.0387                 0.0401                 0.0937
 IR Inten    --      1.4361                 0.5046                 0.7249

                     13                     14                     15
                      A                      A                      A
 Frequencies --    311.7589               358.4587               364.3299
 Red. masses --      3.1560                 2.2351                 2.5824
 Frc consts  --      0.1807                 0.1692                 0.2020
 IR Inten    --      2.2738                 0.5862                 1.0234

                     16                     17                     18
                      A                      A                      A
 Frequencies --    368.2112               415.1351               436.8368
 Red. masses --      2.3135                 2.9761                 2.4939
 Frc consts  --      0.1848                 0.3022                 0.2804
 IR Inten    --      1.0422                 0.0118                 1.6304

                     19                     20                     21
                      A                      A                      A
 Frequencies --    469.9340               485.7135               527.1288
 Red. masses --      3.4645                 3.2755                 3.0942
 Frc consts  --      0.4508                 0.4553                 0.5066
 IR Inten    --      3.6881                 1.2104                10.1460

                     22                     23                     24
                      A                      A                      A
 Frequencies --    538.4758               637.1705               688.0725
 Red. masses --      5.2761                 6.1990                 4.1167
 Frc consts  --      0.9013                 1.4828                 1.1483
 IR Inten    --     10.2622                 0.0330                10.2667

                     25                     26                     27
                      A                      A                      A
 Frequencies --    710.3046               738.0568               773.2488
 Red. masses --      2.5419                 1.7671                 2.7959
 Frc consts  --      0.7556                 0.5671                 0.9849
 IR Inten    --     10.1393                40.2888                 4.2293

                     28                     29                     30
                      A                      A                      A
 Frequencies --    789.5366               855.7375               858.0320
 Red. masses --      3.0272                 2.7940                 2.3490
 Frc consts  --      1.1118                 1.2055                 1.0189
 IR Inten    --      4.0834                 8.0868                 4.8349

                     31                     32                     33
                      A                      A                      A
 Frequencies --    859.1084               916.7308               928.7851
 Red. masses --      1.5471                 2.0262                 1.6976
 Frc consts  --      0.6728                 1.0033                 0.8628
 IR Inten    --      2.5741                 1.0478                 3.7293

                     34                     35                     36
                      A                      A                      A
 Frequencies --    949.1206               956.5425               967.3032
 Red. masses --      1.2011                 2.3773                 1.3625
 Frc consts  --      0.6375                 1.2816                 0.7511
 IR Inten    --      2.5764                 3.1680                 0.1440

                     37                     38                     39
                      A                      A                      A
 Frequencies --    979.1285               983.3982               995.5548
 Red. masses --      1.4981                 1.8498                 1.2600
 Frc consts  --      0.8462                 1.0540                 0.7358
 IR Inten    --      0.7823                12.8253                 0.0283

                     40                     41                     42
                      A                      A                      A
 Frequencies --   1007.1756              1023.0049              1061.1460
 Red. masses --      1.2820                 6.2423                 2.2440
 Frc consts  --      0.7662                 3.8490                 1.4887
 IR Inten    --     11.4935                 1.3163                 3.6789

                     43                     44                     45
                      A                      A                      A
 Frequencies --   1077.8869              1113.2497              1152.3169
 Red. masses --      3.0858                 1.6201                 2.0508
 Frc consts  --      2.1124                 1.1830                 1.6044
 IR Inten    --     35.3382                13.6898                44.6591

                     46                     47                     48
                      A                      A                      A
 Frequencies --   1162.9343              1166.4635              1194.1792
 Red. masses --      1.3886                 2.3562                 1.0994
 Frc consts  --      1.1065                 1.8889                 0.9237
 IR Inten    --    103.3209                37.0461                 0.1965

                     49                     50                     51
                      A                      A                      A
 Frequencies --   1203.9654              1216.1453              1224.3395
 Red. masses --      1.7610                 1.1617                 2.2668
 Frc consts  --      1.5039                 1.0123                 2.0020
 IR Inten    --      1.3453                 1.0907                 4.9057

                     52                     53                     54
                      A                      A                      A
 Frequencies --   1225.4404              1290.1835              1324.2805
 Red. masses --      2.3311                 2.2932                 1.6521
 Frc consts  --      2.0625                 2.2491                 1.7071
 IR Inten    --      2.6353               239.1043                36.9482

                     55                     56                     57
                      A                      A                      A
 Frequencies --   1337.5572              1365.3860              1372.9507
 Red. masses --      1.4249                 4.8587                 1.2848
 Frc consts  --      1.5019                 5.3368                 1.4270
 IR Inten    --     34.7100                 8.7825                 8.4769

                     58                     59                     60
                      A                      A                      A
 Frequencies --   1379.1010              1410.3669              1422.4669
 Red. masses --      1.3185                 1.3995                 1.3454
 Frc consts  --      1.4775                 1.6402                 1.6039
 IR Inten    --      1.9811                16.5998                13.2511

                     61                     62                     63
                      A                      A                      A
 Frequencies --   1432.5377              1436.2935              1453.4395
 Red. masses --      1.2821                 1.2543                 1.2199
 Frc consts  --      1.5502                 1.5245                 1.5183
 IR Inten    --      3.4980                14.8058                 3.8002

                     64                     65                     66
                      A                      A                      A
 Frequencies --   1502.5402              1506.9850              1517.2349
 Red. masses --      1.4824                 1.4499                 1.0492
 Frc consts  --      1.9718                 1.9401                 1.4230
 IR Inten    --      7.4999                 6.3071                11.5198

                     67                     68                     69
                      A                      A                      A
 Frequencies --   1519.0278              1527.2157              1536.2701
 Red. masses --      1.0546                 1.0455                 1.0564
 Frc consts  --      1.4338                 1.4368                 1.4690
 IR Inten    --      2.6529                 1.7271                 3.2951

                     70                     71                     72
                      A                      A                      A
 Frequencies --   1537.2176              1545.1519              1547.7253
 Red. masses --      1.0508                 1.0528                 2.1902
 Frc consts  --      1.4630                 1.4810                 3.0912
 IR Inten    --      4.8807                 4.9294                11.3367

                     73                     74                     75
                      A                      A                      A
 Frequencies --   1648.3275              1666.5785              1810.6893
 Red. masses --      5.6047                 5.5671                10.9526
 Frc consts  --      8.9721                 9.1103                21.1571
 IR Inten    --      1.4017                 5.4498               179.1097

                     76                     77                     78
                      A                      A                      A
 Frequencies --   3040.2699              3044.8491              3061.1793
 Red. masses --      1.0405                 1.0437                 1.0812
 Frc consts  --      5.6664                 5.7013                 5.9693
 IR Inten    --     15.7304                27.1502                18.0156

                     79                     80                     81
                      A                      A                      A
 Frequencies --   3070.8467              3085.9575              3088.2971
 Red. masses --      1.0406                 1.0839                 1.0580
 Frc consts  --      5.7816                 6.0814                 5.9455
 IR Inten    --     21.3973                 8.6293                12.3688

                     82                     83                     84
                      A                      A                      A
 Frequencies --   3103.4763              3114.8894              3125.3038
 Red. masses --      1.0985                 1.0967                 1.1022
 Frc consts  --      6.2336                 6.2694                 6.3429
 IR Inten    --      1.9552                56.1085                35.7668

                     85                     86                     87
                      A                      A                      A
 Frequencies --   3134.7703              3141.9908              3153.9726
 Red. masses --      1.1007                 1.1075                 1.0975
 Frc consts  --      6.3727                 6.4417                 6.4322
 IR Inten    --     22.9640                 6.7774                12.0364

                     88                     89                     90
                      A                      A                      A
 Frequencies --   3169.1529              3181.6175              3187.5009
 Red. masses --      1.1016                 1.0850                 1.0874
 Frc consts  --      6.5186                 6.4709                 6.5092
 IR Inten    --     11.5198                 2.6682                 0.5087

                     91                     92                     93
                      A                      A                      A
 Frequencies --   3196.0779              3203.1047              3212.3933
 Red. masses --      1.0910                 1.0945                 1.0981
 Frc consts  --      6.5664                 6.6160                 6.6768
 IR Inten    --     16.4700                31.7425                16.7547

 - Thermochemistry -
 -------------------
 Temperature   298.150 Kelvin.  Pressure   1.00000 Atm.
 Atom     1 has atomic number  6 and mass  12.00000

 Molecular mass:   206.13068 amu.
 Principal axes and moments of inertia in atomic units:
                           1         2         3
     Eigenvalues --  1784.445624674.559665398.56471
           X            0.99995   0.01041  -0.00027
           Y           -0.01041   0.99979   0.01743
           Z            0.00045  -0.01743   0.99985
 This molecule is an asymmetric top.
 Rotational symmetry number  1.
 Warning -- assumption of classical behavior for rotation
           may cause significant error
 Rotational temperatures (Kelvin)      0.04854     0.01853     0.01604
 Rotational constants (GHZ):           1.01137     0.38608     0.33430
 Zero-point vibrational energy     752477.4 (Joules/Mol)
                                  179.84642 (Kcal/Mol)
 Warning -- explicit consideration of  22 degrees of freedom as
           vibrations may cause significant error
 Vibrational temperatures:     32.88    44.68    47.47    94.29   154.76
          (Kelvin)            163.53   271.51   297.39   307.63   316.21
                              333.01   395.74   448.55   515.74   524.19
                              529.77   597.29   628.51   676.13   698.83
                              758.42   774.75   916.75   989.98  1021.97
                             1061.90  1112.53  1135.97  1231.22  1234.52
                             1236.07  1318.97  1336.31  1365.57  1376.25
                             1391.73  1408.75  1414.89  1432.38  1449.10
                             1471.88  1526.75  1550.84  1601.72  1657.93
                             1673.20  1678.28  1718.16  1732.24  1749.76
                             1761.55  1763.14  1856.29  1905.34  1924.45
                             1964.49  1975.37  1984.22  2029.20  2046.61
                             2061.10  2066.51  2091.18  2161.82  2168.22
                             2182.96  2185.54  2197.32  2210.35  2211.71
                             2223.13  2226.83  2371.58  2397.83  2605.18
                             4374.27  4380.86  4404.35  4418.26  4440.00
                             4443.37  4465.21  4481.63  4496.62  4510.24
                             4520.62  4537.86  4559.70  4577.64  4586.10
                             4598.44  4608.55  4621.92

 Zero-point correction=                           0.286604 (Hartree/Particle)
 Thermal correction to Energy=                    0.301963
 Thermal correction to Enthalpy=                  0.302907
 Thermal correction to Gibbs Free Energy=         0.242331
 Sum of electronic and zero-point Energies=           -656.471885
 Sum of electronic and thermal Energies=              -656.456526
 Sum of electronic and thermal Enthalpies=            -656.455581
 Sum of electronic and thermal Free Energies=         -656.516157

                     E (Thermal)             CV                S
                      KCal/Mol        Cal/Mol-Kelvin    Cal/Mol-Kelvin
 Total                  189.484             57.740            127.492
 Electronic               0.000              0.000              0.000
 Translational            0.889              2.981             41.874
 Rotational               0.889              2.981             32.177
 Vibrational            187.707             51.779             53.442
 Vibration     1          0.593              1.985              6.369
 Vibration     2          0.594              1.983              5.761
 Vibration     3          0.594              1.983              5.641
 Vibration     4          0.597              1.971              4.283
 Vibration     5          0.606              1.943              3.312
 Vibration     6          0.607              1.938              3.205
 Vibration     7          0.633              1.855              2.240
 Vibration     8          0.641              1.830              2.073
 Vibration     9          0.644              1.820              2.011
 Vibration    10          0.647              1.811              1.961
 Vibration    11          0.653              1.793              1.868
 Vibration    12          0.677              1.719              1.564
 Vibration    13          0.700              1.651              1.353
 Vibration    14          0.733              1.558              1.129
 Vibration    15          0.738              1.546              1.104
 Vibration    16          0.741              1.538              1.087
 Vibration    17          0.779              1.437              0.909
 Vibration    18          0.797              1.390              0.837
 Vibration    19          0.827              1.317              0.738
 Vibration    20          0.842              1.282              0.695
 Vibration    21          0.882              1.190              0.594
 Vibration    22          0.894              1.165              0.569

 Optimization completed.
    -- Stationary point found.
 Normal termination of Gaussian 16 at Thu Dec 10 16:46:23 2020.

 ----------------------------------------------------------------------
 # B3LYP/6-311++G(d,p) empiricaldispersion=gd3bj scf=xqc pop=npa geom=c
 heck
 ----------------------------------------------------------------------

 --------------------------------------
 CID_58109101_JID_5504_Energie_neutraal
 --------------------------------------
 Structure from the checkpoint file:  "JID_5504.chk"
 Charge =  0 Multiplicity = 1

 SCF Done:  E(RB3LYP) =  -656.940573600     A.U. after   14 cycles
 Normal termination of Gaussian 16 at Thu Dec 10 16:52:39 2020.

 ----------------------------------------------------------------------
 # B3LYP/6-311++G(d,p) empiricaldispersion=gd3bj scf=xqc pop=npa geom=c
 heck
 ----------------------------------------------------------------------

 ------------------------------------
 CID_58109101_JID_5504_Energie_kation
 ------------------------------------
 Structure from the checkpoint file:  "JID_5504.chk"
 Charge =  1 Multiplicity = 2

 SCF Done:  E(UB3LYP) =  -656.624489606     A.U. after   25 cycles
 Normal termination of Gaussian 16 at Thu Dec 10 17:14:51 2020.
 Gaussian 16:  ES64L-G16RevA.03 25-Dec-2016

 ----------------------------------------------------------------------
 # B3LYP/6-311++G(d,p) empiricaldispersion=gd3bj scf=xqc pop=npa geom=c
 heck
 ----------------------------------------------------------------------

 -----------------------------------
 CID_58109101_JID_5504_Energie_anion
 -----------------------------------
 Structure from the checkpoint file:  "JID_5504.chk"
 Charge = -1 Multiplicity = 2

                         Standard orientation:
 ---------------------------------------------------------------------
 Center     Atomic      Atomic             Coordinates (Angstroms)
 Number     Number       Type             X           Y           Z
 ---------------------------------------------------------------------
      1          6           0        3.319935    2.026817    0.330438
      2          6           0        2.071890    1.133551    0.281815
      3          6           0        0.849143    1.945008   -0.167876
      4          6           0        2.315678   -0.066745   -0.649609
      5          6           0        3.481239   -0.973379   -0.263589
      6          8           0        1.093009   -0.847362   -0.840313
      7          6           0        0.527549   -1.473791    0.206431
      8          8           0        0.990133   -1.543618    1.326354
      9          6           0       -0.837728   -2.018649   -0.183720
     10          6           0       -1.846549   -0.889056   -0.094533
     11          6           0       -2.201863   -0.370336    1.156934
     12          6           0       -3.078803    0.708717    1.251483
     13          6           0       -3.608493    1.285180    0.095132
     14          6           0       -3.255090    0.776199   -1.154724
     15          6           0       -2.376051   -0.303550   -1.247909
     16          1           0        3.598263    2.372143   -0.674186
     17          1           0        4.182851    1.511495    0.763148
     18          1           0        3.123962    2.914865    0.940825
     19          1           0        1.885381    0.741983    1.287192
     20          1           0        0.996600    2.342341   -1.180861
     21          1           0       -0.065536    1.347899   -0.172911
     22          1           0        0.691466    2.796395    0.503367
     23          1           0        2.483051    0.317727   -1.662300
     24          1           0        3.407018   -1.292315    0.777518
     25          1           0        3.486469   -1.861830   -0.903266
     26          1           0        4.429998   -0.449095   -0.411635
     27          1           0       -0.802476   -2.420495   -1.199590
     28          1           0       -1.084275   -2.823112    0.514067
     29          1           0       -1.772015   -0.807944    2.053838
     30          1           0       -3.346480    1.102020    2.228208
     31          1           0       -4.291594    2.126620    0.168432
     32          1           0       -3.660756    1.220810   -2.059242
     33          1           0       -2.092212   -0.691474   -2.222569
 ---------------------------------------------------------------------

 SCF Done:  E(UB3LYP) =  -656.926531815     A.U. after   33 cycles
 SCF Done:  E(UB3LYP) =  -656.926531814     a.u. after    1 cycles

 The electronic state is 2-A.
 Alpha  occ. eigenvalues --  -19.06058 -19.00519 -10.19518 -10.13474 -10.08404
 Alpha  occ. eigenvalues --  -10.08333 -10.07863 -10.07555 -10.07412 -10.07253
 Alpha  occ. eigenvalues --  -10.07151 -10.07138 -10.06750 -10.06479 -10.05582
 Alpha  occ. eigenvalues --   -1.00030  -0.91702  -0.76115  -0.72280  -0.68678
 Alpha  occ. eigenvalues --   -0.64865  -0.64699  -0.61011  -0.58836  -0.55454
 Alpha  occ. eigenvalues --   -0.50828  -0.50170  -0.48942  -0.43732  -0.41571
 Alpha  occ. eigenvalues --   -0.38937  -0.38837  -0.37711  -0.35808  -0.35782
 Alpha  occ. eigenvalues --   -0.35379  -0.33417  -0.32894  -0.32341  -0.31505
 Alpha  occ. eigenvalues --   -0.30298  -0.29654  -0.29088  -0.28673  -0.27249
 Alpha  occ. eigenvalues --   -0.26642  -0.26363  -0.24889  -0.24419  -0.24098
 Alpha  occ. eigenvalues --   -0.23631  -0.22632  -0.20057  -0.17526  -0.15671
 Alpha  occ. eigenvalues --   -0.14668   0.04423
 Alpha virt. eigenvalues --    0.06202   0.06778   0.07412   0.07926   0.08265
 Alpha virt. eigenvalues --    0.08302   0.08690   0.09430   0.09864   0.10090
 Alpha virt. eigenvalues --    0.10888   0.11347   0.11457   0.11858   0.12748

  Beta  occ. eigenvalues --  -19.06051 -19.00479 -10.19442 -10.13464 -10.08351
  Beta  occ. eigenvalues --  -10.08326 -10.07861 -10.07545 -10.07406 -10.07241
  Beta  occ. eigenvalues --  -10.07121 -10.07074 -10.06725 -10.06455 -10.05572
  Beta  occ. eigenvalues --   -0.99966  -0.91641  -0.76030  -0.72250  -0.68587
  Beta  occ. eigenvalues --   -0.64821  -0.64634  -0.60919  -0.58795  -0.55399
  Beta  occ. eigenvalues --   -0.50784  -0.50106  -0.48836  -0.43664  -0.41495
  Beta  occ. eigenvalues --   -0.38883  -0.38760  -0.37599  -0.35749  -0.35714
  Beta  occ. eigenvalues --   -0.35338  -0.33324  -0.32840  -0.32304  -0.31463
  Beta  occ. eigenvalues --   -0.30249  -0.29615  -0.29060  -0.28589  -0.27202
  Beta  occ. eigenvalues --   -0.26534  -0.26284  -0.24841  -0.24369  -0.24042
  Beta  occ. eigenvalues --   -0.23580  -0.22594  -0.19961  -0.17441  -0.15549
  Beta  occ. eigenvalues --   -0.14413
  Beta virt. eigenvalues --    0.06512   0.07074   0.07379   0.07998   0.08289
  Beta virt. eigenvalues --    0.08341   0.08821   0.09149   0.09873   0.10151
  Beta virt. eigenvalues --    0.10421   0.11241   0.11591   0.11731   0.12097

 Mulliken charges and spin densities:
               1          2
     1  C    0.440106  -1.026207
     2  C   -0.390635   0.538069
     3  C   -0.486646  -0.089814
     4  C   -0.296036   0.315330
     5  C    0.490106  -1.078618
     6  O    0.057648   0.007915
     7  C   -0.258130   0.328158
     8  O   -0.207660   0.017259
     9  C    2.431576  -3.220018
    10  C   -0.620412   1.330106
    11  C   -0.988252   0.829510
    12  C   -0.335303   0.041795
    13  C    1.064222  -1.324986
    14  C    0.320004  -0.690567
    15  C   -0.803721   0.587459
    16  H   -0.131710   0.280407
    17  H   -0.087016   0.224934
    18  H    0.021860   0.117179
    19  H    0.214307  -0.021474
    20  H    0.032092   0.092822
    21  H    0.571793  -0.318174
    22  H   -0.056428   0.165530
    23  H   -0.175077   0.375948
    24  H    0.097114   0.102289
    25  H   -0.029199   0.174189
    26  H   -0.271852   0.419926
    27  H   -0.137722   0.323067
    28  H   -0.009975   0.199344
    29  H    0.075819   0.107828
    30  H   -0.223185   0.387911
    31  H   -0.293982   0.439972
    32  H   -0.539594   0.718469
    33  H   -0.474113   0.644439
 Sum of Mulliken charges =  -1.00000   1.00000

 Dipole moment (field-independent basis, Debye):
    X=              1.1009    Y=             -0.5881    Z=              2.3976  Tot=              2.7031
 Quadrupole moment (field-independent basis, Debye-Ang):
   XX=           -169.8522   YY=           -132.0689   ZZ=           -128.6990
   XY=              3.2346   XZ=             -3.1333   YZ=              1.1519

 Summary of Natural Population Analysis:

                                       Natural Population
                Natural  -----------------------------------------------
    Atom  No    Charge         Core      Valence    Rydberg      Total
 -----------------------------------------------------------------------
      C    1   -0.28449      0.99965     2.27923    0.00561     3.28449
      C    2   -0.12917      0.99958     2.12130    0.00829     3.12917
      C    3   -0.28440      0.99964     2.27882    0.00594     3.28440
      C    4    0.06951      0.99950     1.91652    0.01446     2.93049
      C    5   -0.30136      0.99964     2.29591    0.00581     3.30136
      O    6   -0.28590      0.99986     3.27619    0.00985     4.28590
      C    7    0.42238      0.99969     1.55110    0.02683     2.57762
      O    8   -0.31106      0.99987     3.30618    0.00501     4.31106
      C    9   -0.23815      0.99955     2.22906    0.00953     3.23815
      C   10   -0.01012      0.99949     2.00004    0.01059     3.01012
      C   11   -0.10059      0.99950     2.09208    0.00901     3.10059
      C   12   -0.10038      0.99956     2.09045    0.01036     3.10038
      C   13   -0.09624      0.99956     2.08654    0.01014     3.09624
      C   14   -0.09999      0.99956     2.09006    0.01037     3.09999
      C   15   -0.09500      0.99950     2.08519    0.01031     3.09500
      H   16    0.09707      0.00000     0.40184    0.00109     0.40293
      H   17    0.10018      0.00000     0.39897    0.00085     0.39982
      H   18    0.09973      0.00000     0.39950    0.00077     0.40027
      H   19    0.10554      0.00000     0.39253    0.00193     0.39446
      H   20    0.09495      0.00000     0.40405    0.00099     0.40505
      H   21    0.10943      0.00000     0.38903    0.00154     0.39057
      H   22    0.09700      0.00000     0.40221    0.00079     0.40300
      H   23    0.09174      0.00000     0.40681    0.00145     0.40826
      H   24    0.10995      0.00000     0.38910    0.00095     0.39005
      H   25    0.10357      0.00000     0.39550    0.00092     0.39643
      H   26    0.10320      0.00000     0.39575    0.00105     0.39680
      H   27    0.11366      0.00000     0.38465    0.00169     0.38634
      H   28    0.11161      0.00000     0.38731    0.00108     0.38839
      H   29    0.10408      0.00000     0.39459    0.00133     0.39592
      H   30    0.09896      0.00000     0.40021    0.00082     0.40104
      H   31    0.09983      0.00000     0.39900    0.00116     0.40017
      H   32    0.10149      0.00000     0.39711    0.00140     0.39851
      H   33    0.10297      0.00000     0.39550    0.00153     0.39703
 =======================================================================
   * Total *    0.00000     14.99417    40.83236    0.17347    56.00000

 Normal termination of Gaussian 16 at Thu Dec 10 17:39:41 2020.
