 Gaussian 16, Revision A.03,

 -----------------------------------------------------------
 # opt freq B3LYP/6-31G(d) empiricaldispersion=gd3bj scf=xqc
 -----------------------------------------------------------

 -------------------------------
 CID_116156596_JID_5530_neutraal
 -------------------------------
 Symbolic Z-matrix:
 Charge =  0 Multiplicity = 1

 SCF Done:  E(RB3LYP) =  -692.420516738     A.U. after   14 cycles
 SCF Done:  E(RB3LYP) =  -692.425019590     A.U. after   12 cycles
 SCF Done:  E(RB3LYP) =  -692.425544060     A.U. after   12 cycles
 SCF Done:  E(RB3LYP) =  -692.425967327     A.U. after   12 cycles
 SCF Done:  E(RB3LYP) =  -692.426134577     A.U. after   11 cycles
 SCF Done:  E(RB3LYP) =  -692.426210682     A.U. after   10 cycles
 SCF Done:  E(RB3LYP) =  -692.426235963     A.U. after    9 cycles
 SCF Done:  E(RB3LYP) =  -692.426238875     A.U. after    9 cycles
 SCF Done:  E(RB3LYP) =  -692.426241139     A.U. after    9 cycles
 SCF Done:  E(RB3LYP) =  -692.426241619     A.U. after    7 cycles
 SCF Done:  E(RB3LYP) =  -692.432114657     A.U. after   10 cycles
 SCF Done:  E(RB3LYP) =  -692.432115123     A.U. after    9 cycles
 SCF Done:  E(RB3LYP) =  -692.432115192     A.U. after    7 cycles
 SCF Done:  E(RB3LYP) =  -692.432115258     A.U. after    7 cycles
 SCF Done:  E(RB3LYP) =  -692.432115260     A.U. after    6 cycles
 Optimization completed.
    -- Stationary point found.
 Normal termination of Gaussian 16 at Thu Dec 10 17:06:30 2020.

 --------------------------------------------------------------------
 #N Geom=AllCheck Guess=TCheck SCRF=Check GenChk RB3LYP/6-31G(d) Freq
 --------------------------------------------------------------------

 Structure from the checkpoint file:  "JID_5530.chk"
 -------------------------------
 CID_116156596_JID_5530_neutraal
 -------------------------------
 Charge =  0 Multiplicity = 1

 SCF Done:  E(RB3LYP) =  -692.432115260     A.U. after    1 cycles

  Exact polarizability: 153.670   3.233 132.272   4.630   2.299 111.173
 Approx polarizability: 188.771  12.027 189.491   7.897   6.243 168.259

                      1                      2                      3
                      A                      A                      A
 Frequencies --     22.8887                24.8771                39.1804
 Red. masses --      3.1989                 4.2342                 3.3016
 Frc consts  --      0.0010                 0.0015                 0.0030
 IR Inten    --      0.2971                 0.4076                 1.1288

                      4                      5                      6
                      A                      A                      A
 Frequencies --     53.2646                83.2967                93.5000
 Red. masses --      3.6381                 3.4022                 3.1400
 Frc consts  --      0.0061                 0.0139                 0.0162
 IR Inten    --      0.9429                 0.1032                 0.8681

                      7                      8                      9
                      A                      A                      A
 Frequencies --    119.3436               134.2556               173.3838
 Red. masses --      3.1627                 2.9043                 2.2987
 Frc consts  --      0.0265                 0.0308                 0.0407
 IR Inten    --      1.6398                 7.1572                 4.8055

                     10                     11                     12
                      A                      A                      A
 Frequencies --    183.3540               222.3614               264.4623
 Red. masses --      2.5345                 2.0238                 2.3455
 Frc consts  --      0.0502                 0.0590                 0.0967
 IR Inten    --      8.0142                 0.7680                 7.3254

                     13                     14                     15
                      A                      A                      A
 Frequencies --    285.5920               288.7874               342.1106
 Red. masses --      1.5445                 2.3036                 1.8625
 Frc consts  --      0.0742                 0.1132                 0.1284
 IR Inten    --      0.0410                 3.3576                 7.1858

                     16                     17                     18
                      A                      A                      A
 Frequencies --    357.2631               369.9544               396.9564
 Red. masses --      2.5430                 3.0040                 2.1159
 Frc consts  --      0.1912                 0.2422                 0.1964
 IR Inten    --     10.3924                 4.7773                 0.0394

                     19                     20                     21
                      A                      A                      A
 Frequencies --    437.0511               486.9037               518.0251
 Red. masses --      3.1232                 4.2169                 3.0904
 Frc consts  --      0.3515                 0.5890                 0.4886
 IR Inten    --      4.3029                 0.9007                 7.7199

                     22                     23                     24
                      A                      A                      A
 Frequencies --    529.3708               568.6067               572.6524
 Red. masses --      2.5478                 3.0397                 2.5920
 Frc consts  --      0.4207                 0.5790                 0.5008
 IR Inten    --      2.0055                 5.1853                11.6276

                     25                     26                     27
                      A                      A                      A
 Frequencies --    689.5478               707.1957               752.2388
 Red. masses --      2.3876                 2.8491                 1.2240
 Frc consts  --      0.6689                 0.8395                 0.4081
 IR Inten    --      7.1640                 7.5567                 6.4616

                     28                     29                     30
                      A                      A                      A
 Frequencies --    799.2222               829.0021               834.0462
 Red. masses --      1.5992                 2.0441                 1.9720
 Frc consts  --      0.6019                 0.8277                 0.8082
 IR Inten    --      8.6107                85.9690                58.4513

                     31                     32                     33
                      A                      A                      A
 Frequencies --    870.6639               886.9121               908.9932
 Red. masses --      1.5429                 2.3731                 1.9778
 Frc consts  --      0.6891                 1.0998                 0.9628
 IR Inten    --      3.7127                 3.0945                 1.2961

                     34                     35                     36
                      A                      A                      A
 Frequencies --    930.8113               968.8243               982.1268
 Red. masses --      2.2022                 1.7767                 1.9586
 Frc consts  --      1.1242                 0.9825                 1.1131
 IR Inten    --      7.3152                 5.7474                 9.4284

                     37                     38                     39
                      A                      A                      A
 Frequencies --    991.4433              1005.5839              1013.4233
 Red. masses --      1.9062                 1.5087                 2.2125
 Frc consts  --      1.1040                 0.8989                 1.3388
 IR Inten    --     10.9380                 3.8024                 7.1210

                     40                     41                     42
                      A                      A                      A
 Frequencies --   1045.5742              1065.9304              1090.9710
 Red. masses --      1.8352                 1.7887                 2.5809
 Frc consts  --      1.1820                 1.1974                 1.8099
 IR Inten    --      7.2796                11.6920                 4.9860

                     43                     44                     45
                      A                      A                      A
 Frequencies --   1109.4113              1133.5971              1145.0061
 Red. masses --      2.4157                 2.2601                 1.7796
 Frc consts  --      1.7518                 1.7112                 1.3747
 IR Inten    --      4.6514                 7.9016                 8.4105

                     46                     47                     48
                      A                      A                      A
 Frequencies --   1151.9827              1168.1787              1171.8201
 Red. masses --      2.8321                 2.9255                 3.1937
 Frc consts  --      2.2143                 2.3521                 2.5839
 IR Inten    --     66.1215                95.1302                 4.5749

                     49                     50                     51
                      A                      A                      A
 Frequencies --   1177.6949              1211.4064              1239.0529
 Red. masses --      2.8453                 1.8163                 1.3039
 Frc consts  --      2.3251                 1.5704                 1.1794
 IR Inten    --     44.7527                26.3451                12.5389

                     52                     53                     54
                      A                      A                      A
 Frequencies --   1258.4086              1273.2964              1284.2421
 Red. masses --      1.1473                 1.2881                 1.3510
 Frc consts  --      1.0704                 1.2304                 1.3128
 IR Inten    --      3.4227                35.8056                31.5734

                     55                     56                     57
                      A                      A                      A
 Frequencies --   1291.3015              1304.8453              1336.2073
 Red. masses --      1.2893                 1.4386                 1.3051
 Frc consts  --      1.2666                 1.4431                 1.3729
 IR Inten    --      5.0321                15.3532                41.1771

                     58                     59                     60
                      A                      A                      A
 Frequencies --   1337.6305              1344.8132              1363.6602
 Red. masses --      1.1243                 1.2540                 1.4427
 Frc consts  --      1.1852                 1.3362                 1.5806
 IR Inten    --      1.8551                15.2371                 5.7329

                     61                     62                     63
                      A                      A                      A
 Frequencies --   1384.2125              1388.5135              1400.9064
 Red. masses --      1.6140                 1.2972                 1.3178
 Frc consts  --      1.8221                 1.4735                 1.5238
 IR Inten    --     66.8677                27.2249                29.1185

                     64                     65                     66
                      A                      A                      A
 Frequencies --   1405.8536              1408.4855              1410.6189
 Red. masses --      1.3757                 1.4593                 1.4255
 Frc consts  --      1.6020                 1.7057                 1.6713
 IR Inten    --      0.3076                 3.1201                10.9025

                     67                     68                     69
                      A                      A                      A
 Frequencies --   1426.9604              1443.2153              1468.2558
 Red. masses --      1.3257                 1.2783                 1.4660
 Frc consts  --      1.5905                 1.5688                 1.8621
 IR Inten    --     17.0099                 6.3722                 6.4466

                     70                     71                     72
                      A                      A                      A
 Frequencies --   1480.2625              1492.2107              1505.0587
 Red. masses --      1.3345                 1.1932                 1.1570
 Frc consts  --      1.7228                 1.5653                 1.5442
 IR Inten    --     39.0492                11.5169                 7.7592

                     73                     74                     75
                      A                      A                      A
 Frequencies --   1505.9337              1507.4064              1512.0696
 Red. masses --      1.1006                 1.1139                 1.1122
 Frc consts  --      1.4705                 1.4912                 1.4982
 IR Inten    --      1.8624                11.5134                 3.9016

                     76                     77                     78
                      A                      A                      A
 Frequencies --   1520.2827              1524.5994              1530.9574
 Red. masses --      1.0713                 1.3634                 1.0542
 Frc consts  --      1.4588                 1.8672                 1.4557
 IR Inten    --      0.6135                28.4302                 3.5234

                     79                     80                     81
                      A                      A                      A
 Frequencies --   1534.8036              1545.5022              1555.9726
 Red. masses --      1.0729                 1.0751                 1.1652
 Frc consts  --      1.4890                 1.5130                 1.6622
 IR Inten    --      8.7889                12.2921                10.0593

                     82                     83                     84
                      A                      A                      A
 Frequencies --   1564.6082              1756.0753              2976.2169
 Red. masses --      1.0871                 9.8583                 1.0582
 Frc consts  --      1.5679                17.9117                 5.5228
 IR Inten    --      2.6134               266.9218                17.8367

                     85                     86                     87
                      A                      A                      A
 Frequencies --   2988.0508              2989.8800              3008.3288
 Red. masses --      1.0730                 1.0582                 1.0983
 Frc consts  --      5.6443                 5.5736                 5.8561
 IR Inten    --     59.2905                72.7056                55.9066

                     88                     89                     90
                      A                      A                      A
 Frequencies --   3015.2777              3036.0715              3040.8342
 Red. masses --      1.1053                 1.0631                 1.0695
 Frc consts  --      5.9207                 5.7736                 5.8266
 IR Inten    --     47.6951                38.0312                20.4164

                     91                     92                     93
                      A                      A                      A
 Frequencies --   3044.9048              3048.1556              3049.5602
 Red. masses --      1.0386                 1.0639                 1.0648
 Frc consts  --      5.6733                 5.8238                 5.8341
 IR Inten    --     29.1035                34.8443                30.5253

                     94                     95                     96
                      A                      A                      A
 Frequencies --   3063.4685              3073.5227              3087.1407
 Red. masses --      1.0659                 1.1021                 1.0608
 Frc consts  --      5.8937                 6.1337                 5.9567
 IR Inten    --     37.2934                42.9376                26.4038

                     97                     98                     99
                      A                      A                      A
 Frequencies --   3091.3656              3097.8644              3101.1597
 Red. masses --      1.0978                 1.0885                 1.1032
 Frc consts  --      6.1812                 6.1546                 6.2510
 IR Inten    --     17.4692                18.0837                26.3683

                    100                    101                    102
                      A                      A                      A
 Frequencies --   3112.3775              3119.1441              3120.2826
 Red. masses --      1.1004                 1.1002                 1.1023
 Frc consts  --      6.2804                 6.3067                 6.3233
 IR Inten    --     51.8581                16.2119                54.2723

                    103                    104                    105
                      A                      A                      A
 Frequencies --   3124.3908              3140.6154              3475.8755
 Red. masses --      1.0940                 1.1065                 1.0740
 Frc consts  --      6.2923                 6.4302                 7.6449
 IR Inten    --     11.6842                16.7857                 0.9611

 - Thermochemistry -
 -------------------
 Temperature   298.150 Kelvin.  Pressure   1.00000 Atm.
 Atom     1 has atomic number  6 and mass  12.00000

 Molecular mass:   214.16813 amu.
 Principal axes and moments of inertia in atomic units:
                           1         2         3
     Eigenvalues --  1599.597596416.120177349.03286
           X            0.99998  -0.00601   0.00002
           Y            0.00601   0.99998   0.00356
           Z           -0.00004  -0.00356   0.99999
 This molecule is an asymmetric top.
 Rotational symmetry number  1.
 Warning -- assumption of classical behavior for rotation
           may cause significant error
 Rotational temperatures (Kelvin)      0.05415     0.01350     0.01179
 Rotational constants (GHZ):           1.12825     0.28128     0.24558
 Zero-point vibrational energy     881167.9 (Joules/Mol)
                                  210.60417 (Kcal/Mol)
 Warning -- explicit consideration of  24 degrees of freedom as
           vibrations may cause significant error
 Vibrational temperatures:     32.93    35.79    56.37    76.64   119.85
          (Kelvin)            134.53   171.71   193.16   249.46   263.81
                              319.93   380.50   410.90   415.50   492.22
                              514.02   532.28   571.13   628.82   700.55
                              745.32   761.65   818.10   823.92   992.11
                             1017.50  1082.30  1149.90  1192.75  1200.01
                             1252.69  1276.07  1307.84  1339.23  1393.92
                             1413.06  1426.47  1446.81  1458.09  1504.35
                             1533.64  1569.66  1596.20  1630.99  1647.41
                             1657.45  1680.75  1685.99  1694.44  1742.94
                             1782.72  1810.57  1831.99  1847.74  1857.89
                             1877.38  1922.50  1924.55  1934.89  1962.00
                             1991.57  1997.76  2015.59  2022.71  2026.50
                             2029.57  2053.08  2076.46  2112.49  2129.77
                             2146.96  2165.44  2166.70  2168.82  2175.53
                             2187.35  2193.56  2202.71  2208.24  2223.63
                             2238.70  2251.12  2526.60  4282.11  4299.14
                             4301.77  4328.31  4338.31  4368.23  4375.08
                             4380.94  4385.62  4387.64  4407.65  4422.11
                             4441.71  4447.79  4457.14  4461.88  4478.02
                             4487.75  4489.39  4495.30  4518.65  5001.01

 Zero-point correction=                           0.335619 (Hartree/Particle)
 Thermal correction to Energy=                    0.351937
 Thermal correction to Enthalpy=                  0.352882
 Thermal correction to Gibbs Free Energy=         0.289372
 Sum of electronic and zero-point Energies=           -692.096496
 Sum of electronic and thermal Energies=              -692.080178
 Sum of electronic and thermal Enthalpies=            -692.079234
 Sum of electronic and thermal Free Energies=         -692.142743

                     E (Thermal)             CV                S
                      KCal/Mol        Cal/Mol-Kelvin    Cal/Mol-Kelvin
 Total                  220.844             60.060            133.667
 Electronic               0.000              0.000              0.000
 Translational            0.889              2.981             41.988
 Rotational               0.889              2.981             32.689
 Vibrational            219.067             54.099             58.989
 Vibration     1          0.593              1.985              6.366
 Vibration     2          0.593              1.985              6.201
 Vibration     3          0.594              1.981              5.300
 Vibration     4          0.596              1.976              4.692
 Vibration     5          0.600              1.961              3.812
 Vibration     6          0.603              1.954              3.585
 Vibration     7          0.609              1.933              3.111
 Vibration     8          0.613              1.919              2.884
 Vibration     9          0.627              1.875              2.398
 Vibration    10          0.631              1.862              2.294
 Vibration    11          0.648              1.807              1.940
 Vibration    12          0.671              1.738              1.632
 Vibration    13          0.683              1.700              1.500
 Vibration    14          0.685              1.695              1.481
 Vibration    15          0.721              1.591              1.202
 Vibration    16          0.732              1.560              1.134
 Vibration    17          0.742              1.534              1.080
 Vibration    18          0.763              1.477              0.974
 Vibration    19          0.797              1.389              0.836
 Vibration    20          0.843              1.279              0.692
 Vibration    21          0.873              1.210              0.615
 Vibration    22          0.884              1.185              0.589
 Vibration    23          0.925              1.099              0.507
 Vibration    24          0.929              1.090              0.499

 Optimization completed.
    -- Stationary point found.
 Normal termination of Gaussian 16 at Thu Dec 10 17:20:11 2020.

 ----------------------------------------------------------------------
 # B3LYP/6-311++G(d,p) empiricaldispersion=gd3bj scf=xqc pop=npa geom=c
 heck
 ----------------------------------------------------------------------

 ---------------------------------------
 CID_116156596_JID_5530_Energie_neutraal
 ---------------------------------------
 Structure from the checkpoint file:  "JID_5530.chk"
 Charge =  0 Multiplicity = 1

 SCF Done:  E(RB3LYP) =  -692.633858518     A.U. after   14 cycles
 Normal termination of Gaussian 16 at Thu Dec 10 17:26:54 2020.

 ----------------------------------------------------------------------
 # B3LYP/6-311++G(d,p) empiricaldispersion=gd3bj scf=xqc pop=npa geom=c
 heck
 ----------------------------------------------------------------------

 -------------------------------------
 CID_116156596_JID_5530_Energie_kation
 -------------------------------------
 Structure from the checkpoint file:  "JID_5530.chk"
 Charge =  1 Multiplicity = 2

 SCF Done:  E(UB3LYP) =  -692.334377983     A.U. after   33 cycles
 SCF Done:  E(UB3LYP) =  -692.334377988     a.u. after    4 cycles
 Normal termination of Gaussian 16 at Thu Dec 10 18:25:48 2020.
 Gaussian 16:  ES64L-G16RevA.03 25-Dec-2016

 ----------------------------------------------------------------------
 # B3LYP/6-311++G(d,p) empiricaldispersion=gd3bj scf=xqc pop=npa geom=c
 heck
 ----------------------------------------------------------------------

 ------------------------------------
 CID_116156596_JID_5530_Energie_anion
 ------------------------------------
 Structure from the checkpoint file:  "JID_5530.chk"
 Charge = -1 Multiplicity = 2

                         Standard orientation:
 ---------------------------------------------------------------------
 Center     Atomic      Atomic             Coordinates (Angstroms)
 Number     Number       Type             X           Y           Z
 ---------------------------------------------------------------------
      1          6           0        5.140152   -0.385599    0.048511
      2          6           0        4.186026    0.529183    0.821194
      3          6           0        3.275515    1.380942   -0.075073
      4          6           0        2.376517    0.566150   -0.996163
      5          8           0        1.611000   -0.330636   -0.209333
      6          6           0        0.731532   -1.136493   -0.979057
      7          6           0       -0.019692   -2.080153   -0.053879
      8          6           0       -0.783668   -1.359482    1.065465
      9          7           0       -1.662119   -0.299094    0.568237
     10          6           0       -1.239677    1.089206    0.773844
     11          6           0       -2.006291    2.041596   -0.139006
     12          7           0       -3.450259    1.826574   -0.087206
     13          6           0       -3.765344    0.459986   -0.499140
     14          6           0       -2.857013   -0.662059    0.014932
     15          8           0       -3.189662   -1.838496   -0.118233
     16          1           0        4.592909   -1.148388   -0.515949
     17          1           0        5.820465   -0.907951    0.730013
     18          1           0        5.752277    0.183807   -0.662359
     19          1           0        3.558345   -0.076776    1.483922
     20          1           0        4.766425    1.202492    1.465020
     21          1           0        2.644566    2.022025    0.554225
     22          1           0        3.882429    2.049903   -0.700901
     23          1           0        1.709258    1.233128   -1.568340
     24          1           0        2.973788    0.001419   -1.730156
     25          1           0        0.021889   -0.495224   -1.527392
     26          1           0        1.301914   -1.708716   -1.728383
     27          1           0       -0.732235   -2.660248   -0.648334
     28          1           0        0.686659   -2.783202    0.404587
     29          1           0       -1.390341   -2.086884    1.611506
     30          1           0       -0.079193   -0.898221    1.761827
     31          1           0       -0.162499    1.144919    0.586442
     32          1           0       -1.403397    1.373046    1.826617
     33          1           0       -1.685112    1.898623   -1.179229
     34          1           0       -1.778801    3.077690    0.134479
     35          1           0       -3.768765    1.969047    0.870756
     36          1           0       -3.734468    0.403671   -1.596337
     37          1           0       -4.788515    0.206865   -0.208465
 ---------------------------------------------------------------------

 SCF Done:  E(UB3LYP) =  -692.623371908     A.U. after   29 cycles

 The electronic state is 2-A.
 Alpha  occ. eigenvalues --  -19.03505 -18.98991 -14.24924 -14.21229 -10.17196
 Alpha  occ. eigenvalues --  -10.12685 -10.12116 -10.11084 -10.11075 -10.10960
 Alpha  occ. eigenvalues --  -10.10452 -10.07996 -10.07110 -10.06933 -10.06444
 Alpha  occ. eigenvalues --   -0.94937  -0.94297  -0.85331  -0.81396  -0.71110
 Alpha  occ. eigenvalues --   -0.68712  -0.66326  -0.63338  -0.60591  -0.57678
 Alpha  occ. eigenvalues --   -0.55144  -0.54086  -0.50598  -0.47525  -0.44717
 Alpha  occ. eigenvalues --   -0.42187  -0.40776  -0.40428  -0.40216  -0.37780
 Alpha  occ. eigenvalues --   -0.36989  -0.36765  -0.35673  -0.34419  -0.33531
 Alpha  occ. eigenvalues --   -0.32917  -0.31620  -0.31164  -0.30543  -0.29547
 Alpha  occ. eigenvalues --   -0.28733  -0.27920  -0.27288  -0.26819  -0.26139
 Alpha  occ. eigenvalues --   -0.25411  -0.24641  -0.23749  -0.23315  -0.22418
 Alpha  occ. eigenvalues --   -0.18604  -0.17421  -0.15256  -0.13051   0.04033
 Alpha virt. eigenvalues --    0.05832   0.06921   0.06979   0.08002   0.08332
 Alpha virt. eigenvalues --    0.08726   0.09550   0.09563   0.09820   0.10533
 Alpha virt. eigenvalues --    0.10836   0.11279   0.11801   0.12138   0.12748

  Beta  occ. eigenvalues --  -19.03497 -18.98976 -14.24928 -14.21204 -10.17186
  Beta  occ. eigenvalues --  -10.12672 -10.12094 -10.11080 -10.11068 -10.10932
  Beta  occ. eigenvalues --  -10.10422 -10.07993 -10.07088 -10.06922 -10.06415
  Beta  occ. eigenvalues --   -0.94926  -0.94274  -0.85310  -0.81361  -0.71081
  Beta  occ. eigenvalues --   -0.68686  -0.66280  -0.63303  -0.60552  -0.57641
  Beta  occ. eigenvalues --   -0.55084  -0.54017  -0.50558  -0.47462  -0.44676
  Beta  occ. eigenvalues --   -0.42151  -0.40750  -0.40396  -0.40169  -0.37744
  Beta  occ. eigenvalues --   -0.36934  -0.36742  -0.35645  -0.34384  -0.33507
  Beta  occ. eigenvalues --   -0.32886  -0.31593  -0.31128  -0.30509  -0.29513
  Beta  occ. eigenvalues --   -0.28696  -0.27879  -0.27266  -0.26776  -0.26113
  Beta  occ. eigenvalues --   -0.25371  -0.24604  -0.23717  -0.23285  -0.22368
  Beta  occ. eigenvalues --   -0.18581  -0.17405  -0.15233  -0.13022
  Beta virt. eigenvalues --    0.06134   0.06881   0.07310   0.07472   0.08323
  Beta virt. eigenvalues --    0.08665   0.09164   0.09737   0.09902   0.09992
  Beta virt. eigenvalues --    0.10857   0.10962   0.11641   0.12027   0.12386

 Mulliken charges and spin densities:
               1          2
     1  C    0.841438  -1.414254
     2  C   -0.491579   0.402249
     3  C   -0.240949  -0.026016
     4  C    0.603973  -0.924096
     5  O    0.000443   0.013772
     6  C   -0.186832  -0.184808
     7  C   -0.027560  -0.277591
     8  C   -0.446377   0.224072
     9  N    0.110953   0.022433
    10  C   -0.804337   0.608515
    11  C    0.890416  -1.536603
    12  N   -0.293143   0.253169
    13  C    0.317616  -0.874515
    14  C   -0.468871   0.547693
    15  O   -0.353574   0.003751
    16  H   -0.019520   0.167072
    17  H   -0.150410   0.286089
    18  H   -0.158603   0.290430
    19  H    0.081975   0.045581
    20  H   -0.167601   0.315754
    21  H   -0.470761   0.638650
    22  H   -0.363432   0.511413
    23  H   -0.148328   0.270671
    24  H   -0.126071   0.276179
    25  H    0.129571   0.035437
    26  H   -0.000089   0.139805
    27  H    0.190716   0.010929
    28  H    0.053728   0.097685
    29  H    0.104730   0.093084
    30  H   -0.036220   0.220792
    31  H    1.816944  -1.647318
    32  H   -0.707835   0.911633
    33  H   -0.054471   0.237232
    34  H   -0.531001   0.737354
    35  H   -0.108324   0.344488
    36  H    0.107458   0.092723
    37  H    0.105930   0.086545
 Sum of Mulliken charges =  -1.00000   1.00000

 Dipole moment (field-independent basis, Debye):
    X=             -1.3745    Y=             -4.4705    Z=             -1.1018  Tot=              4.8051
 Quadrupole moment (field-independent basis, Debye-Ang):
   XX=           -190.6623   YY=           -148.2787   ZZ=           -126.3723
   XY=             -1.7686   XZ=              4.1687   YZ=             -4.4445

 Summary of Natural Population Analysis:

                                       Natural Population
                Natural  -----------------------------------------------
    Atom  No    Charge         Core      Valence    Rydberg      Total
 -----------------------------------------------------------------------
      C    1   -0.28623      0.99967     2.28203    0.00454     3.28623
      C    2   -0.19220      0.99964     2.18404    0.00852     3.19220
      C    3   -0.19726      0.99962     2.18796    0.00968     3.19726
      C    4   -0.00795      0.99958     1.99607    0.01230     3.00795
      O    5   -0.30921      0.99988     3.30016    0.00918     4.30921
      C    6   -0.00882      0.99958     1.99785    0.01139     3.00882
      C    7   -0.20352      0.99961     2.19630    0.00761     3.20352
      C    8   -0.08526      0.99961     2.07402    0.01163     3.08526
      N    9   -0.25752      0.99964     2.74677    0.01111     3.75752
      C   10   -0.09061      0.99959     2.07987    0.01114     3.09061
      C   11   -0.09456      0.99963     2.08255    0.01239     3.09456
      N   12   -0.33301      0.99976     2.82019    0.01306     3.83301
      C   13   -0.12979      0.99959     2.11719    0.01300     3.12979
      C   14    0.33809      0.99963     1.64014    0.02214     2.66191
      O   15   -0.33566      0.99988     3.33028    0.00550     4.33566
      H   16    0.09640      0.00000     0.40231    0.00129     0.40360
      H   17    0.09772      0.00000     0.40120    0.00108     0.40228
      H   18    0.09496      0.00000     0.40368    0.00135     0.40504
      H   19    0.09902      0.00000     0.39944    0.00153     0.40098
      H   20    0.09458      0.00000     0.40432    0.00110     0.40542
      H   21    0.10025      0.00000     0.39799    0.00176     0.39975
      H   22    0.09822      0.00000     0.40039    0.00139     0.40178
      H   23    0.08185      0.00000     0.41665    0.00150     0.41815
      H   24    0.07848      0.00000     0.41996    0.00156     0.42152
      H   25    0.07961      0.00000     0.41877    0.00162     0.42039
      H   26    0.08217      0.00000     0.41665    0.00118     0.41783
      H   27    0.10958      0.00000     0.38940    0.00101     0.39042
      H   28    0.09892      0.00000     0.40007    0.00101     0.40108
      H   29    0.10505      0.00000     0.39396    0.00099     0.39495
      H   30    0.10099      0.00000     0.39750    0.00151     0.39901
      H   31    0.10756      0.00000     0.38987    0.00256     0.39244
      H   32    0.09177      0.00000     0.40560    0.00263     0.40823
      H   33    0.09094      0.00000     0.40742    0.00164     0.40906
      H   34    0.10447      0.00000     0.39357    0.00196     0.39553
      H   35    0.17300      0.00000     0.32375    0.00324     0.32700
      H   36    0.10108      0.00000     0.39778    0.00114     0.39892
      H   37    0.10689      0.00000     0.39215    0.00097     0.39311
 =======================================================================
   * Total *    0.00000     14.99492    43.80785    0.19723    59.00000

 Normal termination of Gaussian 16 at Thu Dec 10 18:40:12 2020.
