 Gaussian 16, Revision A.03,

 -----------------------------------------------------------
 # opt freq B3LYP/6-31G(d) empiricaldispersion=gd3bj scf=xqc
 -----------------------------------------------------------

 ------------------------------
 CID_16044790_JID_9737_neutraal
 ------------------------------
 Symbolic Z-matrix:
 Charge =  0 Multiplicity = 1

 SCF Done:  E(RB3LYP) =  -823.982389869     A.U. after   15 cycles
 SCF Done:  E(RB3LYP) =  -823.982753030     A.U. after   15 cycles
 SCF Done:  E(RB3LYP) =  -823.986455674     A.U. after   14 cycles
 SCF Done:  E(RB3LYP) =  -823.987244353     A.U. after   12 cycles
 SCF Done:  E(RB3LYP) =  -823.987510794     A.U. after   12 cycles
 SCF Done:  E(RB3LYP) =  -823.987884309     A.U. after   11 cycles
 SCF Done:  E(RB3LYP) =  -823.988006220     A.U. after   11 cycles
 SCF Done:  E(RB3LYP) =  -823.988047456     A.U. after   11 cycles
 SCF Done:  E(RB3LYP) =  -823.988052525     A.U. after   10 cycles
 SCF Done:  E(RB3LYP) =  -823.988054395     A.U. after    9 cycles
 SCF Done:  E(RB3LYP) =  -823.988055067     A.U. after    8 cycles
 SCF Done:  E(RB3LYP) =  -823.988055847     A.U. after    9 cycles
 SCF Done:  E(RB3LYP) =  -823.988056258     A.U. after    9 cycles
 SCF Done:  E(RB3LYP) =  -823.988056348     A.U. after    7 cycles
 Optimization completed.
    -- Stationary point found.
 Normal termination of Gaussian 16 at Thu Dec 17 20:11:57 2020.

 --------------------------------------------------------------------
 #N Geom=AllCheck Guess=TCheck SCRF=Check GenChk RB3LYP/6-31G(d) Freq
 --------------------------------------------------------------------

 Structure from the checkpoint file:  "JID_9737.chk"
 ------------------------------
 CID_16044790_JID_9737_neutraal
 ------------------------------
 Charge =  0 Multiplicity = 1

 SCF Done:  E(RB3LYP) =  -823.988056348     A.U. after    1 cycles

  Exact polarizability: 235.201 -20.462 187.005  32.011  13.436 128.893
 Approx polarizability: 366.297 -53.901 291.307  69.588  32.103 231.348

                      1                      2                      3
                      A                      A                      A
 Frequencies --     17.9644                20.9634                33.9734
 Red. masses --      5.9371                 5.0686                 5.0873
 Frc consts  --      0.0011                 0.0013                 0.0035
 IR Inten    --      0.2459                 0.3056                 1.0118

                      4                      5                      6
                      A                      A                      A
 Frequencies --     52.5529               103.7125               128.3726
 Red. masses --      4.3941                 4.7958                 2.2099
 Frc consts  --      0.0072                 0.0304                 0.0215
 IR Inten    --      2.3707                 1.0066                 0.3880

                      7                      8                      9
                      A                      A                      A
 Frequencies --    135.3145               164.0121               173.4193
 Red. masses --      5.7675                 2.0777                 2.1319
 Frc consts  --      0.0622                 0.0329                 0.0378
 IR Inten    --      7.7498                 5.6698                 2.4442

                     10                     11                     12
                      A                      A                      A
 Frequencies --    224.9264               233.8926               272.6442
 Red. masses --      4.2393                 4.4164                 5.2710
 Frc consts  --      0.1264                 0.1423                 0.2309
 IR Inten    --      4.8368                 3.4444                 1.5430

                     13                     14                     15
                      A                      A                      A
 Frequencies --    280.8833               335.2366               361.3411
 Red. masses --      3.9395                 5.8549                 1.1092
 Frc consts  --      0.1831                 0.3877                 0.0853
 IR Inten    --      1.9927                 1.4033               108.3285

                     16                     17                     18
                      A                      A                      A
 Frequencies --    368.3614               403.8889               420.6609
 Red. masses --      4.5259                 5.0207                 3.0308
 Frc consts  --      0.3618                 0.4825                 0.3160
 IR Inten    --      8.7904                 1.7972                 0.2555

                     19                     20                     21
                      A                      A                      A
 Frequencies --    459.4758               464.3069               477.5622
 Red. masses --      3.5850                 3.5726                 3.7514
 Frc consts  --      0.4459                 0.4538                 0.5041
 IR Inten    --      2.1223                 1.9557                 9.6750

                     22                     23                     24
                      A                      A                      A
 Frequencies --    517.5526               537.1402               559.9479
 Red. masses --      2.3419                 5.0005                 2.4223
 Frc consts  --      0.3696                 0.8500                 0.4475
 IR Inten    --     18.4934                10.8512                37.6648

                     25                     26                     27
                      A                      A                      A
 Frequencies --    605.4008               612.2764               633.8243
 Red. masses --      3.4729                 3.3036                 6.1694
 Frc consts  --      0.7500                 0.7297                 1.4603
 IR Inten    --     19.2133                18.2865                 1.4933

                     28                     29                     30
                      A                      A                      A
 Frequencies --    646.7496               681.4939               698.7849
 Red. masses --      4.5524                 3.6951                 3.0902
 Frc consts  --      1.1219                 1.0111                 0.8890
 IR Inten    --     25.4192                 6.1487                 0.3465

                     31                     32                     33
                      A                      A                      A
 Frequencies --    706.1427               718.9029               752.7091
 Red. masses --      3.4155                 1.5353                 3.8988
 Frc consts  --      1.0034                 0.4675                 1.3015
 IR Inten    --      3.5075                38.4481                 2.6050

                     34                     35                     36
                      A                      A                      A
 Frequencies --    765.7632               788.3421               809.6552
 Red. masses --      1.4883                 2.4099                 2.5031
 Frc consts  --      0.5142                 0.8824                 0.9668
 IR Inten    --     54.7846                38.1787                 6.0366

                     37                     38                     39
                      A                      A                      A
 Frequencies --    847.6464               852.6719               865.9237
 Red. masses --      1.4279                 1.8697                 1.5989
 Frc consts  --      0.6045                 0.8009                 0.7063
 IR Inten    --      0.8096                53.1716                40.8242

                     40                     41                     42
                      A                      A                      A
 Frequencies --    869.8832               903.8716               948.3790
 Red. masses --      1.2660                 4.2660                 1.4153
 Frc consts  --      0.5644                 2.0535                 0.7500
 IR Inten    --      0.8764                10.2003                 0.7541

                     43                     44                     45
                      A                      A                      A
 Frequencies --    953.4205               981.2054              1001.7077
 Red. masses --      1.2524                 1.3492                 1.2536
 Frc consts  --      0.6707                 0.7653                 0.7411
 IR Inten    --      0.7922                 0.9004                 0.2134

                     46                     47                     48
                      A                      A                      A
 Frequencies --   1012.8528              1019.4204              1023.0772
 Red. masses --      3.2443                 4.1943                 5.8982
 Frc consts  --      1.9609                 2.5681                 3.6373
 IR Inten    --     40.3450                13.7296                 2.0110

                     49                     50                     51
                      A                      A                      A
 Frequencies --   1042.1542              1056.8732              1072.6248
 Red. masses --      1.6847                 2.1070                 1.5226
 Frc consts  --      1.0780                 1.3866                 1.0322
 IR Inten    --     11.2053                 5.9713                 5.8116

                     52                     53                     54
                      A                      A                      A
 Frequencies --   1107.5451              1123.1431              1128.1293
 Red. masses --      1.7830                 2.2654                 1.6690
 Frc consts  --      1.2886                 1.6837                 1.2515
 IR Inten    --     32.2319                24.4349                 1.6058

                     55                     56                     57
                      A                      A                      A
 Frequencies --   1193.1478              1194.3048              1202.2928
 Red. masses --      1.3321                 1.1829                 1.1416
 Frc consts  --      1.1173                 0.9941                 0.9723
 IR Inten    --     96.9541                39.0851                 4.9497

                     58                     59                     60
                      A                      A                      A
 Frequencies --   1208.3903              1226.2437              1261.6130
 Red. masses --      1.1574                 1.7293                 1.9724
 Frc consts  --      0.9957                 1.5320                 1.8497
 IR Inten    --     28.5723               105.5787                91.8262

                     61                     62                     63
                      A                      A                      A
 Frequencies --   1313.3693              1343.8011              1348.1701
 Red. masses --      2.5007                 1.9636                 1.9430
 Frc consts  --      2.5414                 2.0892                 2.0807
 IR Inten    --    218.2690               101.3866                32.3021

                     64                     65                     66
                      A                      A                      A
 Frequencies --   1357.6370              1366.4309              1377.1538
 Red. masses --      2.1774                 3.1365                 4.7726
 Frc consts  --      2.3646                 3.4504                 5.3330
 IR Inten    --      5.2140                 2.5387                 6.5012

                     67                     68                     69
                      A                      A                      A
 Frequencies --   1430.1336              1449.4363              1486.7407
 Red. masses --      1.6238                 1.6708                 1.9380
 Frc consts  --      1.9567                 2.0681                 2.5239
 IR Inten    --    124.3211               134.3778                 3.2048

                     70                     71                     72
                      A                      A                      A
 Frequencies --   1493.7540              1511.3560              1521.6794
 Red. masses --      2.2296                 1.0593                 1.0956
 Frc consts  --      2.9311                 1.4256                 1.4946
 IR Inten    --     10.4691                 8.8674                 9.4669

                     73                     74                     75
                      A                      A                      A
 Frequencies --   1538.0675              1546.2164              1561.2865
 Red. masses --      2.2056                 2.6774                 2.5590
 Frc consts  --      3.0742                 3.7715                 3.6753
 IR Inten    --      4.1535               191.7685                16.6068

                     76                     77                     78
                      A                      A                      A
 Frequencies --   1637.4130              1651.0821              1659.6734
 Red. masses --      5.5403                 6.3186                 5.5678
 Frc consts  --      8.7519                10.1486                 9.0361
 IR Inten    --     17.5580                99.6955                10.5775

                     79                     80                     81
                      A                      A                      A
 Frequencies --   1671.3102              1684.3868              1715.2758
 Red. masses --      4.1059                 5.1724                10.9020
 Frc consts  --      6.7572                 8.6461                18.8984
 IR Inten    --    720.0525                25.4854               198.7395

                     82                     83                     84
                      A                      A                      A
 Frequencies --   3067.6810              3127.7350              3155.2755
 Red. masses --      1.0382                 1.0979                 1.1038
 Frc consts  --      5.7566                 6.3283                 6.4749
 IR Inten    --     12.0160                11.6012                13.1232

                     85                     86                     87
                      A                      A                      A
 Frequencies --   3177.7311              3185.4839              3195.9166
 Red. masses --      1.0883                 1.0853                 1.0887
 Frc consts  --      6.4747                 6.4884                 6.5517
 IR Inten    --     11.5311                 0.4994                 9.4876

                     88                     89                     90
                      A                      A                      A
 Frequencies --   3201.1486              3204.1271              3206.0007
 Red. masses --      1.0926                 1.0888                 1.0925
 Frc consts  --      6.5965                 6.5861                 6.6159
 IR Inten    --     22.0599                 6.7895                25.1641

                     91                     92                     93
                      A                      A                      A
 Frequencies --   3213.1279              3215.2718              3221.5176
 Red. masses --      1.0912                 1.0948                 1.0941
 Frc consts  --      6.6376                 6.6683                 6.6900
 IR Inten    --      1.4971                13.7889                 7.0705

                     94                     95                     96
                      A                      A                      A
 Frequencies --   3242.7436              3594.3231              3753.8595
 Red. masses --      1.0918                 1.0754                 1.0660
 Frc consts  --      6.7640                 8.1853                 8.8501
 IR Inten    --      6.0172                30.9502                52.7815

 - Thermochemistry -
 -------------------
 Temperature   298.150 Kelvin.  Pressure   1.00000 Atm.
 Atom     1 has atomic number  6 and mass  12.00000

 Molecular mass:   253.11028 amu.
 Principal axes and moments of inertia in atomic units:
                           1         2         3
     Eigenvalues --  3341.976366900.623768924.64683
           X            0.99989   0.01345   0.00662
           Y           -0.01350   0.99988   0.00792
           Z           -0.00651  -0.00801   0.99995
 This molecule is an asymmetric top.
 Rotational symmetry number  1.
 Warning -- assumption of classical behavior for rotation
           may cause significant error
 Rotational temperatures (Kelvin)      0.02592     0.01255     0.00971
 Rotational constants (GHZ):           0.54002     0.26153     0.20222
 Zero-point vibrational energy     721892.4 (Joules/Mol)
                                  172.53643 (Kcal/Mol)
 Warning -- explicit consideration of  26 degrees of freedom as
           vibrations may cause significant error
 Vibrational temperatures:     25.85    30.16    48.88    75.61   149.22
          (Kelvin)            184.70   194.69   235.98   249.51   323.62
                              336.52   392.27   404.13   482.33   519.89
                              529.99   581.11   605.24   661.08   668.03
                              687.11   744.64   772.82   805.64   871.04
                              880.93   911.93   930.53   980.52  1005.40
                             1015.98  1034.34  1082.98  1101.76  1134.25
                             1164.91  1219.57  1226.80  1245.87  1251.57
                             1300.47  1364.51  1371.76  1411.74  1441.23
                             1457.27  1466.72  1471.98  1499.43  1520.60
                             1543.27  1593.51  1615.95  1623.13  1716.67
                             1718.34  1729.83  1738.60  1764.29  1815.18
                             1889.65  1933.43  1939.72  1953.34  1965.99
                             1981.42  2057.64  2085.42  2139.09  2149.18
                             2174.50  2189.36  2212.94  2224.66  2246.34
                             2355.87  2375.54  2387.90  2404.64  2423.46
                             2467.90  4413.71  4500.11  4539.74  4572.05
                             4583.20  4598.21  4605.74  4610.02  4612.72
                             4622.97  4626.06  4635.05  4665.58  5171.43
                             5400.97

 Zero-point correction=                           0.274954 (Hartree/Particle)
 Thermal correction to Energy=                    0.291843
 Thermal correction to Enthalpy=                  0.292787
 Thermal correction to Gibbs Free Energy=         0.228059
 Sum of electronic and zero-point Energies=           -823.713102
 Sum of electronic and thermal Energies=              -823.696214
 Sum of electronic and thermal Enthalpies=            -823.695270
 Sum of electronic and thermal Free Energies=         -823.759997

                     E (Thermal)             CV                S
                      KCal/Mol        Cal/Mol-Kelvin    Cal/Mol-Kelvin
 Total                  183.134             65.527            136.231
 Electronic               0.000              0.000              0.000
 Translational            0.889              2.981             42.486
 Rotational               0.889              2.981             33.686
 Vibrational            181.357             59.566             60.058
 Vibration     1          0.593              1.986              6.847
 Vibration     2          0.593              1.986              6.541
 Vibration     3          0.594              1.983              5.583
 Vibration     4          0.596              1.977              4.719
 Vibration     5          0.605              1.946              3.383
 Vibration     6          0.611              1.925              2.970
 Vibration     7          0.613              1.918              2.869
 Vibration     8          0.623              1.887              2.503
 Vibration     9          0.627              1.875              2.398
 Vibration    10          0.650              1.803              1.919
 Vibration    11          0.654              1.789              1.849
 Vibration    12          0.676              1.724              1.579
 Vibration    13          0.681              1.709              1.528
 Vibration    14          0.716              1.605              1.235
 Vibration    15          0.736              1.552              1.116
 Vibration    16          0.741              1.537              1.087
 Vibration    17          0.769              1.462              0.948
 Vibration    18          0.783              1.425              0.890
 Vibration    19          0.817              1.340              0.768
 Vibration    20          0.822              1.329              0.754
 Vibration    21          0.834              1.300              0.717
 Vibration    22          0.873              1.211              0.616
 Vibration    23          0.892              1.168              0.571
 Vibration    24          0.916              1.118              0.524
 Vibration    25          0.964              1.020              0.440
 Vibration    26          0.972              1.006              0.429

                           ! Non-Optimized Parameters !
 Normal termination of Gaussian 16 at Thu Dec 17 20:28:02 2020.

 ----------------------------------------------------------------------
 # B3LYP/6-311++G(d,p) empiricaldispersion=gd3bj scf=xqc pop=npa geom=c
 heck
 ----------------------------------------------------------------------

 --------------------------------------
 CID_16044790_JID_9737_Energie_neutraal
 --------------------------------------
 Structure from the checkpoint file:  "JID_9737.chk"
 Charge =  0 Multiplicity = 1

 SCF Done:  E(RB3LYP) =  -824.220129697     A.U. after   17 cycles
 Normal termination of Gaussian 16 at Thu Dec 17 20:35:55 2020.

 ----------------------------------------------------------------------
 # B3LYP/6-311++G(d,p) empiricaldispersion=gd3bj scf=xqc pop=npa geom=c
 heck
 ----------------------------------------------------------------------

 ------------------------------------
 CID_16044790_JID_9737_Energie_kation
 ------------------------------------
 Structure from the checkpoint file:  "JID_9737.chk"
 Charge =  1 Multiplicity = 2

 SCF Done:  E(UB3LYP) =  -823.945892129     A.U. after   25 cycles
 Normal termination of Gaussian 16 at Thu Dec 17 20:52:14 2020.
 Gaussian 16:  ES64L-G16RevA.03 25-Dec-2016

 ----------------------------------------------------------------------
 # B3LYP/6-311++G(d,p) empiricaldispersion=gd3bj scf=xqc pop=npa geom=c
 heck
 ----------------------------------------------------------------------

 -----------------------------------
 CID_16044790_JID_9737_Energie_anion
 -----------------------------------
 Structure from the checkpoint file:  "JID_9737.chk"
 Charge = -1 Multiplicity = 2

                         Standard orientation:
 ---------------------------------------------------------------------
 Center     Atomic      Atomic             Coordinates (Angstroms)
 Number     Number       Type             X           Y           Z
 ---------------------------------------------------------------------
      1          6           0        0.410488    3.348354    0.049347
      2          6           0       -0.423746    2.106504   -0.169180
      3          6           0       -1.785048    2.183701   -0.109965
      4          6           0       -2.783963    1.122620   -0.279050
      5          8           0       -3.915647    1.393964   -0.681689
      6          6           0       -2.464561   -0.307405    0.072198
      7          6           0       -3.084023   -1.327467   -0.661873
      8          6           0       -2.845074   -2.664383   -0.351108
      9          6           0       -2.005295   -2.994510    0.714979
     10          6           0       -1.405597   -1.983590    1.469641
     11          6           0       -1.630829   -0.647153    1.147966
     12          7           0        0.240454    0.956741   -0.545949
     13          6           0        1.523359    0.526783   -0.167139
     14          6           0        2.156711   -0.414490   -0.987444
     15          6           0        3.414066   -0.907471   -0.643316
     16          6           0        4.061639   -0.454518    0.512156
     17          6           0        3.420378    0.478385    1.324254
     18          6           0        2.154021    0.964031    1.008004
     19          8           0        3.972030   -1.826424   -1.486172
     20          1           0       -0.150114    4.223157   -0.289748
     21          1           0        1.354458    3.297879   -0.499066
     22          1           0        0.644224    3.505514    1.107582
     23          1           0       -2.222732    3.175057   -0.049061
     24          1           0       -3.752996   -1.049161   -1.469714
     25          1           0       -3.317792   -3.449321   -0.934728
     26          1           0       -1.821750   -4.036862    0.960308
     27          1           0       -0.762728   -2.236584    2.307819
     28          1           0       -1.166068    0.140965    1.731756
     29          1           0       -0.346351    0.222347   -0.919329
     30          1           0        1.684031   -0.759605   -1.901265
     31          1           0        5.046056   -0.835067    0.774383
     32          1           0        3.908532    0.817616    2.233369
     33          1           0        1.648709    1.644741    1.680646
     34          1           0        4.845124   -2.074531   -1.145263
 ---------------------------------------------------------------------

 SCF Done:  E(UB3LYP) =  -824.237846918     A.U. after   27 cycles

 The electronic state is 2-A.
 Alpha  occ. eigenvalues --  -19.06401 -18.91687 -14.21307 -10.13365 -10.10305
 Alpha  occ. eigenvalues --  -10.07523 -10.07455 -10.06998 -10.06383 -10.05852
 Alpha  occ. eigenvalues --  -10.05631 -10.05435 -10.04771 -10.04745 -10.04362
 Alpha  occ. eigenvalues --  -10.04011 -10.03748 -10.03609 -10.01172  -0.97355
 Alpha  occ. eigenvalues --   -0.85717  -0.83016  -0.74134  -0.72494  -0.66625
 Alpha  occ. eigenvalues --   -0.64062  -0.62490  -0.61989  -0.61759  -0.57443
 Alpha  occ. eigenvalues --   -0.52777  -0.50899  -0.49215  -0.47701  -0.46690
 Alpha  occ. eigenvalues --   -0.43755  -0.41864  -0.39985  -0.38988  -0.37620
 Alpha  occ. eigenvalues --   -0.36280  -0.34212  -0.33160  -0.32262  -0.31835
 Alpha  occ. eigenvalues --   -0.31530  -0.30516  -0.30118  -0.29532  -0.28829
 Alpha  occ. eigenvalues --   -0.28155  -0.26978  -0.26459  -0.25396  -0.25337
 Alpha  occ. eigenvalues --   -0.24792  -0.23852  -0.22457  -0.21650  -0.21274
 Alpha  occ. eigenvalues --   -0.19930  -0.14778  -0.13057  -0.12853  -0.12435
 Alpha  occ. eigenvalues --   -0.08654  -0.07544   0.03448
 Alpha virt. eigenvalues --    0.05992   0.07784   0.08603   0.08838   0.09218
 Alpha virt. eigenvalues --    0.09997   0.10274   0.10519   0.11046   0.11203
 Alpha virt. eigenvalues --    0.11601   0.12007   0.12434   0.12988   0.13648

  Beta  occ. eigenvalues --  -19.06405 -18.91120 -14.21353 -10.13384 -10.10211
  Beta  occ. eigenvalues --  -10.07517 -10.07099 -10.06749 -10.06279 -10.05839
  Beta  occ. eigenvalues --  -10.05560 -10.05464 -10.04809 -10.04783 -10.04189
  Beta  occ. eigenvalues --  -10.03915 -10.03647 -10.03576 -10.01234  -0.97360
  Beta  occ. eigenvalues --   -0.84739  -0.82825  -0.73998  -0.72311  -0.66305
  Beta  occ. eigenvalues --   -0.63941  -0.62198  -0.61845  -0.61593  -0.57258
  Beta  occ. eigenvalues --   -0.52620  -0.50826  -0.48731  -0.47598  -0.46509
  Beta  occ. eigenvalues --   -0.43592  -0.41576  -0.39909  -0.38789  -0.37533
  Beta  occ. eigenvalues --   -0.36142  -0.34017  -0.33062  -0.32092  -0.31696
  Beta  occ. eigenvalues --   -0.31407  -0.30310  -0.30058  -0.29486  -0.28636
  Beta  occ. eigenvalues --   -0.28003  -0.26803  -0.26111  -0.25141  -0.24909
  Beta  occ. eigenvalues --   -0.24646  -0.23423  -0.21820  -0.21248  -0.20843
  Beta  occ. eigenvalues --   -0.18865  -0.14028  -0.12627  -0.12488  -0.11243
  Beta  occ. eigenvalues --   -0.08200  -0.06801
  Beta virt. eigenvalues --    0.05960   0.07733   0.08348   0.08604   0.08948
  Beta virt. eigenvalues --    0.09700   0.10081   0.10499   0.10847   0.11139
  Beta virt. eigenvalues --    0.11269   0.11756   0.12110   0.12589   0.13450

 Mulliken charges and spin densities:
               1          2
     1  C   -0.625283  -0.021487
     2  C    0.558509   0.148777
     3  C   -0.275064  -0.021703
     4  C   -1.171344   0.099285
     5  O   -0.375634   0.198822
     6  C    0.792464   0.100871
     7  C    0.148832   0.032814
     8  C   -0.185386  -0.005731
     9  C   -0.460401   0.125857
    10  C   -0.207763  -0.058794
    11  C   -0.246660   0.158730
    12  N    0.087568  -0.025855
    13  C    0.304384   0.018460
    14  C   -0.368974   0.051322
    15  C   -0.429510  -0.015599
    16  C   -0.047674   0.087604
    17  C   -0.265135   0.001747
    18  C   -0.244344   0.041878
    19  O   -0.234887   0.000161
    20  H    0.117381   0.018328
    21  H    0.146887   0.004702
    22  H    0.147357   0.024727
    23  H    0.150918   0.025582
    24  H    0.178066  -0.005334
    25  H    0.126998   0.002919
    26  H    0.113460  -0.010497
    27  H    0.131454   0.006233
    28  H    0.148568  -0.004159
    29  H    0.242328   0.024370
    30  H    0.158296   0.002793
    31  H    0.080065  -0.005787
    32  H    0.151406   0.001021
    33  H    0.106759  -0.002220
    34  H    0.246359   0.000163
 Sum of Mulliken charges =  -1.00000   1.00000

 Dipole moment (field-independent basis, Debye):
    X=              8.9300    Y=             -2.0735    Z=              1.5391  Tot=              9.2959
 Quadrupole moment (field-independent basis, Debye-Ang):
   XX=           -165.8689   YY=           -132.9640   ZZ=           -122.5805
   XY=              5.9031   XZ=              0.6022   YZ=              4.2017

 Summary of Natural Population Analysis:

                                       Natural Population
                Natural  -----------------------------------------------
    Atom  No    Charge         Core      Valence    Rydberg      Total
 -----------------------------------------------------------------------
      C    1   -0.30437      0.99964     2.30021    0.00451     3.30437
      C    2    0.16478      0.99952     1.82574    0.00996     2.83522
      C    3   -0.19258      0.99948     2.18315    0.00995     3.19258
      C    4    0.27006      0.99958     1.70955    0.02080     2.72994
      O    5   -0.24924      0.99989     3.24268    0.00668     4.24924
      C    6   -0.05773      0.99948     2.04716    0.01109     3.05773
      C    7   -0.06766      0.99952     2.05907    0.00907     3.06766
      C    8   -0.12245      0.99957     2.11366    0.00922     3.12245
      C    9   -0.07635      0.99958     2.06724    0.00953     3.07635
      C   10   -0.11958      0.99957     2.11083    0.00918     3.11958
      C   11   -0.07629      0.99953     2.06855    0.00821     3.07629
      N   12   -0.30794      0.99963     2.79741    0.01089     3.80794
      C   13    0.10926      0.99949     1.88016    0.01109     2.89074
      C   14   -0.12596      0.99949     2.11825    0.00823     3.12596
      C   15    0.15669      0.99939     1.83183    0.01209     2.84331
      C   16   -0.14815      0.99953     2.13863    0.00999     3.14815
      C   17   -0.09031      0.99959     2.08144    0.00928     3.09031
      C   18   -0.13359      0.99953     2.12604    0.00802     3.13359
      O   19   -0.34289      0.99988     3.33678    0.00624     4.34289
      H   20    0.10430      0.00000     0.39483    0.00087     0.39570
      H   21    0.10203      0.00000     0.39705    0.00093     0.39797
      H   22    0.10056      0.00000     0.39846    0.00099     0.39944
      H   23    0.09841      0.00000     0.39961    0.00198     0.40159
      H   24    0.10441      0.00000     0.39401    0.00158     0.39559
      H   25    0.09180      0.00000     0.40714    0.00105     0.40820
      H   26    0.08955      0.00000     0.40943    0.00101     0.41045
      H   27    0.09399      0.00000     0.40497    0.00105     0.40601
      H   28    0.10175      0.00000     0.39683    0.00142     0.39825
      H   29    0.20635      0.00000     0.29189    0.00176     0.29365
      H   30    0.10465      0.00000     0.39398    0.00137     0.39535
      H   31    0.09057      0.00000     0.40823    0.00120     0.40943
      H   32    0.09424      0.00000     0.40478    0.00098     0.40576
      H   33    0.10327      0.00000     0.39553    0.00120     0.39673
      H   34    0.22844      0.00000     0.26918    0.00238     0.27156
 =======================================================================
   * Total *   -0.00000     18.99188    47.80433    0.20379    67.00000

 Normal termination of Gaussian 16 at Thu Dec 17 21:10:19 2020.
