 Gaussian 16, Revision A.03,

 -----------------------------------------------------------
 # opt freq B3LYP/6-31G(d) empiricaldispersion=gd3bj scf=xqc
 -----------------------------------------------------------

 -------------------------------
 CID_117655432_JID_3689_neutraal
 -------------------------------
 Symbolic Z-matrix:
 Charge =  0 Multiplicity = 1

 SCF Done:  E(RB3LYP) =  -590.485300870     A.U. after   15 cycles
 SCF Done:  E(RB3LYP) =  -590.487884925     A.U. after   13 cycles
 SCF Done:  E(RB3LYP) =  -590.487896478     A.U. after   12 cycles
 SCF Done:  E(RB3LYP) =  -590.485439434     A.U. after   14 cycles
 SCF Done:  E(RB3LYP) =  -590.487940086     A.U. after   13 cycles
 SCF Done:  E(RB3LYP) =  -590.488069110     A.U. after   13 cycles
 SCF Done:  E(RB3LYP) =  -590.488070433     A.U. after    9 cycles
 SCF Done:  E(RB3LYP) =  -590.488070680     A.U. after    8 cycles
 SCF Done:  E(RB3LYP) =  -590.488071071     A.U. after    9 cycles
 SCF Done:  E(RB3LYP) =  -590.488071896     A.U. after   10 cycles
 SCF Done:  E(RB3LYP) =  -590.488121473     A.U. after   14 cycles
 SCF Done:  E(RB3LYP) =  -590.488188192     A.U. after   14 cycles
 SCF Done:  E(RB3LYP) =  -590.488167556     A.U. after   13 cycles
 SCF Done:  E(RB3LYP) =  -590.488188757     A.U. after   13 cycles
 SCF Done:  E(RB3LYP) =  -590.488191876     A.U. after   10 cycles
 SCF Done:  E(RB3LYP) =  -590.488191883     A.U. after    8 cycles
 Optimization completed on the basis of negligible forces.
    -- Stationary point found.
 Normal termination of Gaussian 16 at Thu Dec 10 00:02:27 2020.

 --------------------------------------------------------------------
 #N Geom=AllCheck Guess=TCheck SCRF=Check GenChk RB3LYP/6-31G(d) Freq
 --------------------------------------------------------------------

 Structure from the checkpoint file:  "JID_3689.chk"
 -------------------------------
 CID_117655432_JID_3689_neutraal
 -------------------------------
 Charge =  0 Multiplicity = 1

 SCF Done:  E(RB3LYP) =  -590.488191883     A.U. after    1 cycles

  Exact polarizability: 191.193  -6.089 119.948  -0.272   1.227  45.795
 Approx polarizability: 315.917 -17.561 214.262   1.273  -0.062  73.783

                      1                      2                      3
                      A                      A                      A
 Frequencies --     44.2800                75.2591               120.8869
 Red. masses --      4.5268                 5.8917                 2.8363
 Frc consts  --      0.0052                 0.0197                 0.0244
 IR Inten    --      1.7505                 2.7459                10.8829

                      4                      5                      6
                      A                      A                      A
 Frequencies --    172.3974               187.9379               292.8234
 Red. masses --      7.0311                 2.9475                 4.1025
 Frc consts  --      0.1231                 0.0613                 0.2073
 IR Inten    --      2.7107                 8.0481                 0.3706

                      7                      8                      9
                      A                      A                      A
 Frequencies --    327.0352               346.3346               352.5500
 Red. masses --      7.0274                 6.3592                 4.6358
 Frc consts  --      0.4428                 0.4494                 0.3395
 IR Inten    --      3.1459                 2.2439                 4.3857

                     10                     11                     12
                      A                      A                      A
 Frequencies --    437.7078               451.5623               521.5199
 Red. masses --      5.5670                 3.6149                 7.5192
 Frc consts  --      0.6284                 0.4343                 1.2049
 IR Inten    --      4.8376                 1.9604                30.2095

                     13                     14                     15
                      A                      A                      A
 Frequencies --    549.1314               578.1909               616.5284
 Red. masses --      4.0256                 5.3475                 4.4066
 Frc consts  --      0.7152                 1.0533                 0.9869
 IR Inten    --      2.8232                14.4218                 8.6450

                     16                     17                     18
                      A                      A                      A
 Frequencies --    630.6472               697.8675               724.5413
 Red. masses --      3.6603                 6.8128                 2.9455
 Frc consts  --      0.8577                 1.9549                 0.9110
 IR Inten    --      2.5189                 6.5538                 2.7353

                     19                     20                     21
                      A                      A                      A
 Frequencies --    752.5021               788.3176               871.8330
 Red. masses --      5.4852                 1.4127                 3.3226
 Frc consts  --      1.8300                 0.5173                 1.4880
 IR Inten    --     16.3428                44.4042                17.6428

                     22                     23                     24
                      A                      A                      A
 Frequencies --    883.6802               938.4412               949.5910
 Red. masses --      1.5070                 6.1633                 2.6722
 Frc consts  --      0.6934                 3.1980                 1.4197
 IR Inten    --      4.9833                59.6667                 7.3385

                     25                     26                     27
                      A                      A                      A
 Frequencies --    967.2176               998.8540              1022.6568
 Red. masses --      1.3697                 1.2911                 1.8995
 Frc consts  --      0.7549                 0.7590                 1.1705
 IR Inten    --      2.4813                 0.0032                 1.2837

                     28                     29                     30
                      A                      A                      A
 Frequencies --   1035.7942              1065.2963              1142.0838
 Red. masses --      5.1988                 2.1579                 1.7092
 Frc consts  --      3.2862                 1.4429                 1.3135
 IR Inten    --     18.3035                 2.2004                 8.2862

                     31                     32                     33
                      A                      A                      A
 Frequencies --   1192.9040              1195.6703              1223.6860
 Red. masses --      1.1302                 1.2227                 1.9994
 Frc consts  --      0.9476                 1.0299                 1.7639
 IR Inten    --      1.8137                 0.6605                 4.5993

                     34                     35                     36
                      A                      A                      A
 Frequencies --   1265.1320              1283.7286              1296.0638
 Red. masses --      2.1251                 3.9991                 3.3483
 Frc consts  --      2.0040                 3.8830                 3.3138
 IR Inten    --      0.1566                29.9746                 9.6640

                     37                     38                     39
                      A                      A                      A
 Frequencies --   1345.1843              1378.7568              1432.4715
 Red. masses --      2.1426                 3.6788                 1.3039
 Frc consts  --      2.2843                 4.1203                 1.5764
 IR Inten    --      5.4233                 0.4614                 6.7787

                     40                     41                     42
                      A                      A                      A
 Frequencies --   1448.2481              1503.3566              1522.7803
 Red. masses --      1.0982                 2.4142                 2.7486
 Frc consts  --      1.3571                 3.2148                 3.7553
 IR Inten    --     13.6542                 3.7133                21.1073

                     43                     44                     45
                      A                      A                      A
 Frequencies --   1600.6308              1633.7266              1667.8432
 Red. masses --      7.3162                 6.7072                 6.5552
 Frc consts  --     11.0437                10.5476                10.7436
 IR Inten    --    213.9280                11.8659                 0.7881

                     46                     47                     48
                      A                      A                      A
 Frequencies --   1783.3012              1811.1929              3007.6879
 Red. masses --     12.3848                 9.7714                 1.0722
 Frc consts  --     23.2053                18.8858                 5.7146
 IR Inten    --    216.6376               145.0559                 1.1840

                     49                     50                     51
                      A                      A                      A
 Frequencies --   3008.9054              3098.2055              3184.2639
 Red. masses --      1.0857                 1.0891                 1.0881
 Frc consts  --      5.7915                 6.1593                 6.5006
 IR Inten    --     80.7860                 2.2003                 5.8312

                     52                     53                     54
                      A                      A                      A
 Frequencies --   3201.2959              3214.3811              3228.7002
 Red. masses --      1.0894                 1.0936                 1.0954
 Frc consts  --      6.5781                 6.6573                 6.7277
 IR Inten    --      8.6320                18.2972                 8.2496

 - Thermochemistry -
 -------------------
 Temperature   298.150 Kelvin.  Pressure   1.00000 Atm.
 Atom     1 has atomic number  6 and mass  12.00000

 Molecular mass:   173.04768 amu.
 Principal axes and moments of inertia in atomic units:
                           1         2         3
     Eigenvalues --  1115.000583081.649104166.82305
           X            0.99998  -0.00565  -0.00102
           Y            0.00565   0.99995   0.00786
           Z            0.00098  -0.00786   0.99997
 This molecule is an asymmetric top.
 Rotational symmetry number  1.
 Warning -- assumption of classical behavior for rotation
           may cause significant error
 Rotational temperatures (Kelvin)      0.07768     0.02811     0.02079
 Rotational constants (GHZ):           1.61860     0.58564     0.43312
 Zero-point vibrational energy     389214.5 (Joules/Mol)
                                   93.02450 (Kcal/Mol)
 Warning -- explicit consideration of  15 degrees of freedom as
           vibrations may cause significant error
 Vibrational temperatures:     63.71   108.28   173.93   248.04   270.40
          (Kelvin)            421.31   470.53   498.30   507.24   629.76
                              649.70   750.35   790.08   831.89   887.05
                              907.36  1004.08  1042.45  1082.68  1134.21
                             1254.37  1271.42  1350.21  1366.25  1391.61
                             1437.13  1471.38  1490.28  1532.72  1643.20
                             1716.32  1720.30  1760.61  1820.24  1847.00
                             1864.75  1935.42  1983.72  2061.01  2083.71
                             2162.99  2190.94  2302.95  2350.57  2399.65
                             2565.77  2605.90  4327.39  4329.14  4457.63
                             4581.45  4605.95  4624.78  4645.38

 Zero-point correction=                           0.148244 (Hartree/Particle)
 Thermal correction to Energy=                    0.158462
 Thermal correction to Enthalpy=                  0.159406
 Thermal correction to Gibbs Free Energy=         0.111524
 Sum of electronic and zero-point Energies=           -590.339948
 Sum of electronic and thermal Energies=              -590.329730
 Sum of electronic and thermal Enthalpies=            -590.328786
 Sum of electronic and thermal Free Energies=         -590.376668

                     E (Thermal)             CV                S
                      KCal/Mol        Cal/Mol-Kelvin    Cal/Mol-Kelvin
 Total                   99.436             39.014            100.777
 Electronic               0.000              0.000              0.000
 Translational            0.889              2.981             41.353
 Rotational               0.889              2.981             31.038
 Vibrational             97.659             33.053             28.387
 Vibration     1          0.595              1.980              5.058
 Vibration     2          0.599              1.966              4.011
 Vibration     3          0.609              1.932              3.086
 Vibration     4          0.626              1.876              2.409
 Vibration     5          0.633              1.856              2.248
 Vibration     6          0.688              1.687              1.458
 Vibration     7          0.711              1.621              1.275
 Vibration     8          0.724              1.583              1.183
 Vibration     9          0.729              1.570              1.155
 Vibration    10          0.798              1.388              0.834
 Vibration    11          0.810              1.357              0.791
 Vibration    12          0.876              1.202              0.606
 Vibration    13          0.904              1.142              0.546
 Vibration    14          0.935              1.078              0.489
 Vibration    15          0.976              0.997              0.422

 Optimization completed on the basis of negligible forces.
    -- Stationary point found.
 Normal termination of Gaussian 16 at Thu Dec 10 00:06:51 2020.

 ----------------------------------------------------------------------
 # B3LYP/6-311++G(d,p) empiricaldispersion=gd3bj scf=xqc pop=npa geom=c
 heck
 ----------------------------------------------------------------------

 ---------------------------------------
 CID_117655432_JID_3689_Energie_neutraal
 ---------------------------------------
 Structure from the checkpoint file:  "JID_3689.chk"
 Charge =  0 Multiplicity = 1

 SCF Done:  E(RB3LYP) =  -590.647210554     A.U. after   15 cycles
 Normal termination of Gaussian 16 at Thu Dec 10 00:08:17 2020.

 ----------------------------------------------------------------------
 # B3LYP/6-311++G(d,p) empiricaldispersion=gd3bj scf=xqc pop=npa geom=c
 heck
 ----------------------------------------------------------------------

 -------------------------------------
 CID_117655432_JID_3689_Energie_kation
 -------------------------------------
 Structure from the checkpoint file:  "JID_3689.chk"
 Charge =  1 Multiplicity = 2

 SCF Done:  E(UB3LYP) =  -590.325918134     A.U. after   29 cycles
 Normal termination of Gaussian 16 at Thu Dec 10 00:11:57 2020.
 Gaussian 16:  ES64L-G16RevA.03 25-Dec-2016

 ----------------------------------------------------------------------
 # B3LYP/6-311++G(d,p) empiricaldispersion=gd3bj scf=xqc pop=npa geom=c
 heck
 ----------------------------------------------------------------------

 ------------------------------------
 CID_117655432_JID_3689_Energie_anion
 ------------------------------------
 Structure from the checkpoint file:  "JID_3689.chk"
 Charge = -1 Multiplicity = 2

                         Standard orientation:
 ---------------------------------------------------------------------
 Center     Atomic      Atomic             Coordinates (Angstroms)
 Number     Number       Type             X           Y           Z
 ---------------------------------------------------------------------
      1          6           0        0.009869    1.791324    0.220921
      2          6           0        1.096891    0.759481    0.083158
      3          6           0        2.445250    1.105321    0.043395
      4          6           0        3.430178    0.119104   -0.050128
      5          6           0        3.076271   -1.232506   -0.100578
      6          6           0        1.734876   -1.592659   -0.061779
      7          6           0        0.739038   -0.605290    0.025018
      8          7           0       -0.581909   -1.051425    0.038864
      9          6           0       -1.565977   -0.213341    0.017031
     10          6           0       -1.389464    1.271173   -0.051183
     11          8           0       -2.326662    2.016267   -0.287339
     12          6           0       -2.970195   -0.751595    0.014892
     13          8           0       -3.230277   -1.933783    0.080584
     14          1           0       -0.008158    2.163793    1.258731
     15          1           0        0.186886    2.672660   -0.404939
     16          1           0        2.729573    2.153923    0.082956
     17          1           0        4.476570    0.408025   -0.083736
     18          1           0        3.844689   -1.995928   -0.171470
     19          1           0        1.417043   -2.629054   -0.103053
     20          1           0       -3.758159    0.020612   -0.040975
 ---------------------------------------------------------------------

 SCF Done:  E(UB3LYP) =  -590.714843313     A.U. after   22 cycles

 The electronic state is 2-A.
 Alpha  occ. eigenvalues --  -18.95690 -18.95182 -14.14471 -10.10587 -10.08770
 Alpha  occ. eigenvalues --  -10.06959 -10.05685 -10.05592 -10.05582 -10.05518
 Alpha  occ. eigenvalues --  -10.05402 -10.04536 -10.04214  -0.89618  -0.88412
 Alpha  occ. eigenvalues --   -0.79053  -0.72423  -0.66197  -0.62129  -0.59444
 Alpha  occ. eigenvalues --   -0.53513  -0.48090  -0.47595  -0.44032  -0.40443
 Alpha  occ. eigenvalues --   -0.36791  -0.34832  -0.33457  -0.32878  -0.31574
 Alpha  occ. eigenvalues --   -0.29637  -0.28983  -0.28589  -0.26696  -0.26029
 Alpha  occ. eigenvalues --   -0.25373  -0.23905  -0.22970  -0.22189  -0.19739
 Alpha  occ. eigenvalues --   -0.14700  -0.13358  -0.11234  -0.10905  -0.07592
 Alpha  occ. eigenvalues --   -0.00473
 Alpha virt. eigenvalues --    0.07825   0.09190   0.09410   0.10513   0.11196
 Alpha virt. eigenvalues --    0.11976   0.12378   0.12607   0.13072   0.13804
 Alpha virt. eigenvalues --    0.15500   0.16157   0.16986   0.18035   0.18510

  Beta  occ. eigenvalues --  -18.95353 -18.94900 -14.13815 -10.10513 -10.08703
  Beta  occ. eigenvalues --  -10.07022 -10.05751 -10.05636 -10.05549 -10.05414
  Beta  occ. eigenvalues --  -10.05233 -10.04422 -10.04038  -0.89042  -0.87906
  Beta  occ. eigenvalues --   -0.78168  -0.72054  -0.65951  -0.61854  -0.59213
  Beta  occ. eigenvalues --   -0.52738  -0.47933  -0.47310  -0.43595  -0.40299
  Beta  occ. eigenvalues --   -0.36524  -0.34643  -0.33120  -0.32570  -0.31407
  Beta  occ. eigenvalues --   -0.29447  -0.28789  -0.28283  -0.26266  -0.24923
  Beta  occ. eigenvalues --   -0.24417  -0.23663  -0.22677  -0.20986  -0.17854
  Beta  occ. eigenvalues --   -0.14174  -0.12922  -0.10555  -0.09554  -0.07148
  Beta virt. eigenvalues --    0.05982   0.07815   0.09296   0.09821   0.10541
  Beta virt. eigenvalues --    0.11939   0.12399   0.12603   0.13283   0.13567
  Beta virt. eigenvalues --    0.13811   0.15504   0.16201   0.16993   0.18136

 Mulliken charges and spin densities:
               1          2
     1  C   -0.722180  -0.043106
     2  C    2.087607   0.149399
     3  C    0.127669  -0.071187
     4  C   -0.257582   0.136853
     5  C   -0.278050  -0.040593
     6  C   -0.400961   0.098141
     7  C   -1.911821  -0.050573
     8  N    0.060039   0.319827
     9  C    0.604241   0.153490
    10  C   -0.439929   0.044975
    11  O   -0.365545   0.117407
    12  C   -0.148672   0.064860
    13  O   -0.311837   0.100348
    14  H    0.170593   0.026535
    15  H    0.146609   0.010795
    16  H    0.117440   0.003981
    17  H    0.113296  -0.010412
    18  H    0.122952   0.002561
    19  H    0.162897  -0.006324
    20  H    0.123234  -0.006977
 Sum of Mulliken charges =  -1.00000   1.00000

 Dipole moment (field-independent basis, Debye):
    X=              6.6401    Y=              2.5577    Z=              0.4619  Tot=              7.1307
 Quadrupole moment (field-independent basis, Debye-Ang):
   XX=           -112.0667   YY=            -97.1091   ZZ=            -80.4773
   XY=             -4.0431   XZ=             -1.1247   YZ=              2.3559

 Summary of Natural Population Analysis:

                                       Natural Population
                Natural  -----------------------------------------------
    Atom  No    Charge         Core      Valence    Rydberg      Total
 -----------------------------------------------------------------------
      C    1   -0.24505      0.99958     2.23591    0.00957     3.24505
      C    2    0.02192      0.99948     1.97084    0.00776     2.97808
      C    3   -0.12596      0.99953     2.11768    0.00874     3.12596
      C    4   -0.07171      0.99958     2.06278    0.00935     3.07171
      C    5   -0.13091      0.99957     2.12234    0.00900     3.13091
      C    6   -0.06293      0.99953     2.05375    0.00965     3.06293
      C    7    0.04924      0.99944     1.93906    0.01226     2.95076
      N    8   -0.09908      0.99964     2.58532    0.01412     3.59908
      C    9    0.05307      0.99953     1.93354    0.01386     2.94693
      C   10    0.27056      0.99963     1.70879    0.02102     2.72944
      O   11   -0.26717      0.99988     3.26012    0.00717     4.26717
      C   12    0.20591      0.99971     1.77302    0.02136     2.79409
      O   13   -0.25154      0.99988     3.24386    0.00780     4.25154
      H   14    0.11730      0.00000     0.38083    0.00187     0.38270
      H   15    0.10975      0.00000     0.38783    0.00242     0.39025
      H   16    0.09237      0.00000     0.40616    0.00147     0.40763
      H   17    0.08947      0.00000     0.40947    0.00106     0.41053
      H   18    0.09297      0.00000     0.40600    0.00103     0.40703
      H   19    0.10203      0.00000     0.39635    0.00162     0.39797
      H   20    0.04976      0.00000     0.44810    0.00214     0.45024
 =======================================================================
   * Total *    0.00000     12.99497    31.84175    0.16328    45.00000

 Normal termination of Gaussian 16 at Thu Dec 10 00:14:46 2020.
