 Gaussian 16, Revision A.03,

 -----------------------------------------------------------
 # opt freq B3LYP/6-31G(d) empiricaldispersion=gd3bj scf=xqc
 -----------------------------------------------------------

 ------------------------------
 CID_79873788_JID_8798_neutraal
 ------------------------------
 Symbolic Z-matrix:
 Charge =  0 Multiplicity = 1

 SCF Done:  E(RB3LYP) =  -913.320821193     A.U. after   15 cycles
 SCF Done:  E(RB3LYP) =  -913.326933118     A.U. after   13 cycles
 SCF Done:  E(RB3LYP) =  -913.327497941     A.U. after   12 cycles
 SCF Done:  E(RB3LYP) =  -913.327288827     A.U. after   13 cycles
 SCF Done:  E(RB3LYP) =  -913.328031643     A.U. after   11 cycles
 SCF Done:  E(RB3LYP) =  -913.328088589     A.U. after   11 cycles
 SCF Done:  E(RB3LYP) =  -913.328143250     A.U. after   11 cycles
 SCF Done:  E(RB3LYP) =  -913.328160797     A.U. after   10 cycles
 SCF Done:  E(RB3LYP) =  -913.328171481     A.U. after   11 cycles
 SCF Done:  E(RB3LYP) =  -913.328173493     A.U. after    8 cycles
 SCF Done:  E(RB3LYP) =  -913.328173906     A.U. after    8 cycles
 Optimization completed.
    -- Stationary point found.
 Normal termination of Gaussian 16 at Fri Dec 11 22:12:00 2020.

 --------------------------------------------------------------------
 #N Geom=AllCheck Guess=TCheck SCRF=Check GenChk RB3LYP/6-31G(d) Freq
 --------------------------------------------------------------------

 Structure from the checkpoint file:  "JID_8798.chk"
 ------------------------------
 CID_79873788_JID_8798_neutraal
 ------------------------------
 Charge =  0 Multiplicity = 1

 SCF Done:  E(RB3LYP) =  -913.328173906     A.U. after    1 cycles

  Exact polarizability: 183.310 -11.195 135.546  19.503   4.321 103.204
 Approx polarizability: 267.628 -20.141 211.327  52.046   5.694 159.243

                      1                      2                      3
                      A                      A                      A
 Frequencies --     29.2728                36.0289                41.3490
 Red. masses --      4.8685                 8.5160                 5.1254
 Frc consts  --      0.0025                 0.0065                 0.0052
 IR Inten    --      0.0262                 1.7434                 1.0685

                      4                      5                      6
                      A                      A                      A
 Frequencies --     47.6721                90.8805               127.7534
 Red. masses --      7.6840                 7.4554                 3.0661
 Frc consts  --      0.0103                 0.0363                 0.0295
 IR Inten    --      0.5716                 0.9907                 0.2727

                      7                      8                      9
                      A                      A                      A
 Frequencies --    140.4697               180.6131               194.9315
 Red. masses --      9.2055                 5.7663                 5.4302
 Frc consts  --      0.1070                 0.1108                 0.1216
 IR Inten    --      2.6356                 1.0353                 0.5907

                     10                     11                     12
                      A                      A                      A
 Frequencies --    231.9742               248.4261               309.1307
 Red. masses --      5.0191                 2.0042                 7.4486
 Frc consts  --      0.1591                 0.0729                 0.4194
 IR Inten    --      1.5964                 2.9497                 2.1989

                     13                     14                     15
                      A                      A                      A
 Frequencies --    321.5316               345.3067               378.1536
 Red. masses --      4.5000                 4.3800                 2.2299
 Frc consts  --      0.2741                 0.3077                 0.1879
 IR Inten    --      0.4772                 7.8245                 1.2269

                     16                     17                     18
                      A                      A                      A
 Frequencies --    394.3344               421.1537               429.6043
 Red. masses --     12.7356                 3.0371                 2.6351
 Frc consts  --      1.1668                 0.3174                 0.2865
 IR Inten    --      9.6866                12.9495                 1.6410

                     19                     20                     21
                      A                      A                      A
 Frequencies --    442.2122               463.4329               485.8651
 Red. masses --      4.5279                 3.1480                 3.3587
 Frc consts  --      0.5217                 0.3983                 0.4672
 IR Inten    --     17.2078                 7.4504                 6.0013

                     22                     23                     24
                      A                      A                      A
 Frequencies --    554.8117               579.6923               595.2680
 Red. masses --      5.4334                 1.1997                 4.7327
 Frc consts  --      0.9854                 0.2375                 0.9881
 IR Inten    --     19.2924                78.1080                66.3031

                     25                     26                     27
                      A                      A                      A
 Frequencies --    605.8830               681.7373               690.9831
 Red. masses --      2.3914                 4.7188                 1.3528
 Frc consts  --      0.5172                 1.2922                 0.3805
 IR Inten    --     14.3902                12.1158                71.5646

                     28                     29                     30
                      A                      A                      A
 Frequencies --    714.3159               728.2761               756.5953
 Red. masses --      4.5909                 4.5785                 7.7389
 Frc consts  --      1.3802                 1.4308                 2.6101
 IR Inten    --      9.0626                 0.3786                47.7390

                     31                     32                     33
                      A                      A                      A
 Frequencies --    788.2755               799.1498               805.1917
 Red. masses --      7.1372                 8.6728                 2.5326
 Frc consts  --      2.6130                 3.2634                 0.9674
 IR Inten    --      4.6658                52.2670                 3.0000

                     34                     35                     36
                      A                      A                      A
 Frequencies --    856.9976               874.6765               881.2736
 Red. masses --      3.6240                 1.4572                 2.6772
 Frc consts  --      1.5682                 0.6569                 1.2250
 IR Inten    --      4.7078                15.7296                 9.0518

                     37                     38                     39
                      A                      A                      A
 Frequencies --    905.5914               964.0356               971.6859
 Red. masses --      1.8267                 2.1878                 1.4207
 Frc consts  --      0.8826                 1.1980                 0.7903
 IR Inten    --      1.5233                26.0747                 6.2440

                     40                     41                     42
                      A                      A                      A
 Frequencies --    984.1924              1011.7862              1053.6980
 Red. masses --      2.5673                 1.3990                 5.2910
 Frc consts  --      1.4651                 0.8438                 3.4611
 IR Inten    --     10.2488                 4.7223               127.4906

                     43                     44                     45
                      A                      A                      A
 Frequencies --   1056.8819              1092.7192              1130.1407
 Red. masses --      1.8546                 3.1895                 3.7821
 Frc consts  --      1.2206                 2.2438                 2.8461
 IR Inten    --     12.6204                 7.2032                62.8468

                     46                     47                     48
                      A                      A                      A
 Frequencies --   1148.7347              1150.3252              1167.5248
 Red. masses --      2.9952                 3.3840                 3.0425
 Frc consts  --      2.3287                 2.6383                 2.4435
 IR Inten    --     12.3560                64.1268               138.6331

                     49                     50                     51
                      A                      A                      A
 Frequencies --   1195.9708              1220.6791              1248.2647
 Red. masses --      2.2067                 1.4271                 2.1244
 Frc consts  --      1.8597                 1.2529                 1.9503
 IR Inten    --      3.8254                17.3372                85.9416

                     52                     53                     54
                      A                      A                      A
 Frequencies --   1252.5253              1279.2530              1319.9095
 Red. masses --      1.4709                 1.3340                 1.2180
 Frc consts  --      1.3595                 1.2863                 1.2502
 IR Inten    --     43.1881                22.4176                 5.1025

                     55                     56                     57
                      A                      A                      A
 Frequencies --   1330.3710              1344.8041              1359.8403
 Red. masses --      1.2459                 1.2305                 3.0565
 Frc consts  --      1.2992                 1.3112                 3.3301
 IR Inten    --      9.0686                 8.7719                87.8914

                     58                     59                     60
                      A                      A                      A
 Frequencies --   1364.8384              1384.7370              1397.7131
 Red. masses --      1.3470                 1.5706                 1.6106
 Frc consts  --      1.4784                 1.7744                 1.8538
 IR Inten    --      9.2600                41.6574                20.3100

                     61                     62                     63
                      A                      A                      A
 Frequencies --   1403.2198              1407.7154              1424.1663
 Red. masses --      1.8190                 1.4475                 1.5254
 Frc consts  --      2.1102                 1.6900                 1.8229
 IR Inten    --     48.3574                28.9637                28.1044

                     64                     65                     66
                      A                      A                      A
 Frequencies --   1426.1604              1434.5962              1446.6216
 Red. masses --      1.5826                 1.8739                 1.3809
 Frc consts  --      1.8965                 2.2722                 1.7027
 IR Inten    --      4.8897                75.3577                 2.6717

                     67                     68                     69
                      A                      A                      A
 Frequencies --   1481.0310              1508.5339              1512.1475
 Red. masses --      4.1716                 1.0883                 1.0987
 Frc consts  --      5.3911                 1.4591                 1.4802
 IR Inten    --    287.8367                 4.3406                 9.8152

                     70                     71                     72
                      A                      A                      A
 Frequencies --   1518.3182              1522.2448              1535.4310
 Red. masses --      1.1042                 1.0851                 1.1014
 Frc consts  --      1.4998                 1.4815                 1.5298
 IR Inten    --      6.4178                 1.2283                 4.6816

                     73                     74                     75
                      A                      A                      A
 Frequencies --   1675.8729              1802.1935              1820.8050
 Red. masses --      5.9086                10.3611                 9.4020
 Frc consts  --      9.7772                19.8272                18.3653
 IR Inten    --    242.9333                56.3360               653.2364

                     76                     77                     78
                      A                      A                      A
 Frequencies --   1864.6746              2965.1042              2981.7569
 Red. masses --     10.3872                 1.0710                 1.0721
 Frc consts  --     21.2792                 5.5479                 5.6161
 IR Inten    --    644.2231                35.7454                72.3195

                     79                     80                     81
                      A                      A                      A
 Frequencies --   3021.9232              3048.5852              3048.9487
 Red. masses --      1.0827                 1.0603                 1.0634
 Frc consts  --      5.8253                 5.8059                 5.8242
 IR Inten    --     19.2603                26.9737                16.7415

                     82                     83                     84
                      A                      A                      A
 Frequencies --   3076.9665              3087.7502              3094.9748
 Red. masses --      1.0682                 1.1002                 1.0924
 Frc consts  --      5.9585                 6.1801                 6.1649
 IR Inten    --     20.1004                33.3261                31.8141

                     85                     86                     87
                      A                      A                      A
 Frequencies --   3097.4009              3116.8369              3158.5397
 Red. masses --      1.1041                 1.0934                 1.0978
 Frc consts  --      6.2411                 6.2583                 6.4527
 IR Inten    --     56.3353                43.2704                 3.6095

                     88                     89                     90
                      A                      A                      A
 Frequencies --   3248.4540              3602.6845              3707.5273
 Red. masses --      1.0923                 1.0773                 1.0644
 Frc consts  --      6.7910                 8.2384                 8.6202
 IR Inten    --      0.3121                68.3237                82.0511

 - Thermochemistry -
 -------------------
 Temperature   298.150 Kelvin.  Pressure   1.00000 Atm.
 Atom     1 has atomic number  6 and mass  12.00000

 Molecular mass:   254.09027 amu.
 Principal axes and moments of inertia in atomic units:
                           1         2         3
     Eigenvalues --  2446.233378043.431569235.11913
           X            0.99997  -0.00168  -0.00747
           Y            0.00177   0.99993   0.01193
           Z            0.00745  -0.01195   0.99990
 This molecule is an asymmetric top.
 Rotational symmetry number  1.
 Warning -- assumption of classical behavior for rotation
           may cause significant error
 Rotational temperatures (Kelvin)      0.03541     0.01077     0.00938
 Rotational constants (GHZ):           0.73776     0.22437     0.19542
 Zero-point vibrational energy     679781.7 (Joules/Mol)
                                  162.47173 (Kcal/Mol)
 Warning -- explicit consideration of  25 degrees of freedom as
           vibrations may cause significant error
 Vibrational temperatures:     42.12    51.84    59.49    68.59   130.76
          (Kelvin)            183.81   202.10   259.86   280.46   333.76
                              357.43   444.77   462.61   496.82   544.08
                              567.36   605.95   618.10   636.24   666.78
                              699.05   798.25   834.05   856.46   871.73
                              980.87   994.17  1027.74  1047.83  1088.57
                             1134.15  1149.80  1158.49  1233.03  1258.46
                             1267.96  1302.94  1387.03  1398.04  1416.03
                             1455.73  1516.04  1520.62  1572.18  1626.02
                             1652.77  1655.06  1679.81  1720.74  1756.29
                             1795.97  1802.10  1840.56  1899.06  1914.11
                             1934.87  1956.51  1963.70  1992.33  2011.00
                             2018.92  2025.39  2049.06  2051.93  2064.06
                             2081.37  2130.87  2170.44  2175.64  2184.52
                             2190.17  2209.14  2411.21  2592.95  2619.73
                             2682.85  4266.12  4290.08  4347.87  4386.23
                             4386.76  4427.07  4442.58  4452.98  4456.47
                             4484.43  4544.43  4673.80  5183.46  5334.30

 Zero-point correction=                           0.258915 (Hartree/Particle)
 Thermal correction to Energy=                    0.274805
 Thermal correction to Enthalpy=                  0.275749
 Thermal correction to Gibbs Free Energy=         0.213566
 Sum of electronic and zero-point Energies=           -913.069259
 Sum of electronic and thermal Energies=              -913.053369
 Sum of electronic and thermal Enthalpies=            -913.052425
 Sum of electronic and thermal Free Energies=         -913.114608

                     E (Thermal)             CV                S
                      KCal/Mol        Cal/Mol-Kelvin    Cal/Mol-Kelvin
 Total                  172.443             60.372            130.876
 Electronic               0.000              0.000              0.000
 Translational            0.889              2.981             42.498
 Rotational               0.889              2.981             33.563
 Vibrational            170.665             54.411             54.816
 Vibration     1          0.593              1.984              5.878
 Vibration     2          0.594              1.982              5.466
 Vibration     3          0.594              1.981              5.193
 Vibration     4          0.595              1.978              4.912
 Vibration     5          0.602              1.956              3.641
 Vibration     6          0.611              1.925              2.980
 Vibration     7          0.615              1.913              2.797
 Vibration     8          0.630              1.866              2.322
 Vibration     9          0.636              1.847              2.180
 Vibration    10          0.653              1.792              1.864
 Vibration    11          0.662              1.765              1.742
 Vibration    12          0.698              1.656              1.367
 Vibration    13          0.707              1.632              1.302
 Vibration    14          0.724              1.585              1.188
 Vibration    15          0.748              1.517              1.047
 Vibration    16          0.761              1.482              0.984
 Vibration    17          0.784              1.424              0.888
 Vibration    18          0.791              1.406              0.860
 Vibration    19          0.802              1.378              0.820
 Vibration    20          0.821              1.331              0.756
 Vibration    21          0.842              1.281              0.694
 Vibration    22          0.910              1.129              0.534
 Vibration    23          0.936              1.075              0.486
 Vibration    24          0.953              1.042              0.458
 Vibration    25          0.965              1.019              0.440

                           ! Non-Optimized Parameters !
 Normal termination of Gaussian 16 at Fri Dec 11 22:25:19 2020.

 ----------------------------------------------------------------------
 # B3LYP/6-311++G(d,p) empiricaldispersion=gd3bj scf=xqc pop=npa geom=c
 heck
 ----------------------------------------------------------------------

 --------------------------------------
 CID_79873788_JID_8798_Energie_neutraal
 --------------------------------------
 Structure from the checkpoint file:  "JID_8798.chk"
 Charge =  0 Multiplicity = 1

 SCF Done:  E(RB3LYP) =  -913.600484600     A.U. after   15 cycles
 Normal termination of Gaussian 16 at Fri Dec 11 22:31:46 2020.

 ----------------------------------------------------------------------
 # B3LYP/6-311++G(d,p) empiricaldispersion=gd3bj scf=xqc pop=npa geom=c
 heck
 ----------------------------------------------------------------------

 ------------------------------------
 CID_79873788_JID_8798_Energie_kation
 ------------------------------------
 Structure from the checkpoint file:  "JID_8798.chk"
 Charge =  1 Multiplicity = 2

 SCF Done:  E(UB3LYP) =  -913.273546005     A.U. after   30 cycles
 Normal termination of Gaussian 16 at Fri Dec 11 22:50:25 2020.
 Gaussian 16:  ES64L-G16RevA.03 25-Dec-2016

 ----------------------------------------------------------------------
 # B3LYP/6-311++G(d,p) empiricaldispersion=gd3bj scf=xqc pop=npa geom=c
 heck
 ----------------------------------------------------------------------

 -----------------------------------
 CID_79873788_JID_8798_Energie_anion
 -----------------------------------
 Structure from the checkpoint file:  "JID_8798.chk"
 Charge = -1 Multiplicity = 2

                         Standard orientation:
 ---------------------------------------------------------------------
 Center     Atomic      Atomic             Coordinates (Angstroms)
 Number     Number       Type             X           Y           Z
 ---------------------------------------------------------------------
      1          6           0       -3.312218   -0.129263    1.763840
      2          6           0       -2.232685    0.471854    0.854538
      3          6           0       -2.032539   -0.411707   -0.386883
      4          6           0       -3.391598   -0.680906   -1.049825
      5          8           0       -4.312197   -1.266192   -0.148423
      6          6           0       -4.581062   -0.415868    0.962260
      7          6           0       -1.072037    0.201363   -1.410296
      8          7           0        0.254529    0.488148   -0.843642
      9          6           0        1.141536   -0.518818   -0.625413
     10          6           0        2.366567   -0.358067   -0.046588
     11          6           0        2.774673    0.984155    0.386369
     12          8           0        3.812367    1.320169    0.918132
     13          7           0        1.781719    1.958685    0.117846
     14          6           0        0.540452    1.812519   -0.459396
     15          8           0       -0.242419    2.730345   -0.626061
     16          6           0        3.262266   -1.515740    0.137972
     17          8           0        4.363708   -1.502970    0.636501
     18          8           0        2.696805   -2.671394   -0.333382
     19          1           0       -2.951288   -1.069598    2.199622
     20          1           0       -3.540364    0.550485    2.593604
     21          1           0       -2.529129    1.479029    0.533094
     22          1           0       -1.290181    0.583439    1.402758
     23          1           0       -1.631754   -1.383720   -0.062890
     24          1           0       -3.797410    0.266885   -1.448072
     25          1           0       -3.292185   -1.383186   -1.884209
     26          1           0       -5.329357   -0.937956    1.564785
     27          1           0       -5.024699    0.530306    0.606427
     28          1           0       -0.930290   -0.471827   -2.262422
     29          1           0       -1.456617    1.152075   -1.781616
     30          1           0        0.814870   -1.498928   -0.950871
     31          1           0        2.018147    2.903074    0.401295
     32          1           0        3.360270   -3.364708   -0.164538
 ---------------------------------------------------------------------

 SCF Done:  E(UB3LYP) =  -913.623021918     A.U. after   30 cycles

 The electronic state is 2-A.
 Alpha  occ. eigenvalues --  -19.04407 -19.02359 -18.97056 -18.94670 -18.94639
 Alpha  occ. eigenvalues --  -14.23376 -14.21919 -10.17847 -10.13987 -10.13797
 Alpha  occ. eigenvalues --  -10.13476 -10.13121 -10.10305 -10.08644 -10.08242
 Alpha  occ. eigenvalues --  -10.07490 -10.04790 -10.02215  -0.95913  -0.95740
 Alpha  occ. eigenvalues --   -0.94339  -0.90118  -0.86312  -0.84109  -0.79067
 Alpha  occ. eigenvalues --   -0.72012  -0.69173  -0.65309  -0.60376  -0.56158
 Alpha  occ. eigenvalues --   -0.54486  -0.53589  -0.51956  -0.48374  -0.46797
 Alpha  occ. eigenvalues --   -0.41757  -0.41686  -0.41028  -0.39579  -0.37251
 Alpha  occ. eigenvalues --   -0.36452  -0.35863  -0.34682  -0.33821  -0.33210
 Alpha  occ. eigenvalues --   -0.32750  -0.31835  -0.30684  -0.30282  -0.29986
 Alpha  occ. eigenvalues --   -0.29412  -0.28607  -0.26824  -0.26520  -0.25815
 Alpha  occ. eigenvalues --   -0.25220  -0.24823  -0.23889  -0.22400  -0.20902
 Alpha  occ. eigenvalues --   -0.18085  -0.17500  -0.16623  -0.15258  -0.13777
 Alpha  occ. eigenvalues --   -0.11177  -0.10341   0.03886
 Alpha virt. eigenvalues --    0.06358   0.07797   0.08205   0.09063   0.09673
 Alpha virt. eigenvalues --    0.10496   0.10751   0.11035   0.11686   0.12631
 Alpha virt. eigenvalues --    0.12933   0.13244   0.14134   0.14234   0.14617

  Beta  occ. eigenvalues --  -19.04406 -19.02360 -18.96979 -18.94573 -18.94446
  Beta  occ. eigenvalues --  -14.23320 -14.21826 -10.17767 -10.13833 -10.13796
  Beta  occ. eigenvalues --  -10.13412 -10.13118 -10.10299 -10.08643 -10.08236
  Beta  occ. eigenvalues --  -10.07489 -10.03999 -10.02170  -0.95911  -0.95591
  Beta  occ. eigenvalues --   -0.94143  -0.89980  -0.86016  -0.83753  -0.78879
  Beta  occ. eigenvalues --   -0.71952  -0.69135  -0.64687  -0.60272  -0.56143
  Beta  occ. eigenvalues --   -0.53892  -0.53282  -0.51741  -0.48329  -0.46669
  Beta  occ. eigenvalues --   -0.41675  -0.41491  -0.40833  -0.39435  -0.37065
  Beta  occ. eigenvalues --   -0.36292  -0.35757  -0.34540  -0.33466  -0.33013
  Beta  occ. eigenvalues --   -0.32443  -0.31694  -0.30498  -0.30059  -0.29544
  Beta  occ. eigenvalues --   -0.29179  -0.28520  -0.26731  -0.26355  -0.25428
  Beta  occ. eigenvalues --   -0.24995  -0.24611  -0.23778  -0.22388  -0.19352
  Beta  occ. eigenvalues --   -0.17452  -0.17248  -0.16516  -0.14682  -0.13581
  Beta  occ. eigenvalues --   -0.11051  -0.08891
  Beta virt. eigenvalues --    0.06303   0.07677   0.08170   0.09031   0.09608
  Beta virt. eigenvalues --    0.10266   0.10664   0.10992   0.11506   0.11650
  Beta virt. eigenvalues --    0.12826   0.13196   0.13537   0.14045   0.14548

 Mulliken charges and spin densities:
               1          2
     1  C   -0.483944   0.006354
     2  C   -0.352769  -0.015707
     3  C    0.775279   0.122104
     4  C   -0.446387  -0.148536
     5  O   -0.113733   0.001293
     6  C   -0.271336  -0.022225
     7  C   -0.832011  -0.135881
     8  N    0.169812  -0.014399
     9  C   -0.846661   0.607799
    10  C    0.461900   0.051180
    11  C    0.042567   0.054371
    12  O   -0.356963   0.025495
    13  N   -0.407239   0.036977
    14  C    0.253584   0.033814
    15  O   -0.372326   0.028986
    16  C   -0.007667   0.103856
    17  O   -0.362277   0.076899
    18  O   -0.244707  -0.000169
    19  H    0.146232  -0.001196
    20  H    0.140851   0.000486
    21  H    0.203289  -0.001102
    22  H    0.201417   0.005286
    23  H    0.200141  -0.003115
    24  H    0.133447   0.009859
    25  H    0.117070   0.045663
    26  H    0.175871   0.004201
    27  H    0.085455   0.012427
    28  H    0.038591   0.143042
    29  H    0.198006   0.003777
    30  H    0.153251  -0.028964
    31  H    0.334568  -0.002486
    32  H    0.266690  -0.000086
 Sum of Mulliken charges =  -1.00000   1.00000

 Dipole moment (field-independent basis, Debye):
    X=            -10.4788    Y=             -1.0891    Z=             -0.3485  Tot=             10.5410
 Quadrupole moment (field-independent basis, Debye-Ang):
   XX=           -178.7687   YY=           -126.6771   ZZ=           -114.9766
   XY=             -3.4082   XZ=            -13.8884   YZ=              1.3109

 Summary of Natural Population Analysis:

                                       Natural Population
                Natural  -----------------------------------------------
    Atom  No    Charge         Core      Valence    Rydberg      Total
 -----------------------------------------------------------------------
      C    1   -0.20244      0.99963     2.19681    0.00600     3.20244
      C    2   -0.19421      0.99962     2.18680    0.00780     3.19421
      C    3   -0.13090      0.99959     2.11970    0.01161     3.13090
      C    4   -0.00574      0.99956     1.99448    0.01171     3.00574
      O    5   -0.30203      0.99989     3.29180    0.01034     4.30203
      C    6   -0.00842      0.99959     1.99808    0.01075     3.00842
      C    7   -0.08315      0.99959     2.07072    0.01284     3.08315
      N    8   -0.23275      0.99962     2.72336    0.00977     3.73275
      C    9    0.20954      0.99954     1.77825    0.01266     2.79046
      C   10   -0.16847      0.99942     2.15775    0.01130     3.16847
      C   11    0.34576      0.99964     1.63328    0.02132     2.65424
      O   12   -0.30992      0.99987     3.30355    0.00650     4.30992
      N   13   -0.31548      0.99965     2.80745    0.00839     3.81548
      C   14    0.42057      0.99969     1.55645    0.02329     2.57943
      O   15   -0.33665      0.99987     3.33155    0.00523     4.33665
      C   16    0.41059      0.99967     1.56468    0.02506     2.58941
      O   17   -0.29420      0.99987     3.28808    0.00625     4.29420
      O   18   -0.36560      0.99988     3.35873    0.00699     4.36560
      H   19    0.09736      0.00000     0.40145    0.00119     0.40264
      H   20    0.09744      0.00000     0.40141    0.00115     0.40256
      H   21    0.10195      0.00000     0.39693    0.00112     0.39805
      H   22    0.10978      0.00000     0.38930    0.00092     0.39022
      H   23    0.10112      0.00000     0.39738    0.00149     0.39888
      H   24    0.07483      0.00000     0.42347    0.00171     0.42517
      H   25    0.09112      0.00000     0.40744    0.00144     0.40888
      H   26    0.08753      0.00000     0.41143    0.00104     0.41247
      H   27    0.07408      0.00000     0.42457    0.00136     0.42592
      H   28    0.09841      0.00000     0.40029    0.00130     0.40159
      H   29    0.11112      0.00000     0.38759    0.00129     0.38888
      H   30    0.09244      0.00000     0.40628    0.00128     0.40756
      H   31    0.19699      0.00000     0.30044    0.00257     0.30301
      H   32    0.22932      0.00000     0.26580    0.00488     0.27068
 =======================================================================
   * Total *    0.00000     17.99419    48.77531    0.23050    67.00000

 Normal termination of Gaussian 16 at Fri Dec 11 23:09:10 2020.
