 Gaussian 16, Revision A.03,

 -----------------------------------------------------------
 # opt freq B3LYP/6-31G(d) empiricaldispersion=gd3bj scf=xqc
 -----------------------------------------------------------

 ------------------------------
 CID_67805282_JID_4152_neutraal
 ------------------------------
 Symbolic Z-matrix:
 Charge =  0 Multiplicity = 1

 SCF Done:  E(RB3LYP) =  -648.261748492     A.U. after   15 cycles
 SCF Done:  E(RB3LYP) =  -648.267913623     A.U. after   13 cycles
 SCF Done:  E(RB3LYP) =  -648.267054460     A.U. after   12 cycles
 SCF Done:  E(RB3LYP) =  -648.269076053     A.U. after   12 cycles
 SCF Done:  E(RB3LYP) =  -648.269310335     A.U. after   12 cycles
 SCF Done:  E(RB3LYP) =  -648.269381299     A.U. after   12 cycles
 SCF Done:  E(RB3LYP) =  -648.269400390     A.U. after   11 cycles
 SCF Done:  E(RB3LYP) =  -648.269404464     A.U. after    9 cycles
 SCF Done:  E(RB3LYP) =  -648.269405757     A.U. after    9 cycles
 SCF Done:  E(RB3LYP) =  -648.269406138     A.U. after    8 cycles
 SCF Done:  E(RB3LYP) =  -648.269406618     A.U. after    8 cycles
 SCF Done:  E(RB3LYP) =  -648.269406675     A.U. after    7 cycles
 Optimization completed.
    -- Stationary point found.
 Normal termination of Gaussian 16 at Thu Dec 10 09:17:24 2020.

 --------------------------------------------------------------------
 #N Geom=AllCheck Guess=TCheck SCRF=Check GenChk RB3LYP/6-31G(d) Freq
 --------------------------------------------------------------------

 Structure from the checkpoint file:  "JID_4152.chk"
 ------------------------------
 CID_67805282_JID_4152_neutraal
 ------------------------------
 Charge =  0 Multiplicity = 1

 SCF Done:  E(RB3LYP) =  -648.269406675     A.U. after    1 cycles

  Exact polarizability: 137.510  -3.784 140.439 -17.267  -3.642  80.185
 Approx polarizability: 212.485  -4.708 204.785 -43.083  -5.956 127.461

                      1                      2                      3
                      A                      A                      A
 Frequencies --     41.0150                49.6783                59.2341
 Red. masses --      7.3289                 3.9652                 4.7620
 Frc consts  --      0.0073                 0.0058                 0.0098
 IR Inten    --      0.3218                 0.0363                 0.1605

                      4                      5                      6
                      A                      A                      A
 Frequencies --     67.1535                88.8924                96.8212
 Red. masses --      5.6344                 4.1875                 2.3525
 Frc consts  --      0.0150                 0.0195                 0.0130
 IR Inten    --      1.8102                 1.1148                 0.2853

                      7                      8                      9
                      A                      A                      A
 Frequencies --    174.1519               236.9291               270.8140
 Red. masses --      4.7795                 3.3847                 3.0230
 Frc consts  --      0.0854                 0.1119                 0.1306
 IR Inten    --      2.1215                 0.3634                 0.7577

                     10                     11                     12
                      A                      A                      A
 Frequencies --    341.8508               351.2613               398.5998
 Red. masses --      4.1455                 4.1758                 3.0683
 Frc consts  --      0.2854                 0.3036                 0.2872
 IR Inten    --      0.4955                10.7861                 1.4630

                     13                     14                     15
                      A                      A                      A
 Frequencies --    405.8204               425.6367               497.2805
 Red. masses --      3.0987                 3.7473                 1.7257
 Frc consts  --      0.3007                 0.4000                 0.2514
 IR Inten    --      6.0606                 2.5060                15.9530

                     16                     17                     18
                      A                      A                      A
 Frequencies --    539.9076               553.3461               576.5368
 Red. masses --      2.7390                 1.9094                 3.4299
 Frc consts  --      0.4704                 0.3445                 0.6717
 IR Inten    --      4.3602                10.3024                29.1713

                     19                     20                     21
                      A                      A                      A
 Frequencies --    621.9018               645.1311               682.8427
 Red. masses --      2.6674                 4.9104                 2.3575
 Frc consts  --      0.6078                 1.2041                 0.6477
 IR Inten    --     43.1033                 5.6249                30.9934

                     22                     23                     24
                      A                      A                      A
 Frequencies --    696.7012               755.5291               786.9551
 Red. masses --      2.1425                 1.8922                 2.2029
 Frc consts  --      0.6127                 0.6364                 0.8038
 IR Inten    --     61.9752                 4.0601                48.6345

                     25                     26                     27
                      A                      A                      A
 Frequencies --    809.0830               849.3174               869.8097
 Red. masses --      4.3103                 4.4522                 1.3942
 Frc consts  --      1.6624                 1.8922                 0.6215
 IR Inten    --      0.8511                 6.9958                 2.9501

                     28                     29                     30
                      A                      A                      A
 Frequencies --    917.8166               945.8879               966.7222
 Red. masses --      1.6854                 1.3505                 1.9620
 Frc consts  --      0.8365                 0.7119                 1.0803
 IR Inten    --      5.9162                39.1594                 7.0375

                     31                     32                     33
                      A                      A                      A
 Frequencies --    971.6272               983.5246               992.3455
 Red. masses --      1.3912                 2.6011                 1.2763
 Frc consts  --      0.7738                 1.4825                 0.7405
 IR Inten    --      0.5118                40.6848                 0.3161

                     34                     35                     36
                      A                      A                      A
 Frequencies --   1004.3285              1035.1519              1072.8022
 Red. masses --      6.5027                 1.1266                 3.0505
 Frc consts  --      3.8645                 0.7113                 2.0685
 IR Inten    --      9.1274                11.6464                 3.1915

                     37                     38                     39
                      A                      A                      A
 Frequencies --   1096.5113              1132.6475              1166.5658
 Red. masses --      2.0818                 1.6016                 1.9868
 Frc consts  --      1.4748                 1.2106                 1.5931
 IR Inten    --     12.1544                 4.4867                11.6820

                     40                     41                     42
                      A                      A                      A
 Frequencies --   1192.0143              1196.6600              1224.4230
 Red. masses --      2.2836                 1.1496                 2.2554
 Frc consts  --      1.9118                 0.9699                 1.9922
 IR Inten    --    186.0747                 6.7322                35.5745

                     43                     44                     45
                      A                      A                      A
 Frequencies --   1290.1763              1300.7749              1327.2258
 Red. masses --      1.4833                 1.5368                 1.2768
 Frc consts  --      1.4548                 1.5321                 1.3252
 IR Inten    --     46.4459                 7.8089                 5.5716

                     46                     47                     48
                      A                      A                      A
 Frequencies --   1341.3459              1359.1085              1374.1623
 Red. masses --      4.2885                 1.3987                 1.8321
 Frc consts  --      4.5460                 1.5223                 2.0384
 IR Inten    --     13.3291                23.0738                44.4786

                     49                     50                     51
                      A                      A                      A
 Frequencies --   1392.0008              1393.7452              1434.0594
 Red. masses --      1.4194                 1.7776                 1.8491
 Frc consts  --      1.6204                 2.0345                 2.2405
 IR Inten    --     48.9915                52.6796                21.9970

                     52                     53                     54
                      A                      A                      A
 Frequencies --   1472.3872              1475.9448              1489.8131
 Red. masses --      1.1132                 1.2365                 1.9290
 Frc consts  --      1.4219                 1.5870                 2.5226
 IR Inten    --      5.0175                30.5754                73.8735

                     55                     56                     57
                      A                      A                      A
 Frequencies --   1515.5149              1544.2543              1624.9755
 Red. masses --      1.3728                 2.1354                 5.8045
 Frc consts  --      1.8577                 3.0003                 9.0305
 IR Inten    --      5.1018               215.4034                31.8065

                     58                     59                     60
                      A                      A                      A
 Frequencies --   1661.5766              1731.6450              1857.0999
 Red. masses --      5.4598                 4.4977                10.0400
 Frc consts  --      8.8812                 7.9462                20.4011
 IR Inten    --    225.0822                 2.7756               302.9573

                     61                     62                     63
                      A                      A                      A
 Frequencies --   3040.8013              3078.9128              3088.6175
 Red. masses --      1.0614                 1.0843                 1.0852
 Frc consts  --      5.7823                 6.0563                 6.0994
 IR Inten    --     27.7461                 2.0220                32.8222

                     64                     65                     66
                      A                      A                      A
 Frequencies --   3153.8752              3161.0756              3165.5850
 Red. masses --      1.0596                 1.0959                 1.0926
 Frc consts  --      6.2096                 6.4522                 6.4507
 IR Inten    --     11.9639                 3.2589                 6.5840

                     67                     68                     69
                      A                      A                      A
 Frequencies --   3169.1535              3191.8252              3220.8283
 Red. masses --      1.0894                 1.0892                 1.0955
 Frc consts  --      6.4463                 6.5379                 6.6956
 IR Inten    --     28.3540                14.6127                20.9757

                     70                     71                     72
                      A                      A                      A
 Frequencies --   3239.0611              3249.7505              3690.6853
 Red. masses --      1.1147                 1.0921                 1.0641
 Frc consts  --      6.8904                 6.7956                 8.5395
 IR Inten    --     17.2088                 2.5897                51.3443

 - Thermochemistry -
 -------------------
 Temperature   298.150 Kelvin.  Pressure   1.00000 Atm.
 Atom     1 has atomic number  6 and mass  12.00000

 Molecular mass:   192.08988 amu.
 Principal axes and moments of inertia in atomic units:
                           1         2         3
     Eigenvalues --  2453.754542735.501224662.35184
           X            0.99055  -0.13700  -0.00675
           Y            0.13697   0.99057  -0.00384
           Z            0.00721   0.00288   0.99997
 This molecule is an asymmetric top.
 Rotational symmetry number  1.
 Warning -- assumption of classical behavior for rotation
           may cause significant error
 Rotational temperatures (Kelvin)      0.03530     0.03166     0.01858
 Rotational constants (GHZ):           0.73550     0.65975     0.38709
 Zero-point vibrational energy     555230.0 (Joules/Mol)
                                  132.70316 (Kcal/Mol)
 Warning -- explicit consideration of  18 degrees of freedom as
           vibrations may cause significant error
 Vibrational temperatures:     59.01    71.48    85.22    96.62   127.90
          (Kelvin)            139.30   250.57   340.89   389.64   491.85
                              505.39   573.50   583.88   612.40   715.48
                              776.81   796.14   829.51   894.78   928.20
                              982.46  1002.40  1087.04  1132.25  1164.09
                             1221.98  1251.46  1320.53  1360.92  1390.90
                             1397.95  1415.07  1427.76  1445.00  1489.35
                             1543.52  1577.64  1629.63  1678.43  1715.04
                             1721.73  1761.67  1856.28  1871.53  1909.58
                             1929.90  1955.45  1977.11  2002.78  2005.29
                             2063.29  2118.44  2123.56  2143.51  2180.49
                             2221.84  2337.98  2390.64  2491.45  2671.95
                             4375.03  4429.87  4443.83  4537.72  4548.08
                             4554.57  4559.71  4592.32  4634.05  4660.29
                             4675.67  5310.07

 Zero-point correction=                           0.211476 (Hartree/Particle)
 Thermal correction to Energy=                    0.224566
 Thermal correction to Enthalpy=                  0.225510
 Thermal correction to Gibbs Free Energy=         0.170141
 Sum of electronic and zero-point Energies=           -648.057931
 Sum of electronic and thermal Energies=              -648.044841
 Sum of electronic and thermal Enthalpies=            -648.043897
 Sum of electronic and thermal Free Energies=         -648.099266

                     E (Thermal)             CV                S
                      KCal/Mol        Cal/Mol-Kelvin    Cal/Mol-Kelvin
 Total                  140.917             48.615            116.533
 Electronic               0.000              0.000              0.000
 Translational            0.889              2.981             41.664
 Rotational               0.889              2.981             31.815
 Vibrational            139.140             42.654             43.054
 Vibration     1          0.594              1.981              5.209
 Vibration     2          0.595              1.978              4.830
 Vibration     3          0.597              1.974              4.483
 Vibration     4          0.598              1.970              4.235
 Vibration     5          0.602              1.957              3.684
 Vibration     6          0.603              1.951              3.517
 Vibration     7          0.627              1.874              2.390
 Vibration     8          0.656              1.784              1.826
 Vibration     9          0.675              1.727              1.591
 Vibration    10          0.721              1.592              1.203
 Vibration    11          0.728              1.573              1.161
 Vibration    12          0.765              1.473              0.968
 Vibration    13          0.771              1.458              0.942
 Vibration    14          0.787              1.414              0.873
 Vibration    15          0.853              1.256              0.665
 Vibration    16          0.895              1.162              0.565
 Vibration    17          0.909              1.132              0.537
 Vibration    18          0.933              1.082              0.492

 Optimization completed.
    -- Stationary point found.
 Normal termination of Gaussian 16 at Thu Dec 10 09:24:33 2020.

 ----------------------------------------------------------------------
 # B3LYP/6-311++G(d,p) empiricaldispersion=gd3bj scf=xqc pop=npa geom=c
 heck
 ----------------------------------------------------------------------

 --------------------------------------
 CID_67805282_JID_4152_Energie_neutraal
 --------------------------------------
 Structure from the checkpoint file:  "JID_4152.chk"
 Charge =  0 Multiplicity = 1

 SCF Done:  E(RB3LYP) =  -648.459646848     A.U. after   16 cycles
 Normal termination of Gaussian 16 at Thu Dec 10 09:27:12 2020.

 ----------------------------------------------------------------------
 # B3LYP/6-311++G(d,p) empiricaldispersion=gd3bj scf=xqc pop=npa geom=c
 heck
 ----------------------------------------------------------------------

 ------------------------------------
 CID_67805282_JID_4152_Energie_kation
 ------------------------------------
 Structure from the checkpoint file:  "JID_4152.chk"
 Charge =  1 Multiplicity = 2

 SCF Done:  E(UB3LYP) =  -648.177973427     A.U. after   22 cycles
 Normal termination of Gaussian 16 at Thu Dec 10 09:32:14 2020.
 Gaussian 16:  ES64L-G16RevA.03 25-Dec-2016

 ----------------------------------------------------------------------
 # B3LYP/6-311++G(d,p) empiricaldispersion=gd3bj scf=xqc pop=npa geom=c
 heck
 ----------------------------------------------------------------------

 -----------------------------------
 CID_67805282_JID_4152_Energie_anion
 -----------------------------------
 Structure from the checkpoint file:  "JID_4152.chk"
 Charge = -1 Multiplicity = 2

                         Standard orientation:
 ---------------------------------------------------------------------
 Center     Atomic      Atomic             Coordinates (Angstroms)
 Number     Number       Type             X           Y           Z
 ---------------------------------------------------------------------
      1          6           0       -3.088428    2.536955    0.125538
      2          6           0       -1.916221    2.300963   -0.461906
      3          6           0       -0.682936    1.822126    0.262139
      4          7           0        0.016792    0.744116   -0.433639
      5          6           0        1.371151    0.976974   -0.886224
      6          6           0        2.469011    0.687592    0.132999
      7          8           0        3.637122    0.551396   -0.146250
      8          8           0        2.003655    0.662209    1.405265
      9          6           0       -0.369446   -0.573809   -0.237068
     10          6           0       -1.643089   -0.913417    0.270686
     11          6           0       -1.942844   -2.256436    0.441945
     12          6           0       -0.998678   -3.231973    0.106656
     13          6           0        0.220559   -2.793551   -0.397816
     14          7           0        0.541017   -1.506065   -0.563553
     15          1           0       -3.234621    2.367536    1.190934
     16          1           0       -3.943855    2.911865   -0.428786
     17          1           0       -1.793459    2.466270   -1.531906
     18          1           0        0.025092    2.653244    0.356577
     19          1           0       -0.933008    1.516721    1.286528
     20          1           0        1.594958    0.364047   -1.759471
     21          1           0        1.466136    2.027241   -1.182091
     22          1           0        2.778796    0.476201    1.967351
     23          1           0       -2.377880   -0.150438    0.490078
     24          1           0       -2.916855   -2.542575    0.829959
     25          1           0       -1.203003   -4.290261    0.228162
     26          1           0        0.992334   -3.507591   -0.680791
 ---------------------------------------------------------------------

 SCF Done:  E(UB3LYP) =  -648.446194190     A.U. after   33 cycles
 SCF Done:  E(UB3LYP) =  -648.446328844     a.u. after    5 cycles

 The electronic state is 2-A.
 Alpha  occ. eigenvalues --  -19.07393 -19.01985 -14.24055 -14.20122 -10.21064
 Alpha  occ. eigenvalues --  -10.14461 -10.12097 -10.11468 -10.10687 -10.08612
 Alpha  occ. eigenvalues --  -10.08503 -10.07416 -10.07405 -10.07193  -1.01466
 Alpha  occ. eigenvalues --   -0.92643  -0.88243  -0.81974  -0.70766  -0.69502
 Alpha  occ. eigenvalues --   -0.67085  -0.63566  -0.58635  -0.53574  -0.52731
 Alpha  occ. eigenvalues --   -0.50054  -0.47232  -0.44594  -0.41686  -0.39654
 Alpha  occ. eigenvalues --   -0.39343  -0.38292  -0.36903  -0.36247  -0.35593
 Alpha  occ. eigenvalues --   -0.34240  -0.33576  -0.31431  -0.30888  -0.30191
 Alpha  occ. eigenvalues --   -0.29235  -0.28506  -0.27508  -0.26681  -0.23004
 Alpha  occ. eigenvalues --   -0.21530  -0.18907  -0.18585  -0.17346  -0.16456
 Alpha  occ. eigenvalues --   -0.11547   0.04356
 Alpha virt. eigenvalues --    0.06282   0.06580   0.06795   0.07557   0.08168
 Alpha virt. eigenvalues --    0.08308   0.09122   0.09262   0.09410   0.10154
 Alpha virt. eigenvalues --    0.10575   0.11239   0.12453   0.13070   0.13268

  Beta  occ. eigenvalues --  -19.07354 -19.01977 -14.24055 -14.20078 -10.21059
  Beta  occ. eigenvalues --  -10.14456 -10.12071 -10.11441 -10.10675 -10.08559
  Beta  occ. eigenvalues --  -10.08491 -10.07397 -10.07382 -10.07187  -1.01414
  Beta  occ. eigenvalues --   -0.92604  -0.88213  -0.81927  -0.70713  -0.69446
  Beta  occ. eigenvalues --   -0.67043  -0.63518  -0.58587  -0.53494  -0.52676
  Beta  occ. eigenvalues --   -0.49982  -0.47148  -0.44553  -0.41648  -0.39630
  Beta  occ. eigenvalues --   -0.39298  -0.38254  -0.36862  -0.36201  -0.35547
  Beta  occ. eigenvalues --   -0.34205  -0.33534  -0.31370  -0.30846  -0.30121
  Beta  occ. eigenvalues --   -0.29188  -0.28458  -0.27471  -0.26629  -0.22979
  Beta  occ. eigenvalues --   -0.21479  -0.18826  -0.18452  -0.17282  -0.16405
  Beta  occ. eigenvalues --   -0.11499
  Beta virt. eigenvalues --    0.06625   0.06839   0.07299   0.07591   0.08315
  Beta virt. eigenvalues --    0.08388   0.08747   0.09379   0.09529   0.09741
  Beta virt. eigenvalues --    0.10513   0.11110   0.11531   0.12756   0.13332

 Mulliken charges and spin densities:
               1          2
     1  C    1.041947  -1.614073
     2  C   -1.305056   1.743578
     3  C    1.033719  -1.721856
     4  N    0.434327  -0.007130
     5  C    0.424687  -0.719261
     6  C    0.200599  -0.191429
     7  O   -0.296141   0.027674
     8  O   -0.215333   0.044120
     9  C   -1.107075   0.041163
    10  C    0.523386   0.119617
    11  C   -0.071873  -0.352509
    12  C    1.134878  -1.145994
    13  C   -0.576885   0.377207
    14  N   -0.168743   0.113992
    15  H   -0.314041   0.436931
    16  H   -0.305754   0.445884
    17  H   -0.404943   0.582008
    18  H   -0.220044   0.424828
    19  H   -0.057104   0.234597
    20  H    0.183843   0.078264
    21  H   -0.253879   0.438709
    22  H   -0.157558   0.464278
    23  H    0.406123  -0.266777
    24  H   -0.857104   1.044750
    25  H   -0.114633   0.271531
    26  H    0.042656   0.129898
 Sum of Mulliken charges =  -1.00000   1.00000

 Dipole moment (field-independent basis, Debye):
    X=              1.5843    Y=             -1.1700    Z=             -1.4908  Tot=              2.4701
 Quadrupole moment (field-independent basis, Debye-Ang):
   XX=           -150.3684   YY=           -133.4574   ZZ=           -112.8470
   XY=             -2.6914   XZ=              0.3810   YZ=              3.5918

 Summary of Natural Population Analysis:

                                       Natural Population
                Natural  -----------------------------------------------
    Atom  No    Charge         Core      Valence    Rydberg      Total
 -----------------------------------------------------------------------
      C    1   -0.18669      0.99956     2.18024    0.00689     3.18669
      C    2   -0.08868      0.99955     2.07805    0.01107     3.08868
      C    3   -0.10299      0.99958     2.09032    0.01309     3.10299
      N    4   -0.25222      0.99964     2.73885    0.01373     3.75222
      C    5   -0.13225      0.99955     2.11996    0.01274     3.13225
      C    6    0.40773      0.99973     1.56700    0.02554     2.59227
      O    7   -0.30880      0.99987     3.30262    0.00631     4.30880
      O    8   -0.34266      0.99988     3.33550    0.00729     4.34266
      C    9    0.21448      0.99952     1.77149    0.01451     2.78552
      C   10   -0.14246      0.99952     2.13416    0.00878     3.14246
      C   11   -0.06733      0.99957     2.05728    0.01048     3.06733
      C   12   -0.14901      0.99956     2.13926    0.01020     3.14901
      C   13    0.03845      0.99958     1.94854    0.01342     2.96155
      N   14   -0.26222      0.99967     2.75164    0.01091     3.76222
      H   15    0.09173      0.00000     0.40659    0.00169     0.40827
      H   16    0.09644      0.00000     0.40219    0.00136     0.40356
      H   17    0.09564      0.00000     0.40290    0.00146     0.40436
      H   18    0.10699      0.00000     0.39124    0.00178     0.39301
      H   19    0.10216      0.00000     0.39579    0.00205     0.39784
      H   20    0.12163      0.00000     0.37693    0.00144     0.37837
      H   21    0.11182      0.00000     0.38682    0.00137     0.38818
      H   22    0.24294      0.00000     0.24905    0.00802     0.25706
      H   23    0.11183      0.00000     0.38599    0.00219     0.38817
      H   24    0.10274      0.00000     0.39563    0.00163     0.39726
      H   25    0.10268      0.00000     0.39638    0.00094     0.39732
      H   26    0.08807      0.00000     0.41095    0.00098     0.41193
 =======================================================================
   * Total *    0.00000     13.99477    36.81535    0.18988    51.00000

 Normal termination of Gaussian 16 at Thu Dec 10 10:08:01 2020.
