 Gaussian 16, Revision A.03,

 -----------------------------------------------------------
 # opt freq B3LYP/6-31G(d) empiricaldispersion=gd3bj scf=xqc
 -----------------------------------------------------------

 -------------------------------
 CID_116497114_JID_1992_neutraal
 -------------------------------
 Symbolic Z-matrix:
 Charge =  0 Multiplicity = 1

 SCF Done:  E(RB3LYP) =  -540.146730209     A.U. after   14 cycles
 SCF Done:  E(RB3LYP) =  -540.150253758     A.U. after   13 cycles
 SCF Done:  E(RB3LYP) =  -540.149335169     A.U. after   13 cycles
 SCF Done:  E(RB3LYP) =  -540.151112241     A.U. after   12 cycles
 SCF Done:  E(RB3LYP) =  -540.151683327     A.U. after   13 cycles
 SCF Done:  E(RB3LYP) =  -540.152337795     A.U. after   12 cycles
 SCF Done:  E(RB3LYP) =  -540.150888528     A.U. after   12 cycles
 SCF Done:  E(RB3LYP) =  -540.152878405     A.U. after   12 cycles
 SCF Done:  E(RB3LYP) =  -540.153199355     A.U. after   11 cycles
 SCF Done:  E(RB3LYP) =  -540.153735386     A.U. after   13 cycles
 SCF Done:  E(RB3LYP) =  -540.162924730     A.U. after   10 cycles
 SCF Done:  E(RB3LYP) =  -540.162930741     A.U. after   10 cycles
 SCF Done:  E(RB3LYP) =  -540.162932192     A.U. after    9 cycles
 SCF Done:  E(RB3LYP) =  -540.162933191     A.U. after    9 cycles
 SCF Done:  E(RB3LYP) =  -540.162933641     A.U. after    8 cycles
 SCF Done:  E(RB3LYP) =  -540.162933690     A.U. after    7 cycles
 Optimization completed.
    -- Stationary point found.

 1\1\GINC-NODE313\FOpt\RB3LYP\6-31G(d)\C8H16O3\VSC10255\08-Dec-2020\0\\
 # opt freq B3LYP/6-31G(d) empiricaldispersion=gd3bj scf=xqc\\CID_11649
 7114_JID_1992_neutraal\\0,1\C,1.3310029947,-0.5646177701,0.4360932048\
 C,0.3764433556,-0.4366129233,1.6240258586\C,0.8978976927,0.5128850983,
 2.7305047448\C,1.0566139039,1.9612923159,2.2921865058\O,-0.2276859804,
 2.4797176979,1.992101699\C,-0.1898969168,3.7114740262,1.3046028944\C,-
 1.0296725326,-0.0633219952,1.1527013088\O,-1.2921971262,0.1522965828,-
 0.0153670016\C,-2.1339536191,0.0271186625,2.2135869997\O,-1.9711515703

 Normal termination of Gaussian 16 at Tue Dec  8 21:57:25 2020.

 --------------------------------------------------------------------
 #N Geom=AllCheck Guess=TCheck SCRF=Check GenChk RB3LYP/6-31G(d) Freq
 --------------------------------------------------------------------

 Structure from the checkpoint file:  "JID_1992.chk"
 -------------------------------
 CID_116497114_JID_1992_neutraal
 -------------------------------
 Charge =  0 Multiplicity = 1

 SCF Done:  E(RB3LYP) =  -540.162933690     A.U. after    1 cycles

  Exact polarizability:  99.763  -0.052  88.992   0.609   3.146  89.568
 Approx polarizability: 122.923  -0.716 119.317   3.210   1.551 138.014

                      1                      2                      3
                      A                      A                      A
 Frequencies --     28.5302                48.2001                59.9789
 Red. masses --      2.9878                 3.2045                 3.5521
 Frc consts  --      0.0014                 0.0044                 0.0075
 IR Inten    --      3.3879                 0.3987                 2.6656

                      4                      5                      6
                      A                      A                      A
 Frequencies --     93.5956               120.8765               133.9477
 Red. masses --      3.3630                 2.6661                 3.0770
 Frc consts  --      0.0174                 0.0230                 0.0325
 IR Inten    --      4.0044                 1.7174                 3.4330

                      7                      8                      9
                      A                      A                      A
 Frequencies --    161.9289               198.5102               205.4745
 Red. masses --      1.6673                 1.4256                 1.6288
 Frc consts  --      0.0258                 0.0331                 0.0405
 IR Inten    --      0.9048                 0.2070                 0.2302

                     10                     11                     12
                      A                      A                      A
 Frequencies --    221.8871               255.2251               278.9658
 Red. masses --      1.3052                 3.2809                 1.9340
 Frc consts  --      0.0379                 0.1259                 0.0887
 IR Inten    --      1.4937                 8.6511                 4.2412

                     13                     14                     15
                      A                      A                      A
 Frequencies --    312.8273               350.4340               409.3098
 Red. masses --      3.1421                 2.3247                 2.2882
 Frc consts  --      0.1812                 0.1682                 0.2259
 IR Inten    --     10.3786                 1.1916                 3.7617

                     16                     17                     18
                      A                      A                      A
 Frequencies --    427.7023               500.5901               517.6692
 Red. masses --      2.1488                 4.1424                 3.7907
 Frc consts  --      0.2316                 0.6116                 0.5985
 IR Inten    --      2.3476                 0.0775                 7.5308

                     19                     20                     21
                      A                      A                      A
 Frequencies --    573.2251               656.4349               716.4575
 Red. masses --      3.0787                 3.1754                 2.6951
 Frc consts  --      0.5960                 0.8062                 0.8151
 IR Inten    --     10.1453                11.0713                 3.0154

                     22                     23                     24
                      A                      A                      A
 Frequencies --    851.4670               859.5500               954.7528
 Red. masses --      2.0493                 2.3605                 2.8110
 Frc consts  --      0.8754                 1.0275                 1.5097
 IR Inten    --      2.2347                 6.5849                14.9584

                     25                     26                     27
                      A                      A                      A
 Frequencies --    983.2916               998.6077              1014.3327
 Red. masses --      2.2844                 1.9864                 1.3841
 Frc consts  --      1.3013                 1.1671                 0.8390
 IR Inten    --      4.1010                19.9381                 3.4226

                     28                     29                     30
                      A                      A                      A
 Frequencies --   1031.4760              1075.7941              1126.9133
 Red. masses --      2.0281                 2.1029                 3.1082
 Frc consts  --      1.2713                 1.4339                 2.3256
 IR Inten    --     10.4114                29.0485                64.8165

                     31                     32                     33
                      A                      A                      A
 Frequencies --   1144.5555              1155.4135              1176.6189
 Red. masses --      2.0805                 2.3855                 3.0990
 Frc consts  --      1.6058                 1.8763                 2.5278
 IR Inten    --      5.0438               104.4377                39.0183

                     34                     35                     36
                      A                      A                      A
 Frequencies --   1189.9679              1193.5663              1208.5664
 Red. masses --      1.4347                 1.3036                 2.1779
 Frc consts  --      1.1970                 1.0942                 1.8742
 IR Inten    --     13.8197                 5.8519                63.7754

                     37                     38                     39
                      A                      A                      A
 Frequencies --   1221.7831              1233.3189              1267.7678
 Red. masses --      1.5164                 1.6819                 1.2890
 Frc consts  --      1.3337                 1.5073                 1.2206
 IR Inten    --     41.9148                24.5816                 5.4732

                     40                     41                     42
                      A                      A                      A
 Frequencies --   1278.6380              1314.8760              1329.1187
 Red. masses --      1.4606                 1.2316                 1.2982
 Frc consts  --      1.4069                 1.2546                 1.3512
 IR Inten    --      3.3042                20.2193                 3.3305

                     43                     44                     45
                      A                      A                      A
 Frequencies --   1372.2874              1389.2343              1403.7982
 Red. masses --      1.3259                 1.5199                 1.5321
 Frc consts  --      1.4711                 1.7282                 1.7789
 IR Inten    --      7.1714                 7.9672                10.5072

                     46                     47                     48
                      A                      A                      A
 Frequencies --   1440.4500              1443.4571              1492.5181
 Red. masses --      1.2975                 1.3249                 1.0900
 Frc consts  --      1.5862                 1.6264                 1.4306
 IR Inten    --     16.3616                 9.5833                 5.9579

                     49                     50                     51
                      A                      A                      A
 Frequencies --   1503.6026              1511.8588              1514.7303
 Red. masses --      1.1570                 1.1078                 1.0593
 Frc consts  --      1.5411                 1.4919                 1.4320
 IR Inten    --      1.7309                 4.6292                 8.5390

                     52                     53                     54
                      A                      A                      A
 Frequencies --   1515.5508              1517.6256              1521.1528
 Red. masses --      1.0745                 1.0574                 1.0504
 Frc consts  --      1.4541                 1.4349                 1.4320
 IR Inten    --      0.3558                 3.6885                 5.2319

                     55                     56                     57
                      A                      A                      A
 Frequencies --   1527.3823              1534.0973              1537.0520
 Red. masses --      1.0601                 1.0577                 1.0612
 Frc consts  --      1.4571                 1.4667                 1.4772
 IR Inten    --      1.5600                13.4043                 4.6792

                     58                     59                     60
                      A                      A                      A
 Frequencies --   1559.4773              1808.8414              2985.6453
 Red. masses --      1.0864                11.7166                 1.0537
 Frc consts  --      1.5567                22.5868                 5.5342
 IR Inten    --      3.9416               119.6217                35.5414

                     61                     62                     63
                      A                      A                      A
 Frequencies --   2998.0655              3000.1425              3019.7419
 Red. masses --      1.0373                 1.0428                 1.1012
 Frc consts  --      5.4934                 5.5300                 5.9161
 IR Inten    --     61.6329                82.6736                49.6671

                     64                     65                     66
                      A                      A                      A
 Frequencies --   3035.0016              3036.3865              3046.1210
 Red. masses --      1.0676                 1.0795                 1.1036
 Frc consts  --      5.7940                 5.8637                 6.0334
 IR Inten    --     52.7981                17.8492                40.6230

                     67                     68                     69
                      A                      A                      A
 Frequencies --   3046.2851              3058.8723              3063.4737
 Red. masses --      1.1046                 1.0563                 1.0492
 Frc consts  --      6.0397                 5.8230                 5.8014
 IR Inten    --     66.8855                20.6265                37.5675

                     70                     71                     72
                      A                      A                      A
 Frequencies --   3113.8735              3125.0451              3130.3943
 Red. masses --      1.0980                 1.0967                 1.1004
 Frc consts  --      6.2729                 6.3103                 6.3530
 IR Inten    --     19.2406                 5.2359                22.4610

                     73                     74                     75
                      A                      A                      A
 Frequencies --   3141.1018              3142.0616              3143.6005
 Red. masses --      1.0977                 1.1015                 1.0974
 Frc consts  --      6.3811                 6.4071                 6.3895
 IR Inten    --     31.8010                24.7755                24.8398

 - Thermochemistry -
 -------------------
 Temperature   298.150 Kelvin.  Pressure   1.00000 Atm.
 Atom     1 has atomic number  6 and mass  12.00000

 Molecular mass:   160.10994 amu.
 Principal axes and moments of inertia in atomic units:
                           1         2         3
     Eigenvalues --  1271.368592462.207202688.57264
           X            0.99998   0.00552   0.00125
           Y           -0.00560   0.99749   0.07060
           Z           -0.00086  -0.07060   0.99750
 This molecule is an asymmetric top.
 Rotational symmetry number  1.
 Warning -- assumption of classical behavior for rotation
           may cause significant error
 Rotational temperatures (Kelvin)      0.06813     0.03518     0.03222
 Rotational constants (GHZ):           1.41953     0.73298     0.67126
 Zero-point vibrational energy     625414.1 (Joules/Mol)
                                  149.47756 (Kcal/Mol)
 Warning -- explicit consideration of  19 degrees of freedom as
           vibrations may cause significant error
 Vibrational temperatures:     41.05    69.35    86.30   134.66   173.91
          (Kelvin)            192.72   232.98   285.61   295.63   319.25
                              367.21   401.37   450.09   504.20   588.91
                              615.37   720.24   744.81   824.74   944.46
                             1030.82  1225.07  1236.70  1373.68  1414.74
                             1436.77  1459.40  1484.06  1547.83  1621.38
                             1646.76  1662.38  1692.89  1712.10  1717.28
                             1738.86  1757.87  1774.47  1824.04  1839.67
                             1891.81  1912.31  1974.42  1998.80  2019.75
                             2072.49  2076.81  2147.40  2163.35  2175.23
                             2179.36  2180.54  2183.52  2188.60  2197.56
                             2207.22  2211.47  2243.74  2602.52  4295.68
                             4313.55  4316.54  4344.74  4366.69  4368.68
                             4382.69  4382.92  4401.03  4407.66  4480.17
                             4496.24  4503.94  4519.34  4520.73  4522.94

 Zero-point correction=                           0.238208 (Hartree/Particle)
 Thermal correction to Energy=                    0.251714
 Thermal correction to Enthalpy=                  0.252658
 Thermal correction to Gibbs Free Energy=         0.197197
 Sum of electronic and zero-point Energies=           -539.924726
 Sum of electronic and thermal Energies=              -539.911220
 Sum of electronic and thermal Enthalpies=            -539.910276
 Sum of electronic and thermal Free Energies=         -539.965737

                     E (Thermal)             CV                S
                      KCal/Mol        Cal/Mol-Kelvin    Cal/Mol-Kelvin
 Total                  157.953             47.082            116.729
 Electronic               0.000              0.000              0.000
 Translational            0.889              2.981             41.121
 Rotational               0.889              2.981             30.510
 Vibrational            156.175             41.120             45.098
 Vibration     1          0.593              1.984              5.929
 Vibration     2          0.595              1.978              4.890
 Vibration     3          0.597              1.973              4.458
 Vibration     4          0.603              1.954              3.583
 Vibration     5          0.609              1.932              3.086
 Vibration     6          0.613              1.919              2.889
 Vibration     7          0.622              1.889              2.527
 Vibration     8          0.637              1.842              2.147
 Vibration     9          0.640              1.832              2.084
 Vibration    10          0.648              1.808              1.944
 Vibration    11          0.666              1.754              1.694
 Vibration    12          0.679              1.712              1.540
 Vibration    13          0.701              1.649              1.347
 Vibration    14          0.727              1.574              1.164
 Vibration    15          0.774              1.450              0.929
 Vibration    16          0.789              1.410              0.866
 Vibration    17          0.856              1.249              0.657
 Vibration    18          0.873              1.211              0.615
 Vibration    19          0.929              1.089              0.498

 Optimization completed.
    -- Stationary point found.

 1\1\GINC-NODE313\Freq\RB3LYP\6-31G(d)\C8H16O3\VSC10255\08-Dec-2020\0\\
 #N Geom=AllCheck Guess=TCheck SCRF=Check GenChk RB3LYP/6-31G(d) Freq\\
 CID_116497114_JID_1992_neutraal\\0,1\C,1.3310029947,-0.5646177701,0.43
 60932048\C,0.3764433556,-0.4366129233,1.6240258586\C,0.8978976927,0.51
 28850983,2.7305047448\C,1.0566139039,1.9612923159,2.2921865058\O,-0.22
 76859804,2.4797176979,1.992101699\C,-0.1898969168,3.7114740262,1.30460
 28944\C,-1.0296725326,-0.0633219952,1.1527013088\O,-1.2921971262,0.152
 2965828,-0.0153670016\C,-2.1339536191,0.0271186625,2.2135869997\O,-1.9

 Normal termination of Gaussian 16 at Tue Dec  8 22:03:00 2020.

 ----------------------------------------------------------------------
 # B3LYP/6-311++G(d,p) empiricaldispersion=gd3bj scf=xqc pop=npa geom=c
 heck
 ----------------------------------------------------------------------

 ---------------------------------------
 CID_116497114_JID_1992_Energie_neutraal
 ---------------------------------------
 Structure from the checkpoint file:  "JID_1992.chk"
 Charge =  0 Multiplicity = 1

 SCF Done:  E(RB3LYP) =  -540.326258126     A.U. after   13 cycles
 Normal termination of Gaussian 16 at Tue Dec  8 22:04:53 2020.

 ----------------------------------------------------------------------
 # B3LYP/6-311++G(d,p) empiricaldispersion=gd3bj scf=xqc pop=npa geom=c
 heck
 ----------------------------------------------------------------------

 -------------------------------------
 CID_116497114_JID_1992_Energie_kation
 -------------------------------------
 Structure from the checkpoint file:  "JID_1992.chk"
 Charge =  1 Multiplicity = 2

 SCF Done:  E(UB3LYP) =  -540.010740034     A.U. after   26 cycles
 Normal termination of Gaussian 16 at Tue Dec  8 22:09:37 2020.
 Gaussian 16:  ES64L-G16RevA.03 25-Dec-2016

 ------------------------------------
 CID_116497114_JID_1992_Energie_anion
 ------------------------------------
 Structure from the checkpoint file:  "JID_1992.chk"
 Charge = -1 Multiplicity = 2

                         Standard orientation:
 ---------------------------------------------------------------------
 Center     Atomic      Atomic             Coordinates (Angstroms)
 Number     Number       Type             X           Y           Z
 ---------------------------------------------------------------------
      1          6           0       -0.344195    2.446504   -0.396558
      2          6           0        0.269932    1.198448    0.239017
      3          6           0       -0.560838    0.639414    1.420144
      4          6           0       -1.949484    0.150410    1.035780
      5          8           0       -1.806680   -0.966997    0.175984
      6          6           0       -3.004115   -1.331187   -0.475798
      7          6           0        0.560306    0.135961   -0.821859
      8          8           0        0.268623    0.284700   -1.993436
      9          6           0        1.254536   -1.153303   -0.364760
     10          8           0        2.148044   -0.981675    0.721201
     11          6           0        3.382846   -0.414175    0.327319
     12          1           0       -1.279054    2.211699   -0.912854
     13          1           0        0.330614    2.873202   -1.143771
     14          1           0       -0.545160    3.207063    0.366221
     15          1           0        1.245453    1.462092    0.671175
     16          1           0       -0.010444   -0.177007    1.898164
     17          1           0       -0.670049    1.433077    2.169929
     18          1           0       -2.518355   -0.133053    1.936893
     19          1           0       -2.517868    0.945645    0.528272
     20          1           0       -3.784807   -1.623772    0.244004
     21          1           0       -3.389286   -0.507557   -1.096072
     22          1           0       -2.774157   -2.183515   -1.119421
     23          1           0        0.469725   -1.833599   -0.021329
     24          1           0        1.752266   -1.600129   -1.237191
     25          1           0        3.899522   -1.051866   -0.405954
     26          1           0        3.259749    0.587122   -0.114314
     27          1           0        3.998046   -0.330057    1.226549
 ---------------------------------------------------------------------

 SCF Done:  E(UB3LYP) =  -540.310453550     A.U. after   31 cycles

 The electronic state is 2-A.
 Alpha  occ. eigenvalues --  -19.03407 -19.02928 -19.00738 -10.15107 -10.11788
 Alpha  occ. eigenvalues --  -10.11533 -10.11467 -10.11349 -10.07723 -10.06816
 Alpha  occ. eigenvalues --  -10.05206  -0.94996  -0.94274  -0.93528  -0.70952
 Alpha  occ. eigenvalues --   -0.64485  -0.63593  -0.57799  -0.56913  -0.53536
 Alpha  occ. eigenvalues --   -0.49483  -0.42198  -0.40446  -0.39678  -0.38982
 Alpha  occ. eigenvalues --   -0.38222  -0.37870  -0.35417  -0.34076  -0.33580
 Alpha  occ. eigenvalues --   -0.32353  -0.30247  -0.28936  -0.28887  -0.27318
 Alpha  occ. eigenvalues --   -0.26489  -0.25935  -0.24209  -0.23245  -0.23005
 Alpha  occ. eigenvalues --   -0.21661  -0.18826  -0.16592  -0.13694   0.04630
 Alpha virt. eigenvalues --    0.06297   0.07095   0.08082   0.08505   0.09279
 Alpha virt. eigenvalues --    0.09562   0.10032   0.10849   0.11345   0.11741
 Alpha virt. eigenvalues --    0.12110   0.13015   0.13846   0.14003   0.14579

  Beta  occ. eigenvalues --  -19.03397 -19.02916 -19.00717 -10.15078 -10.11785
  Beta  occ. eigenvalues --  -10.11504 -10.11425 -10.11320 -10.07718 -10.06796
  Beta  occ. eigenvalues --  -10.05177  -0.94967  -0.94256  -0.93491  -0.70911
  Beta  occ. eigenvalues --   -0.64445  -0.63556  -0.57736  -0.56838  -0.53469
  Beta  occ. eigenvalues --   -0.49407  -0.42148  -0.40386  -0.39642  -0.38933
  Beta  occ. eigenvalues --   -0.38183  -0.37842  -0.35376  -0.34040  -0.33545
  Beta  occ. eigenvalues --   -0.32313  -0.30184  -0.28905  -0.28852  -0.27269
  Beta  occ. eigenvalues --   -0.26438  -0.25861  -0.24154  -0.23210  -0.22959
  Beta  occ. eigenvalues --   -0.21599  -0.18803  -0.16560  -0.13669
  Beta virt. eigenvalues --    0.06907   0.07272   0.07769   0.08578   0.09051
  Beta virt. eigenvalues --    0.09813   0.10047   0.10714   0.11337   0.11855
  Beta virt. eigenvalues --    0.12097   0.12554   0.13176   0.13992   0.14562

 Mulliken charges and spin densities:
               1          2
     1  C    0.246588  -0.848474
     2  C   -0.025910   0.495142
     3  C    0.010703  -0.463588
     4  C    0.509737  -0.961952
     5  O   -0.174236   0.060896
     6  C    0.449664  -0.706699
     7  C   -0.496248   0.459725
     8  O   -0.245668   0.016218
     9  C    0.229138  -0.772611
    10  O   -0.147632   0.061412
    11  C    0.855450  -1.136849
    12  H    0.100026   0.061336
    13  H   -0.082885   0.240803
    14  H   -0.353399   0.492241
    15  H   -0.073629   0.272491
    16  H    0.272586  -0.046546
    17  H   -0.643079   0.829393
    18  H   -0.386252   0.545744
    19  H   -0.000946   0.144139
    20  H   -0.305781   0.439934
    21  H   -0.106207   0.241699
    22  H   -0.069041   0.195951
    23  H    0.188154   0.052417
    24  H    0.148101   0.002708
    25  H   -0.236676   0.359284
    26  H   -0.222263   0.357834
    27  H   -0.440292   0.607353
 Sum of Mulliken charges =  -1.00000   1.00000

 Dipole moment (field-independent basis, Debye):
    X=             -0.5017    Y=             -2.8267    Z=             -2.5401  Tot=              3.8333
 Quadrupole moment (field-independent basis, Debye-Ang):
   XX=           -134.1279   YY=           -106.8571   ZZ=           -109.4376
   XY=             -3.3194   XZ=              2.3766   YZ=             -2.5613

 Summary of Natural Population Analysis:

                                       Natural Population
                Natural  -----------------------------------------------
    Atom  No    Charge         Core      Valence    Rydberg      Total
 -----------------------------------------------------------------------
      C    1   -0.28674      0.99965     2.27911    0.00798     3.28674
      C    2   -0.16074      0.99954     2.14834    0.01285     3.16074
      C    3   -0.19693      0.99960     2.18592    0.01141     3.19693
      C    4   -0.00833      0.99957     1.99614    0.01261     3.00833
      O    5   -0.30343      0.99988     3.29320    0.01035     4.30343
      C    6   -0.09407      0.99962     2.08553    0.00892     3.09407
      C    7    0.29465      0.99964     1.68186    0.02385     2.70535
      O    8   -0.28848      0.99987     3.28187    0.00673     4.28848
      C    9   -0.05861      0.99952     2.04616    0.01293     3.05861
      O   10   -0.29625      0.99989     3.28726    0.00909     4.29625
      C   11   -0.09926      0.99962     2.08990    0.00975     3.09926
      H   12    0.10122      0.00000     0.39758    0.00120     0.39878
      H   13    0.10450      0.00000     0.39457    0.00093     0.39550
      H   14    0.09986      0.00000     0.39901    0.00112     0.40014
      H   15    0.11563      0.00000     0.38187    0.00250     0.38437
      H   16    0.10734      0.00000     0.39056    0.00210     0.39266
      H   17    0.10584      0.00000     0.39235    0.00181     0.39416
      H   18    0.08417      0.00000     0.41397    0.00186     0.41583
      H   19    0.08038      0.00000     0.41763    0.00199     0.41962
      H   20    0.07928      0.00000     0.41908    0.00164     0.42072
      H   21    0.08028      0.00000     0.41860    0.00112     0.41972
      H   22    0.08874      0.00000     0.41033    0.00092     0.41126
      H   23    0.11177      0.00000     0.38651    0.00172     0.38823
      H   24    0.08760      0.00000     0.41094    0.00146     0.41240
      H   25    0.07828      0.00000     0.42022    0.00150     0.42172
      H   26    0.07993      0.00000     0.41802    0.00205     0.42007
      H   27    0.09336      0.00000     0.40517    0.00146     0.40664
 =======================================================================
   * Total *   -0.00000     10.99641    32.85171    0.15188    44.00000

 Normal termination of Gaussian 16 at Tue Dec  8 22:15:15 2020.
