 Gaussian 16, Revision A.03,

 -----------------------------------------------------------
 # opt freq B3LYP/6-31G(d) empiricaldispersion=gd3bj scf=xqc
 -----------------------------------------------------------

 -------------------------------
 CID_14296959_JID_10694_neutraal
 -------------------------------
 Symbolic Z-matrix:
 Charge =  0 Multiplicity = 1

 SCF Done:  E(RB3LYP) =  -865.753571378     A.U. after   15 cycles
 SCF Done:  E(RB3LYP) =  -865.756598008     A.U. after   13 cycles
 SCF Done:  E(RB3LYP) =  -865.757217041     A.U. after   12 cycles
 SCF Done:  E(RB3LYP) =  -865.757703798     A.U. after   11 cycles
 SCF Done:  E(RB3LYP) =  -865.757737092     A.U. after   11 cycles
 SCF Done:  E(RB3LYP) =  -865.757690939     A.U. after   12 cycles
 SCF Done:  E(RB3LYP) =  -865.757797627     A.U. after   11 cycles
 SCF Done:  E(RB3LYP) =  -865.757800326     A.U. after    8 cycles
 SCF Done:  E(RB3LYP) =  -865.757802393     A.U. after    8 cycles
 SCF Done:  E(RB3LYP) =  -865.757803300     A.U. after    8 cycles
 SCF Done:  E(RB3LYP) =  -865.757805733     A.U. after    9 cycles
 SCF Done:  E(RB3LYP) =  -865.757805853     A.U. after    9 cycles
 SCF Done:  E(RB3LYP) =  -865.757805965     A.U. after    9 cycles
 SCF Done:  E(RB3LYP) =  -865.757806039     A.U. after    8 cycles
 SCF Done:  E(RB3LYP) =  -865.757806055     A.U. after    6 cycles
 Optimization completed.
    -- Stationary point found.
 Normal termination of Gaussian 16 at Mon Dec 14 17:56:39 2020.

 --------------------------------------------------------------------
 #N Geom=AllCheck Guess=TCheck SCRF=Check GenChk RB3LYP/6-31G(d) Freq
 --------------------------------------------------------------------

 Structure from the checkpoint file:  "JID_10694.chk"
 -------------------------------
 CID_14296959_JID_10694_neutraal
 -------------------------------
 Charge =  0 Multiplicity = 1

 SCF Done:  E(RB3LYP) =  -865.757806055     A.U. after    1 cycles

  Exact polarizability: 217.945  16.578 208.673 -10.683   0.968 136.810
 Approx polarizability: 314.755  35.313 306.861 -12.821  -7.621 220.576

                      1                      2                      3
                      A                      A                      A
 Frequencies --      7.1989                15.0265                33.7534
 Red. masses --      2.6917                 4.1640                 4.2495
 Frc consts  --      0.0001                 0.0006                 0.0029
 IR Inten    --      0.0102                 0.0849                 0.3988

                      4                      5                      6
                      A                      A                      A
 Frequencies --     39.7759                49.5397                84.3958
 Red. masses --      3.9174                 3.2338                 3.9906
 Frc consts  --      0.0037                 0.0047                 0.0167
 IR Inten    --      0.0061                 0.4095                 2.0732

                      7                      8                      9
                      A                      A                      A
 Frequencies --     99.0694               109.0233               120.0239
 Red. masses --      5.7987                 3.6298                 3.4584
 Frc consts  --      0.0335                 0.0254                 0.0294
 IR Inten    --      1.8113                 0.0572                 0.7471

                     10                     11                     12
                      A                      A                      A
 Frequencies --    159.1598               169.9486               203.4218
 Red. masses --      4.3101                 3.0212                 4.3763
 Frc consts  --      0.0643                 0.0514                 0.1067
 IR Inten    --      0.2573                 0.4805                 0.6910

                     13                     14                     15
                      A                      A                      A
 Frequencies --    225.1147               238.5734               241.0412
 Red. masses --      1.5535                 2.1900                 1.0445
 Frc consts  --      0.0464                 0.0734                 0.0358
 IR Inten    --      2.3856                 0.4926                 0.0039

                     16                     17                     18
                      A                      A                      A
 Frequencies --    270.1843               295.7481               298.3152
 Red. masses --      1.3004                 3.4655                 2.5734
 Frc consts  --      0.0559                 0.1786                 0.1349
 IR Inten    --      0.2980                 0.5575                 0.9689

                     19                     20                     21
                      A                      A                      A
 Frequencies --    349.6031               384.3504               408.2012
 Red. masses --      2.8642                 2.9564                 2.8453
 Frc consts  --      0.2063                 0.2573                 0.2793
 IR Inten    --     10.4596                13.1249                 0.7713

                     22                     23                     24
                      A                      A                      A
 Frequencies --    417.6962               422.7605               435.6925
 Red. masses --      3.0544                 3.4311                 3.9154
 Frc consts  --      0.3140                 0.3613                 0.4379
 IR Inten    --      0.1944                 1.0748                 1.6405

                     25                     26                     27
                      A                      A                      A
 Frequencies --    478.3908               491.2512               551.7990
 Red. masses --      3.7056                 3.1511                 4.2310
 Frc consts  --      0.4997                 0.4480                 0.7590
 IR Inten    --      1.7231                 5.7981                 2.5820

                     28                     29                     30
                      A                      A                      A
 Frequencies --    587.4966               622.7916               638.2224
 Red. masses --      4.6109                 3.1817                 6.0878
 Frc consts  --      0.9377                 0.7271                 1.4610
 IR Inten    --      2.0956                 5.1914                 0.4663

                     31                     32                     33
                      A                      A                      A
 Frequencies --    652.1052               673.0455               717.2712
 Red. masses --      4.2383                 2.1839                 2.2515
 Frc consts  --      1.0619                 0.5829                 0.6825
 IR Inten    --      8.6746                15.9772                18.3152

                     34                     35                     36
                      A                      A                      A
 Frequencies --    733.2414               748.0329               779.9533
 Red. masses --      2.0443                 4.0604                 1.8877
 Frc consts  --      0.6476                 1.3386                 0.6766
 IR Inten    --     33.2106                12.0352                10.6021

                     37                     38                     39
                      A                      A                      A
 Frequencies --    791.5665               809.0315               835.4812
 Red. masses --      1.9025                 2.1903                 3.3091
 Frc consts  --      0.7023                 0.8447                 1.3609
 IR Inten    --     15.2087                11.2248                 0.6720

                     40                     41                     42
                      A                      A                      A
 Frequencies --    852.6642               855.3987               866.1582
 Red. masses --      1.5556                 2.2796                 1.2497
 Frc consts  --      0.6664                 0.9828                 0.5524
 IR Inten    --     13.4922                 0.2618                 0.1006

                     43                     44                     45
                      A                      A                      A
 Frequencies --    891.5295               894.8465               936.8945
 Red. masses --      2.6908                 2.6280                 1.4460
 Frc consts  --      1.2601                 1.2398                 0.7478
 IR Inten    --      3.3369                 2.0988                 2.3619

                     46                     47                     48
                      A                      A                      A
 Frequencies --    941.6790               972.3332               973.6680
 Red. masses --      1.1715                 1.5180                 1.6964
 Frc consts  --      0.6120                 0.8456                 0.9475
 IR Inten    --      0.6094                 0.0401                 1.7355

                     49                     50                     51
                      A                      A                      A
 Frequencies --    976.1202              1003.5432              1009.4918
 Red. masses --      1.4122                 1.2651                 3.3050
 Frc consts  --      0.7928                 0.7506                 1.9844
 IR Inten    --      0.0989                 0.6789                18.8063

                     52                     53                     54
                      A                      A                      A
 Frequencies --   1023.1096              1037.3477              1061.6936
 Red. masses --      6.2230                 3.5763                 2.2368
 Frc consts  --      3.8379                 2.2674                 1.4855
 IR Inten    --      0.2111                 5.6844                 3.7131

                     55                     56                     57
                      A                      A                      A
 Frequencies --   1102.2570              1115.4966              1123.1466
 Red. masses --      1.4845                 1.9220                 2.1546
 Frc consts  --      1.0626                 1.4091                 1.6014
 IR Inten    --     18.3545                44.0496                40.7877

                     58                     59                     60
                      A                      A                      A
 Frequencies --   1138.0990              1138.4960              1148.1966
 Red. masses --      2.4597                 2.2933                 1.6249
 Frc consts  --      1.8771                 1.7514                 1.2621
 IR Inten    --    197.2634                17.6511                76.0830

                     61                     62                     63
                      A                      A                      A
 Frequencies --   1194.2545              1200.1971              1210.8317
 Red. masses --      1.1067                 1.6910                 1.7537
 Frc consts  --      0.9300                 1.4352                 1.5148
 IR Inten    --      0.3982                 2.1736                55.2778

                     64                     65                     66
                      A                      A                      A
 Frequencies --   1213.6919              1217.4940              1234.5286
 Red. masses --      1.5173                 1.1815                 2.6066
 Frc consts  --      1.3169                 1.0318                 2.3406
 IR Inten    --     20.0415                 2.2960                32.4532

                     67                     68                     69
                      A                      A                      A
 Frequencies --   1244.7044              1305.0081              1342.0765
 Red. masses --      2.1147                 2.9508                 1.8791
 Frc consts  --      1.9303                 2.9608                 1.9942
 IR Inten    --    187.3414               262.3611                44.3516

                     70                     71                     72
                      A                      A                      A
 Frequencies --   1344.0588              1361.2299              1363.7463
 Red. masses --      1.1239                 1.3272                 5.5602
 Frc consts  --      1.1963                 1.4490                 6.0927
 IR Inten    --     19.9010                 2.9510                 3.9629

                     73                     74                     75
                      A                      A                      A
 Frequencies --   1373.1676              1393.7124              1415.1940
 Red. masses --      1.3525                 1.5520                 1.3164
 Frc consts  --      1.5026                 1.7762                 1.5534
 IR Inten    --      4.0362                32.8083                 1.1014

                     76                     77                     78
                      A                      A                      A
 Frequencies --   1425.8626              1436.1134              1441.0053
 Red. masses --      1.2320                 1.8671                 1.6375
 Frc consts  --      1.4758                 2.2688                 2.0034
 IR Inten    --      2.6811                 5.2050                45.1725

                     79                     80                     81
                      A                      A                      A
 Frequencies --   1445.8204              1460.0717              1466.2719
 Red. masses --      1.2892                 3.0959                 3.4183
 Frc consts  --      1.5878                 3.8886                 4.3300
 IR Inten    --      2.3861               112.4862                48.7052

                     82                     83                     84
                      A                      A                      A
 Frequencies --   1502.4793              1508.8191              1515.1116
 Red. masses --      2.0620                 2.1350                 1.0768
 Frc consts  --      2.7425                 2.8636                 1.4563
 IR Inten    --     20.5638                21.4269                27.6332

                     85                     86                     87
                      A                      A                      A
 Frequencies --   1516.8171              1517.1525              1520.5697
 Red. masses --      1.0466                 1.2540                 1.2317
 Frc consts  --      1.4187                 1.7006                 1.6779
 IR Inten    --      0.1479                18.8118                43.0591

                     88                     89                     90
                      A                      A                      A
 Frequencies --   1520.6887              1532.4108              1537.5886
 Red. masses --      1.1156                 1.0544                 1.0624
 Frc consts  --      1.5200                 1.4588                 1.4798
 IR Inten    --     17.9745                 7.5696                 2.0359

                     91                     92                     93
                      A                      A                      A
 Frequencies --   1539.2807              1549.4677              1612.8542
 Red. masses --      1.1106                 2.1986                 4.7135
 Frc consts  --      1.5504                 3.1101                 7.2241
 IR Inten    --     21.8003                15.8002                 9.7130

                     94                     95                     96
                      A                      A                      A
 Frequencies --   1649.1813              1668.8055              1755.0476
 Red. masses --      5.5731                 5.5415                10.4656
 Frc consts  --      8.9306                 9.0927                18.9929
 IR Inten    --      2.5468                 3.2180               370.0820

                     97                     98                     99
                      A                      A                      A
 Frequencies --   3033.9338              3040.6829              3045.4581
 Red. masses --      1.0836                 1.0352                 1.0363
 Frc consts  --      5.8765                 5.6393                 5.6631
 IR Inten    --     14.5104                23.7067                37.6110

                    100                    101                    102
                      A                      A                      A
 Frequencies --   3060.8662              3087.6155              3093.2383
 Red. masses --      1.0363                 1.0695                 1.0589
 Frc consts  --      5.7206                 6.0071                 5.9694
 IR Inten    --     19.1907                28.9009                34.3184

                    103                    104                    105
                      A                      A                      A
 Frequencies --   3103.0433              3110.5250              3121.8349
 Red. masses --      1.1026                 1.1016                 1.1023
 Frc consts  --      6.2553                 6.2799                 6.3296
 IR Inten    --      0.6727                97.7968                24.8499

                    106                    107                    108
                      A                      A                      A
 Frequencies --   3123.9600              3127.0036              3138.6058
 Red. masses --      1.1020                 1.1019                 1.1039
 Frc consts  --      6.3364                 6.3480                 6.4071
 IR Inten    --     37.1372                28.7496                 9.8126

                    109                    110                    111
                      A                      A                      A
 Frequencies --   3158.3135              3171.4117              3184.3067
 Red. masses --      1.1071                 1.0871                 1.0877
 Frc consts  --      6.5065                 6.4421                 6.4979
 IR Inten    --     31.2702                10.5730                 0.8487

                    112                    113                    114
                      A                      A                      A
 Frequencies --   3185.6493              3195.4277              3207.8835
 Red. masses --      1.0954                 1.0916                 1.0962
 Frc consts  --      6.5495                 6.5673                 6.6460
 IR Inten    --      3.4932                28.9941                24.3333

                    115                    116                    117
                      A                      A                      A
 Frequencies --   3219.8005              3263.6918              3271.5521
 Red. masses --      1.0941                 1.0955                 1.0958
 Frc consts  --      6.6830                 6.8750                 6.9101
 IR Inten    --      7.9034                 0.7735                 0.6535

 - Thermochemistry -
 -------------------
 Temperature   298.150 Kelvin.  Pressure   1.00000 Atm.
 Atom     1 has atomic number  6 and mass  12.00000

 Molecular mass:   271.15723 amu.
 Principal axes and moments of inertia in atomic units:
                           1         2         3
     Eigenvalues --  5884.285586189.24529**********
           X            0.95725   0.28924  -0.00456
           Y           -0.28926   0.95723  -0.00636
           Z            0.00252   0.00741   0.99997
 This molecule is an asymmetric top.
 Rotational symmetry number  1.
 Warning -- assumption of classical behavior for rotation
           may cause significant error
 Rotational temperatures (Kelvin)      0.01472     0.01399     0.00821
 Rotational constants (GHZ):           0.30671     0.29159     0.17103
 Zero-point vibrational energy     919507.1 (Joules/Mol)
                                  219.76748 (Kcal/Mol)
 Warning -- explicit consideration of  28 degrees of freedom as
           vibrations may cause significant error
 Vibrational temperatures:     10.36    21.62    48.56    57.23    71.28
          (Kelvin)            121.43   142.54   156.86   172.69   229.00
                              244.52   292.68   323.89   343.25   346.80
                              388.73   425.52   429.21   503.00   552.99
                              587.31   600.97   608.26   626.86   688.30
                              706.80   793.92   845.28   896.06   918.26
                              938.23   968.36  1031.99  1054.97  1076.25
                             1122.18  1138.89  1164.02  1202.07  1226.79
                             1230.73  1246.21  1282.71  1287.48  1347.98
                             1354.87  1398.97  1400.89  1404.42  1443.87
                             1452.43  1472.03  1492.51  1527.54  1585.90
                             1604.95  1615.96  1637.47  1638.04  1652.00
                             1718.27  1726.82  1742.12  1746.23  1751.70
                             1776.21  1790.85  1877.62  1930.95  1933.80
                             1958.51  1962.13  1975.68  2005.24  2036.15
                             2051.50  2066.25  2073.29  2080.21  2100.72
                             2109.64  2161.73  2170.85  2179.91  2182.36
                             2182.84  2187.76  2187.93  2204.80  2212.25
                             2214.68  2229.34  2320.54  2372.80  2401.04
                             2525.12  4365.15  4374.86  4381.74  4403.90
                             4442.39  4450.48  4464.59  4475.35  4491.62
                             4494.68  4499.06  4515.75  4544.11  4562.95
                             4581.51  4583.44  4597.51  4615.43  4632.57
                             4695.72  4707.03

 Zero-point correction=                           0.350222 (Hartree/Particle)
 Thermal correction to Energy=                    0.369913
 Thermal correction to Enthalpy=                  0.370857
 Thermal correction to Gibbs Free Energy=         0.297998
 Sum of electronic and zero-point Energies=           -865.407584
 Sum of electronic and thermal Energies=              -865.387893
 Sum of electronic and thermal Enthalpies=            -865.386949
 Sum of electronic and thermal Free Energies=         -865.459808

                     E (Thermal)             CV                S
                      KCal/Mol        Cal/Mol-Kelvin    Cal/Mol-Kelvin
 Total                  232.124             73.783            153.344
 Electronic               0.000              0.000              0.000
 Translational            0.889              2.981             42.691
 Rotational               0.889              2.981             34.307
 Vibrational            230.346             67.821             76.346
 Vibration     1          0.593              1.987              8.664
 Vibration     2          0.593              1.986              7.202
 Vibration     3          0.594              1.983              5.596
 Vibration     4          0.594              1.981              5.270
 Vibration     5          0.595              1.978              4.836
 Vibration     6          0.601              1.960              3.786
 Vibration     7          0.604              1.950              3.473
 Vibration     8          0.606              1.942              3.286
 Vibration     9          0.609              1.933              3.100
 Vibration    10          0.621              1.892              2.560
 Vibration    11          0.625              1.879              2.436
 Vibration    12          0.639              1.835              2.102
 Vibration    13          0.650              1.803              1.918
 Vibration    14          0.657              1.782              1.813
 Vibration    15          0.658              1.778              1.795
 Vibration    16          0.674              1.728              1.595
 Vibration    17          0.690              1.682              1.441
 Vibration    18          0.691              1.677              1.426
 Vibration    19          0.727              1.576              1.168
 Vibration    20          0.753              1.504              1.022
 Vibration    21          0.773              1.452              0.933
 Vibration    22          0.781              1.432              0.900
 Vibration    23          0.785              1.421              0.883
 Vibration    24          0.796              1.392              0.840
 Vibration    25          0.835              1.298              0.714
 Vibration    26          0.847              1.269              0.680
 Vibration    27          0.907              1.136              0.540
 Vibration    28          0.945              1.058              0.472

 Optimization completed.
    -- Stationary point found.
 Normal termination of Gaussian 16 at Mon Dec 14 18:16:24 2020.

 ----------------------------------------------------------------------
 # B3LYP/6-311++G(d,p) empiricaldispersion=gd3bj scf=xqc pop=npa geom=c
 heck
 ----------------------------------------------------------------------

 ---------------------------------------
 CID_14296959_JID_10694_Energie_neutraal
 ---------------------------------------
 Structure from the checkpoint file:  "JID_10694.chk"
 Charge =  0 Multiplicity = 1

 SCF Done:  E(RB3LYP) =  -865.989246693     A.U. after   16 cycles
 Normal termination of Gaussian 16 at Mon Dec 14 18:24:46 2020.

 ----------------------------------------------------------------------
 # B3LYP/6-311++G(d,p) empiricaldispersion=gd3bj scf=xqc pop=npa geom=c
 heck
 ----------------------------------------------------------------------

 -------------------------------------
 CID_14296959_JID_10694_Energie_kation
 -------------------------------------
 Structure from the checkpoint file:  "JID_10694.chk"
 Charge =  1 Multiplicity = 2

 SCF Done:  E(UB3LYP) =  -865.703248475     A.U. after   28 cycles
 Normal termination of Gaussian 16 at Mon Dec 14 18:45:20 2020.
 Gaussian 16:  ES64L-G16RevA.03 25-Dec-2016

 ----------------------------------------------------------------------
 # B3LYP/6-311++G(d,p) empiricaldispersion=gd3bj scf=xqc pop=npa geom=c
 heck
 ----------------------------------------------------------------------

 ------------------------------------
 CID_14296959_JID_10694_Energie_anion
 ------------------------------------
 Structure from the checkpoint file:  "JID_10694.chk"
 Charge = -1 Multiplicity = 2

                         Standard orientation:
 ---------------------------------------------------------------------
 Center     Atomic      Atomic             Coordinates (Angstroms)
 Number     Number       Type             X           Y           Z
 ---------------------------------------------------------------------
      1          6           0       -3.195382   -3.337758    1.212218
      2          6           0       -2.240933   -3.799283    0.121862
      3          8           0       -1.018873   -3.032100    0.136648
      4          6           0       -1.055007   -1.837029   -0.503572
      5          8           0       -2.050588   -1.429821   -1.092046
      6          6           0        0.219916   -1.148932   -0.382638
      7          6           0        1.377328   -1.566709    0.273190
      8          6           0        2.366022   -0.573899    0.110062
      9          6           0        1.776640    0.431553   -0.651986
     10          7           0        0.493642    0.085266   -0.958049
     11          6           0       -0.438762    0.984440   -1.652690
     12          6           0       -1.053060    2.002308   -0.715559
     13          6           0       -2.152534    1.658974    0.080452
     14          6           0       -2.690302    2.585903    0.971938
     15          6           0       -2.138430    3.864493    1.076743
     16          6           0       -1.046222    4.214359    0.282644
     17          6           0       -0.508312    3.285339   -0.608554
     18          6           0        3.776588   -0.592787    0.644240
     19          6           0        4.812629   -0.586964   -0.492766
     20          6           0        4.025233    0.570745    1.619398
     21          1           0       -2.710095   -3.376752    2.192746
     22          1           0       -4.078313   -3.986639    1.236377
     23          1           0       -3.525533   -2.313411    1.020669
     24          1           0       -1.913356   -4.828739    0.285311
     25          1           0       -2.700519   -3.717014   -0.865883
     26          1           0        1.481567   -2.503331    0.802229
     27          1           0        2.177628    1.375467   -0.993634
     28          1           0        0.132725    1.487413   -2.438450
     29          1           0       -1.204335    0.364172   -2.113966
     30          1           0       -2.579548    0.665351   -0.010698
     31          1           0       -3.545186    2.311499    1.583988
     32          1           0       -2.560580    4.585780    1.770963
     33          1           0       -0.614944    5.209026    0.354314
     34          1           0        0.340951    3.561107   -1.230078
     35          1           0        3.897152   -1.530566    1.203066
     36          1           0        4.740110    0.336761   -1.079818
     37          1           0        5.832331   -0.651489   -0.094958
     38          1           0        4.653329   -1.428576   -1.174796
     39          1           0        3.303683    0.554960    2.442635
     40          1           0        5.035591    0.519394    2.042240
     41          1           0        3.925059    1.535563    1.107357
 ---------------------------------------------------------------------

 SCF Done:  E(UB3LYP) =  -865.982341387     A.U. after   33 cycles
 SCF Done:  E(UB3LYP) =  -865.982341387     a.u. after    1 cycles

 The electronic state is 2-A.
 Alpha  occ. eigenvalues --  -19.04088 -18.97360 -14.24325 -10.16364 -10.12333
 Alpha  occ. eigenvalues --  -10.09871 -10.08151 -10.07535 -10.07520 -10.07462
 Alpha  occ. eigenvalues --  -10.07362 -10.07306 -10.07218 -10.07092 -10.06685
 Alpha  occ. eigenvalues --  -10.06563 -10.06480 -10.06450 -10.04982 -10.04020
 Alpha  occ. eigenvalues --   -0.97979  -0.89010  -0.86867  -0.75726  -0.71742
 Alpha  occ. eigenvalues --   -0.68803  -0.67147  -0.64507  -0.64260  -0.62025
 Alpha  occ. eigenvalues --   -0.58965  -0.57527  -0.55395  -0.50898  -0.50423
 Alpha  occ. eigenvalues --   -0.48942  -0.48020  -0.45160  -0.42653  -0.42024
 Alpha  occ. eigenvalues --   -0.39874  -0.37341  -0.36838  -0.36364  -0.36027
 Alpha  occ. eigenvalues --   -0.35122  -0.34335  -0.33723  -0.32920  -0.32379
 Alpha  occ. eigenvalues --   -0.31982  -0.31620  -0.31061  -0.30098  -0.29275
 Alpha  occ. eigenvalues --   -0.28544  -0.28404  -0.27465  -0.26966  -0.26571
 Alpha  occ. eigenvalues --   -0.26265  -0.25030  -0.24262  -0.23849  -0.23457
 Alpha  occ. eigenvalues --   -0.23097  -0.22971  -0.18825  -0.15866  -0.15499
 Alpha  occ. eigenvalues --   -0.14976  -0.12633  -0.10516   0.04347
 Alpha virt. eigenvalues --    0.06325   0.06651   0.06794   0.07609   0.08401
 Alpha virt. eigenvalues --    0.08509   0.08573   0.08818   0.09112   0.09458
 Alpha virt. eigenvalues --    0.09807   0.10396   0.10560   0.10895   0.11849

  Beta  occ. eigenvalues --  -19.04053 -18.97181 -14.24195 -10.16150 -10.12331
  Beta  occ. eigenvalues --  -10.09870 -10.08146 -10.07526 -10.07520 -10.07402
  Beta  occ. eigenvalues --  -10.07335 -10.07280 -10.07084 -10.07068 -10.06660
  Beta  occ. eigenvalues --  -10.06558 -10.06479 -10.06440 -10.05041 -10.03898
  Beta  occ. eigenvalues --   -0.97785  -0.88751  -0.86655  -0.75653  -0.71698
  Beta  occ. eigenvalues --   -0.68713  -0.67052  -0.64456  -0.64134  -0.61810
  Beta  occ. eigenvalues --   -0.58953  -0.57443  -0.55245  -0.50852  -0.50363
  Beta  occ. eigenvalues --   -0.48746  -0.47816  -0.45078  -0.42552  -0.41954
  Beta  occ. eigenvalues --   -0.39791  -0.37259  -0.36650  -0.36249  -0.35949
  Beta  occ. eigenvalues --   -0.34869  -0.34178  -0.33639  -0.32798  -0.32273
  Beta  occ. eigenvalues --   -0.31926  -0.31606  -0.30964  -0.29908  -0.29251
  Beta  occ. eigenvalues --   -0.28462  -0.28110  -0.27336  -0.26897  -0.26341
  Beta  occ. eigenvalues --   -0.26060  -0.25015  -0.24230  -0.23794  -0.23300
  Beta  occ. eigenvalues --   -0.23034  -0.22922  -0.18278  -0.15661  -0.15395
  Beta  occ. eigenvalues --   -0.14738  -0.12069  -0.09844
  Beta virt. eigenvalues --    0.06340   0.06704   0.06920   0.07834   0.08216
  Beta virt. eigenvalues --    0.08580   0.08585   0.08706   0.09199   0.09416
  Beta virt. eigenvalues --    0.09644   0.09845   0.10507   0.10698   0.10975

 Mulliken charges and spin densities:
               1          2
     1  C    0.220368  -0.547933
     2  C   -0.302558   0.142502
     3  O   -0.021698   0.007353
     4  C   -0.243863   0.122199
     5  O   -0.323025   0.060715
     6  C    0.396702  -0.332757
     7  C   -0.195085  -0.009854
     8  C    0.984758  -0.325190
     9  C   -0.808836   0.117264
    10  N    0.472665   0.011235
    11  C   -0.297474  -0.700197
    12  C    0.727312   0.450406
    13  C   -0.887425   0.467237
    14  C   -0.316426   0.161107
    15  C    0.297329  -0.576011
    16  C    0.127726  -0.491605
    17  C    0.212719  -0.291607
    18  C   -0.931028   0.698306
    19  C   -0.267681  -0.348502
    20  C   -0.344386  -0.257507
    21  H    0.055405   0.076268
    22  H   -0.120422   0.244034
    23  H   -0.012263   0.179806
    24  H   -0.007798   0.149765
    25  H    0.147216   0.008422
    26  H    0.149269   0.007574
    27  H    0.186705  -0.043016
    28  H   -0.279875   0.460486
    29  H    0.236004   0.001391
    30  H    0.176237  -0.020580
    31  H   -0.000206   0.155769
    32  H    0.062643   0.066973
    33  H   -0.139792   0.300868
    34  H   -0.388579   0.536304
    35  H    0.115124   0.049052
    36  H   -0.111833   0.255768
    37  H    0.037282   0.084333
    38  H    0.122494   0.007673
    39  H    0.093040   0.038917
    40  H    0.066027   0.056759
    41  H    0.113226   0.026275
 Sum of Mulliken charges =  -1.00000   1.00000

 Dipole moment (field-independent basis, Debye):
    X=              1.0195    Y=             -1.6215    Z=              1.8386  Tot=              2.6550
 Quadrupole moment (field-independent basis, Debye-Ang):
   XX=           -172.2269   YY=           -173.0035   ZZ=           -148.1351
   XY=             -6.4895   XZ=              3.6227   YZ=              5.9836

 Summary of Natural Population Analysis:

                                       Natural Population
                Natural  -----------------------------------------------
    Atom  No    Charge         Core      Valence    Rydberg      Total
 -----------------------------------------------------------------------
      C    1   -0.29843      0.99966     2.29447    0.00429     3.29843
      C    2   -0.01754      0.99959     2.00533    0.01263     3.01754
      O    3   -0.28331      0.99986     3.27517    0.00828     4.28331
      C    4    0.41229      0.99960     1.56587    0.02223     2.58771
      O    5   -0.32050      0.99988     3.31564    0.00498     4.32050
      C    6    0.01228      0.99947     1.97681    0.01144     2.98772
      C    7   -0.08791      0.99949     2.08038    0.00804     3.08791
      C    8   -0.07278      0.99952     2.06226    0.01101     3.07278
      C    9    0.02434      0.99951     1.96514    0.01102     2.97566
      N   10   -0.16982      0.99962     2.66026    0.00994     3.66982
      C   11   -0.09360      0.99957     2.08257    0.01146     3.09360
      C   12   -0.01251      0.99950     2.00324    0.00978     3.01251
      C   13   -0.09575      0.99951     2.08813    0.00811     3.09575
      C   14   -0.10157      0.99957     2.09236    0.00964     3.10157
      C   15   -0.10151      0.99957     2.09256    0.00938     3.10151
      C   16   -0.10613      0.99957     2.09617    0.01040     3.10613
      C   17   -0.09730      0.99951     2.08747    0.01032     3.09730
      C   18   -0.11543      0.99958     2.10752    0.00833     3.11543
      C   19   -0.27844      0.99966     2.27422    0.00457     3.27844
      C   20   -0.27927      0.99966     2.27502    0.00460     3.27927
      H   21    0.09790      0.00000     0.40075    0.00135     0.40210
      H   22    0.09658      0.00000     0.40204    0.00138     0.40342
      H   23    0.10759      0.00000     0.39103    0.00138     0.39241
      H   24    0.08450      0.00000     0.41436    0.00114     0.41550
      H   25    0.09406      0.00000     0.40474    0.00120     0.40594
      H   26    0.10446      0.00000     0.39448    0.00106     0.39554
      H   27    0.09707      0.00000     0.40174    0.00119     0.40293
      H   28    0.09918      0.00000     0.39899    0.00183     0.40082
      H   29    0.12298      0.00000     0.37581    0.00121     0.37702
      H   30    0.11422      0.00000     0.38363    0.00215     0.38578
      H   31    0.09767      0.00000     0.40149    0.00084     0.40233
      H   32    0.09642      0.00000     0.40279    0.00078     0.40358
      H   33    0.09856      0.00000     0.40054    0.00090     0.40144
      H   34    0.10036      0.00000     0.39809    0.00155     0.39964
      H   35    0.09276      0.00000     0.40537    0.00187     0.40724
      H   36    0.09767      0.00000     0.40123    0.00110     0.40233
      H   37    0.09094      0.00000     0.40814    0.00093     0.40906
      H   38    0.10035      0.00000     0.39873    0.00092     0.39965
      H   39    0.10182      0.00000     0.39728    0.00090     0.39818
      H   40    0.09086      0.00000     0.40822    0.00092     0.40914
      H   41    0.09691      0.00000     0.40212    0.00097     0.40309
 =======================================================================
   * Total *   -0.00000     19.99188    52.79215    0.21598    73.00000

 Normal termination of Gaussian 16 at Mon Dec 14 19:08:55 2020.
