 Gaussian 16, Revision A.03,

 -----------------------------------------------------------
 # opt freq B3LYP/6-31G(d) empiricaldispersion=gd3bj scf=xqc
 -----------------------------------------------------------

 -------------------------------
 CID_110885255_JID_9831_neutraal
 -------------------------------
 Symbolic Z-matrix:
 Charge =  0 Multiplicity = 1

 SCF Done:  E(RB3LYP) =  -1541.52407602     A.U. after   15 cycles
 SCF Done:  E(RB3LYP) =  -1541.52939144     A.U. after   12 cycles
 SCF Done:  E(RB3LYP) =  -1541.52843698     A.U. after   13 cycles
 SCF Done:  E(RB3LYP) =  -1541.52914485     A.U. after   13 cycles
 SCF Done:  E(RB3LYP) =  -1541.53020776     A.U. after   10 cycles
 SCF Done:  E(RB3LYP) =  -1541.53066363     A.U. after   13 cycles
 SCF Done:  E(RB3LYP) =  -1541.53091557     A.U. after   12 cycles
 SCF Done:  E(RB3LYP) =  -1541.53107950     A.U. after   13 cycles
 SCF Done:  E(RB3LYP) =  -1541.53137734     A.U. after   13 cycles
 SCF Done:  E(RB3LYP) =  -1541.53125477     A.U. after   16 cycles
 SCF Done:  E(RB3LYP) =  -1541.53561880     A.U. after    9 cycles
 SCF Done:  E(RB3LYP) =  -1541.53561955     A.U. after    9 cycles
 SCF Done:  E(RB3LYP) =  -1541.53561995     A.U. after    8 cycles
 SCF Done:  E(RB3LYP) =  -1541.53562013     A.U. after    8 cycles
 SCF Done:  E(RB3LYP) =  -1541.53562020     A.U. after    7 cycles
 SCF Done:  E(RB3LYP) =  -1541.53562024     A.U. after    7 cycles
 Optimization completed.
    -- Stationary point found.
 Normal termination of Gaussian 16 at Mon Dec 14 13:58:54 2020.

 --------------------------------------------------------------------
 #N Geom=AllCheck Guess=TCheck SCRF=Check GenChk RB3LYP/6-31G(d) Freq
 --------------------------------------------------------------------

 Structure from the checkpoint file:  "JID_9831.chk"
 -------------------------------
 CID_110885255_JID_9831_neutraal
 -------------------------------
 Charge =  0 Multiplicity = 1

 SCF Done:  E(RB3LYP) =  -1541.53562024     A.U. after    1 cycles

  Exact polarizability: 274.343  -6.782 175.297 -22.519  -7.724 139.733
 Approx polarizability: 371.776 -12.099 306.762 -54.503 -27.351 226.634

                      1                      2                      3
                      A                      A                      A
 Frequencies --     18.6099                23.9237                48.1284
 Red. masses --      5.0546                 6.3289                 3.8522
 Frc consts  --      0.0010                 0.0021                 0.0053
 IR Inten    --      0.5613                 0.4481                 0.8491

                      4                      5                      6
                      A                      A                      A
 Frequencies --     64.9345                89.8085               119.8833
 Red. masses --      4.0085                 5.1148                 4.5386
 Frc consts  --      0.0100                 0.0243                 0.0384
 IR Inten    --      2.4353                 1.3074                 0.4915

                      7                      8                      9
                      A                      A                      A
 Frequencies --    142.6440               181.7226               199.6769
 Red. masses --      5.1106                 4.2227                 3.3923
 Frc consts  --      0.0613                 0.0822                 0.0797
 IR Inten    --      2.1292                 0.6946                 0.7063

                     10                     11                     12
                      A                      A                      A
 Frequencies --    205.5448               219.5945               249.7875
 Red. masses --      4.3428                 1.1799                 8.4017
 Frc consts  --      0.1081                 0.0335                 0.3089
 IR Inten    --      0.9574                 0.3098                 1.1334

                     13                     14                     15
                      A                      A                      A
 Frequencies --    257.0597               285.3214               317.1065
 Red. masses --      4.9574                 3.3867                 3.0316
 Frc consts  --      0.1930                 0.1624                 0.1796
 IR Inten    --      1.2121                 5.1668                 1.0575

                     16                     17                     18
                      A                      A                      A
 Frequencies --    321.9729               338.9613               358.8950
 Red. masses --      3.4669                 2.6838                 6.5949
 Frc consts  --      0.2118                 0.1817                 0.5005
 IR Inten    --      0.7703                 0.9671                 0.3310

                     19                     20                     21
                      A                      A                      A
 Frequencies --    395.5881               432.1179               442.8786
 Red. masses --      3.8607                 3.6084                 4.9228
 Frc consts  --      0.3560                 0.3970                 0.5689
 IR Inten    --      4.7335                 0.0693                 3.1990

                     22                     23                     24
                      A                      A                      A
 Frequencies --    480.9147               499.1446               512.7208
 Red. masses --      3.2163                 6.2957                 6.9159
 Frc consts  --      0.4383                 0.9242                 1.0712
 IR Inten    --      3.1807                 1.3034                 5.2082

                     25                     26                     27
                      A                      A                      A
 Frequencies --    558.4908               562.0898               585.2814
 Red. masses --      3.0594                 3.3810                 3.4754
 Frc consts  --      0.5622                 0.6294                 0.7014
 IR Inten    --      3.4277                 0.6023                 0.2975

                     28                     29                     30
                      A                      A                      A
 Frequencies --    645.9536               658.2219               703.8275
 Red. masses --      1.2829                 5.2682                 6.9193
 Frc consts  --      0.3154                 1.3448                 2.0195
 IR Inten    --     52.4255                14.1619                11.9785

                     31                     32                     33
                      A                      A                      A
 Frequencies --    713.1780               723.5969               729.7003
 Red. masses --      1.3008                 4.4086                 4.5460
 Frc consts  --      0.3898                 1.3600                 1.4262
 IR Inten    --     40.2691                 1.3491                37.0301

                     34                     35                     36
                      A                      A                      A
 Frequencies --    732.8036               755.4971               807.6201
 Red. masses --      4.0793                 6.5254                 1.8610
 Frc consts  --      1.2907                 2.1944                 0.7152
 IR Inten    --     19.0884                 3.0742                 1.8985

                     37                     38                     39
                      A                      A                      A
 Frequencies --    834.7217               856.5608               865.6738
 Red. masses --      1.3588                 2.0705                 4.3377
 Frc consts  --      0.5578                 0.8950                 1.9152
 IR Inten    --      4.5253                 3.9425                23.1872

                     40                     41                     42
                      A                      A                      A
 Frequencies --    886.0877               909.4657               910.3919
 Red. masses --      1.6607                 1.3130                 1.8329
 Frc consts  --      0.7683                 0.6399                 0.8950
 IR Inten    --      1.7684                 0.2155                 6.2775

                     43                     44                     45
                      A                      A                      A
 Frequencies --    956.8610               963.3864               984.1298
 Red. masses --      2.3396                 8.2585                 2.1020
 Frc consts  --      1.2621                 4.5160                 1.1995
 IR Inten    --      1.1411                 7.2527                18.6523

                     46                     47                     48
                      A                      A                      A
 Frequencies --   1027.1643              1055.3403              1063.7187
 Red. masses --      3.0125                 1.6296                 1.6295
 Frc consts  --      1.8726                 1.0693                 1.0863
 IR Inten    --      5.4119                 1.5079                 3.7865

                     49                     50                     51
                      A                      A                      A
 Frequencies --   1094.0292              1096.9940              1120.7809
 Red. masses --      1.7292                 2.5136                 1.1716
 Frc consts  --      1.2194                 1.7822                 0.8671
 IR Inten    --     17.0264                 0.8452                 1.6085

                     52                     53                     54
                      A                      A                      A
 Frequencies --   1128.3372              1131.3952              1136.6845
 Red. masses --      3.2796                 3.8185                 1.6743
 Frc consts  --      2.4601                 2.8799                 1.2746
 IR Inten    --     15.0517                25.8319                16.7471

                     55                     56                     57
                      A                      A                      A
 Frequencies --   1158.6614              1162.4275              1166.9385
 Red. masses --      2.7218                 3.1234                 1.3259
 Frc consts  --      2.1529                 2.4866                 1.0638
 IR Inten    --     14.8556                18.9344                 2.0255

                     58                     59                     60
                      A                      A                      A
 Frequencies --   1232.9305              1258.0702              1262.8197
 Red. masses --      1.4241                 1.2590                 2.0991
 Frc consts  --      1.2755                 1.1740                 1.9722
 IR Inten    --      4.2672                24.7305                14.5240

                     61                     62                     63
                      A                      A                      A
 Frequencies --   1272.9626              1279.2839              1305.6704
 Red. masses --      1.3079                 3.0255                 1.2256
 Frc consts  --      1.2487                 2.9173                 1.2310
 IR Inten    --     15.0168                 2.0950                27.6074

                     64                     65                     66
                      A                      A                      A
 Frequencies --   1326.1236              1349.7773              1354.1779
 Red. masses --      1.2843                 1.2544                 4.0195
 Frc consts  --      1.3308                 1.3465                 4.3428
 IR Inten    --      1.4385                18.4630                 1.5762

                     67                     68                     69
                      A                      A                      A
 Frequencies --   1380.1945              1380.7029              1385.0360
 Red. masses --      1.3568                 1.3756                 2.5648
 Frc consts  --      1.5228                 1.5451                 2.8988
 IR Inten    --      8.3771                 4.0058                 5.6970

                     70                     71                     72
                      A                      A                      A
 Frequencies --   1394.0401              1401.1988              1409.9779
 Red. masses --      1.3935                 1.4558                 1.3532
 Frc consts  --      1.5955                 1.6840                 1.5850
 IR Inten    --      6.4347                 2.1727                58.6843

                     73                     74                     75
                      A                      A                      A
 Frequencies --   1428.1522              1443.9431              1470.0764
 Red. masses --      6.2749                 3.0494                 4.9639
 Frc consts  --      7.5406                 3.7459                 6.3205
 IR Inten    --      6.7554                26.3133                 9.7424

                     76                     77                     78
                      A                      A                      A
 Frequencies --   1479.1238              1496.4960              1514.3944
 Red. masses --      1.3467                 1.7137                 1.0930
 Frc consts  --      1.7360                 2.2611                 1.4769
 IR Inten    --     53.2535                33.6113                 3.2747

                     79                     80                     81
                      A                      A                      A
 Frequencies --   1516.7277              1520.3658              1522.8468
 Red. masses --      1.0930                 1.0911                 1.0860
 Frc consts  --      1.4815                 1.4860                 1.4839
 IR Inten    --      2.8402                 9.7867                 4.2183

                     82                     83                     84
                      A                      A                      A
 Frequencies --   1530.6245              1534.3915              1543.3005
 Red. masses --      2.7221                 1.1064                 1.2991
 Frc consts  --      3.7575                 1.5347                 1.8230
 IR Inten    --     22.2172                 2.2571                34.8011

                     85                     86                     87
                      A                      A                      A
 Frequencies --   1621.5357              2998.4624              3027.7627
 Red. masses --      6.9438                 1.0819                 1.0682
 Frc consts  --     10.7572                 5.7309                 5.7697
 IR Inten    --     17.9405                19.3325                11.0734

                     88                     89                     90
                      A                      A                      A
 Frequencies --   3028.1430              3034.5268              3045.4775
 Red. masses --      1.0700                 1.0611                 1.0650
 Frc consts  --      5.7807                 5.7570                 5.8196
 IR Inten    --     17.3815                33.9850                25.5355

                     91                     92                     93
                      A                      A                      A
 Frequencies --   3067.4563              3072.3083              3079.4410
 Red. masses --      1.0843                 1.0347                 1.0949
 Frc consts  --      6.0110                 5.7542                 6.1173
 IR Inten    --     15.3429                21.3753                53.4173

                     94                     95                     96
                      A                      A                      A
 Frequencies --   3083.2909              3091.9249              3102.2551
 Red. masses --      1.0987                 1.0989                 1.1001
 Frc consts  --      6.1539                 6.1897                 6.2377
 IR Inten    --     57.2792                41.9565                34.3098

                     97                     98                     99
                      A                      A                      A
 Frequencies --   3144.0594              3178.0873              3228.1159
 Red. masses --      1.1042                 1.1040                 1.0895
 Frc consts  --      6.4310                 6.5696                 6.6894
 IR Inten    --      8.8239                 0.8782                10.1270

                    100                    101                    102
                      A                      A                      A
 Frequencies --   3254.7984              3271.4433              3574.6679
 Red. masses --      1.0933                 1.0975                 1.0663
 Frc consts  --      6.8237                 6.9205                 8.0280
 IR Inten    --      3.9134                 0.7205               302.5426

 - Thermochemistry -
 -------------------
 Temperature   298.150 Kelvin.  Pressure   1.00000 Atm.
 Atom     1 has atomic number  6 and mass  12.00000

 Molecular mass:   295.08131 amu.
 Principal axes and moments of inertia in atomic units:
                           1         2         3
     Eigenvalues --  2838.33517********************
           X            0.99988   0.01300   0.00881
           Y           -0.01242   0.99792  -0.06318
           Z           -0.00961   0.06307   0.99796
 This molecule is an asymmetric top.
 Rotational symmetry number  1.
 Warning -- assumption of classical behavior for rotation
           may cause significant error
 Rotational temperatures (Kelvin)      0.03052     0.00759     0.00740
 Rotational constants (GHZ):           0.63584     0.15823     0.15427
 Zero-point vibrational energy     770336.0 (Joules/Mol)
                                  184.11472 (Kcal/Mol)
 Warning -- explicit consideration of  27 degrees of freedom as
           vibrations may cause significant error
 Vibrational temperatures:     26.78    34.42    69.25    93.43   129.21
          (Kelvin)            172.49   205.23   261.46   287.29   295.73
                              315.95   359.39   369.85   410.51   456.25
                              463.25   487.69   516.37   569.16   621.72
                              637.20   691.93   718.16   737.69   803.54
                              808.72   842.09   929.38   947.03  1012.65
                             1026.10  1041.09  1049.88  1054.34  1086.99
                             1161.99  1200.98  1232.40  1245.51  1274.88
                             1308.52  1309.85  1376.71  1386.10  1415.94
                             1477.86  1518.40  1530.45  1574.06  1578.33
                             1612.55  1623.43  1627.83  1635.44  1667.06
                             1672.47  1678.96  1773.91  1810.08  1816.92
                             1831.51  1840.60  1878.57  1908.00  1942.03
                             1948.36  1985.79  1986.52  1992.76  2005.71
                             2016.01  2028.64  2054.79  2077.51  2115.11
                             2128.13  2153.12  2178.88  2182.23  2187.47
                             2191.04  2202.23  2207.65  2220.47  2333.03
                             4314.12  4356.28  4356.82  4366.01  4381.76
                             4413.39  4420.37  4430.63  4436.17  4448.59
                             4463.45  4523.60  4572.56  4644.54  4682.93
                             4706.88  5143.15

 Zero-point correction=                           0.293405 (Hartree/Particle)
 Thermal correction to Energy=                    0.310954
 Thermal correction to Enthalpy=                  0.311898
 Thermal correction to Gibbs Free Energy=         0.246023
 Sum of electronic and zero-point Energies=          -1541.242215
 Sum of electronic and thermal Energies=             -1541.224667
 Sum of electronic and thermal Enthalpies=           -1541.223722
 Sum of electronic and thermal Free Energies=        -1541.289597

                     E (Thermal)             CV                S
                      KCal/Mol        Cal/Mol-Kelvin    Cal/Mol-Kelvin
 Total                  195.126             67.841            138.644
 Electronic               0.000              0.000              0.000
 Translational            0.889              2.981             42.943
 Rotational               0.889              2.981             34.292
 Vibrational            193.349             61.879             61.409
 Vibration     1          0.593              1.986              6.777
 Vibration     2          0.593              1.985              6.279
 Vibration     3          0.595              1.978              4.893
 Vibration     4          0.597              1.971              4.301
 Vibration     5          0.602              1.956              3.664
 Vibration     6          0.609              1.933              3.102
 Vibration     7          0.616              1.911              2.768
 Vibration     8          0.630              1.865              2.311
 Vibration     9          0.638              1.840              2.136
 Vibration    10          0.640              1.832              2.083
 Vibration    11          0.647              1.811              1.962
 Vibration    12          0.663              1.763              1.732
 Vibration    13          0.667              1.751              1.682
 Vibration    14          0.683              1.701              1.502
 Vibration    15          0.704              1.641              1.325
 Vibration    16          0.707              1.631              1.300
 Vibration    17          0.719              1.598              1.217
 Vibration    18          0.734              1.557              1.127
 Vibration    19          0.762              1.480              0.979
 Vibration    20          0.793              1.400              0.852
 Vibration    21          0.803              1.377              0.818
 Vibration    22          0.837              1.292              0.708
 Vibration    23          0.855              1.252              0.660
 Vibration    24          0.868              1.222              0.627
 Vibration    25          0.914              1.121              0.527
 Vibration    26          0.918              1.113              0.520
 Vibration    27          0.942              1.063              0.476

                           ! Non-Optimized Parameters !
 Normal termination of Gaussian 16 at Mon Dec 14 14:18:02 2020.

 ----------------------------------------------------------------------
 # B3LYP/6-311++G(d,p) empiricaldispersion=gd3bj scf=xqc pop=npa geom=c
 heck
 ----------------------------------------------------------------------

 ---------------------------------------
 CID_110885255_JID_9831_Energie_neutraal
 ---------------------------------------
 Structure from the checkpoint file:  "JID_9831.chk"
 Charge =  0 Multiplicity = 1

 SCF Done:  E(RB3LYP) =  -1541.79150743     A.U. after   16 cycles
 Normal termination of Gaussian 16 at Mon Dec 14 14:27:27 2020.

 ----------------------------------------------------------------------
 # B3LYP/6-311++G(d,p) empiricaldispersion=gd3bj scf=xqc pop=npa geom=c
 heck
 ----------------------------------------------------------------------

 -------------------------------------
 CID_110885255_JID_9831_Energie_kation
 -------------------------------------
 Structure from the checkpoint file:  "JID_9831.chk"
 Charge =  1 Multiplicity = 2

 SCF Done:  E(UB3LYP) =  -1541.50257503     A.U. after   27 cycles
 Normal termination of Gaussian 16 at Mon Dec 14 14:50:13 2020.
 Gaussian 16:  ES64L-G16RevA.03 25-Dec-2016

 ----------------------------------------------------------------------
 # B3LYP/6-311++G(d,p) empiricaldispersion=gd3bj scf=xqc pop=npa geom=c
 heck
 ----------------------------------------------------------------------

 ------------------------------------
 CID_110885255_JID_9831_Energie_anion
 ------------------------------------
 Structure from the checkpoint file:  "JID_9831.chk"
 Charge = -1 Multiplicity = 2

                         Standard orientation:
 ---------------------------------------------------------------------
 Center     Atomic      Atomic             Coordinates (Angstroms)
 Number     Number       Type             X           Y           Z
 ---------------------------------------------------------------------
      1          6           0        0.904354    2.286960   -0.386145
      2          7           0        0.806017    1.054694    0.378045
      3          6           0        1.736920    0.048651    0.504030
      4          7           0        1.232816   -0.940708    1.229829
      5          7           0       -0.027476   -0.578769    1.606929
      6          6           0       -0.288571    0.611470    1.093899
      7         16           0       -1.788112    1.495894    1.312251
      8          6           0       -2.975248    0.534394    0.238496
      9          6           0       -2.983423    1.036881   -1.208181
     10          6           0       -4.084527    0.333072   -2.016806
     11          6           0       -3.944073   -1.192329   -1.941641
     12          6           0       -3.889183   -1.677461   -0.488186
     13          6           0       -2.766310   -0.993465    0.298925
     14          8           0       -2.762191   -1.495189    1.613513
     15          6           0        3.063580    0.020561   -0.073356
     16          6           0        3.848509    1.025527   -0.598652
     17          6           0        5.117008    0.562513   -1.049779
     18          6           0        5.282933   -0.783161   -0.862233
     19         16           0        3.898189   -1.517400   -0.128155
     20          1           0        1.548053    3.010600    0.122869
     21          1           0        1.310393    2.071140   -1.377002
     22          1           0       -0.097819    2.706405   -0.478468
     23          1           0       -3.931473    0.762301    0.724975
     24          1           0       -2.002526    0.830484   -1.660352
     25          1           0       -3.122622    2.123304   -1.229907
     26          1           0       -4.055418    0.673359   -3.059063
     27          1           0       -5.064467    0.628592   -1.616025
     28          1           0       -3.022437   -1.495166   -2.459090
     29          1           0       -4.772954   -1.676687   -2.471278
     30          1           0       -3.726496   -2.759291   -0.437939
     31          1           0       -4.842338   -1.475030    0.018924
     32          1           0       -1.812973   -1.218800   -0.204627
     33          1           0       -1.847399   -1.386836    1.946564
     34          1           0        3.550325    2.064665   -0.641272
     35          1           0        5.870492    1.206711   -1.488251
     36          1           0        6.144636   -1.388344   -1.109553
 ---------------------------------------------------------------------

 SCF Done:  E(UB3LYP) =  -1541.79994807     A.U. after   29 cycles

 The electronic state is 2-A.
 Alpha  occ. eigenvalues --  -88.74507 -88.73566 -19.00115 -14.25428 -14.21093
 Alpha  occ. eigenvalues --  -14.19201 -10.12822 -10.11957 -10.11391 -10.10812
 Alpha  occ. eigenvalues --  -10.10182 -10.08179 -10.08152 -10.08046 -10.07308
 Alpha  occ. eigenvalues --  -10.06961 -10.05828 -10.05046 -10.04297  -7.83092
 Alpha  occ. eigenvalues --   -7.82208  -5.79497  -5.79109  -5.78513  -5.78471
 Alpha  occ. eigenvalues --   -5.78139  -5.77814  -0.94295  -0.91103  -0.81078
 Alpha  occ. eigenvalues --   -0.75452  -0.74632  -0.71225  -0.67119  -0.64609
 Alpha  occ. eigenvalues --   -0.62792  -0.61079  -0.60662  -0.58992  -0.52110
 Alpha  occ. eigenvalues --   -0.51360  -0.50455  -0.47890  -0.45943  -0.43562
 Alpha  occ. eigenvalues --   -0.42941  -0.41370  -0.39655  -0.38352  -0.37538
 Alpha  occ. eigenvalues --   -0.36984  -0.36066  -0.35516  -0.32750  -0.32308
 Alpha  occ. eigenvalues --   -0.31367  -0.30914  -0.30202  -0.29407  -0.28608
 Alpha  occ. eigenvalues --   -0.27017  -0.26989  -0.26163  -0.25645  -0.25385
 Alpha  occ. eigenvalues --   -0.24604  -0.23464  -0.23000  -0.21696  -0.21295
 Alpha  occ. eigenvalues --   -0.19842  -0.18042  -0.16992  -0.16033  -0.14624
 Alpha  occ. eigenvalues --   -0.13596  -0.12998  -0.09663   0.03885
 Alpha virt. eigenvalues --    0.05674   0.07335   0.07653   0.08019   0.08737
 Alpha virt. eigenvalues --    0.09031   0.09854   0.10482   0.10671   0.10807
 Alpha virt. eigenvalues --    0.11282   0.11462   0.12485   0.12728   0.13120

  Beta  occ. eigenvalues --  -88.74505 -88.73504 -19.00112 -14.25163 -14.21173
  Beta  occ. eigenvalues --  -14.19100 -10.12690 -10.11958 -10.11404 -10.10672
  Beta  occ. eigenvalues --  -10.10103 -10.08165 -10.08143 -10.08041 -10.07305
  Beta  occ. eigenvalues --  -10.06801 -10.05493 -10.05138 -10.04086  -7.83088
  Beta  occ. eigenvalues --   -7.82152  -5.79486  -5.79114  -5.78485  -5.78466
  Beta  occ. eigenvalues --   -5.78113  -5.77608  -0.94083  -0.91094  -0.80781
  Beta  occ. eigenvalues --   -0.75132  -0.74548  -0.71006  -0.66988  -0.64572
  Beta  occ. eigenvalues --   -0.62673  -0.60886  -0.60218  -0.58833  -0.52019
  Beta  occ. eigenvalues --   -0.51318  -0.50084  -0.47804  -0.45829  -0.43292
  Beta  occ. eigenvalues --   -0.42614  -0.41323  -0.39457  -0.38134  -0.37195
  Beta  occ. eigenvalues --   -0.36844  -0.36025  -0.35458  -0.32681  -0.32250
  Beta  occ. eigenvalues --   -0.31221  -0.30676  -0.30137  -0.29260  -0.28547
  Beta  occ. eigenvalues --   -0.26840  -0.26817  -0.26065  -0.25278  -0.24781
  Beta  occ. eigenvalues --   -0.24573  -0.23435  -0.22866  -0.21496  -0.21117
  Beta  occ. eigenvalues --   -0.19771  -0.17297  -0.16479  -0.15671  -0.14355
  Beta  occ. eigenvalues --   -0.13331  -0.12007  -0.08465
  Beta virt. eigenvalues --    0.05883   0.07287   0.07683   0.08051   0.08619
  Beta virt. eigenvalues --    0.08907   0.09443   0.09917   0.10545   0.10567
  Beta virt. eigenvalues --    0.10861   0.11357   0.11448   0.12578   0.12663

 Mulliken charges and spin densities:
               1          2
     1  C   -0.391833  -0.001692
     2  N    0.250162   0.072111
     3  C   -0.579513   0.060553
     4  N    0.045523   0.050549
     5  N   -0.136009  -0.047125
     6  C    0.055973   0.183456
     7  S   -0.163106  -0.017083
     8  C    0.889903  -0.123076
     9  C   -0.600031   0.188851
    10  C    0.071872  -0.574866
    11  C   -0.335221  -0.042760
    12  C   -0.370869  -0.016006
    13  C   -0.897514  -0.034951
    14  O   -0.192020   0.001461
    15  C   -0.755229   0.064554
    16  C    1.357479   0.199544
    17  C   -1.047268  -0.058752
    18  C    0.294050   0.231508
    19  S   -0.590094   0.095315
    20  H    0.165503   0.006952
    21  H    0.152919   0.007666
    22  H    0.086607   0.017933
    23  H    0.172160   0.102049
    24  H    0.206641  -0.055505
    25  H   -0.013367   0.169781
    26  H   -0.165180   0.333106
    27  H    0.064780   0.057468
    28  H    0.110370   0.003432
    29  H    0.046331   0.125522
    30  H    0.163250   0.005551
    31  H    0.121135   0.029642
    32  H    0.258913  -0.011064
    33  H    0.330845  -0.000185
    34  H    0.101286  -0.011479
    35  H    0.091828   0.003849
    36  H    0.199724  -0.016309
 Sum of Mulliken charges =  -1.00000   1.00000

 Dipole moment (field-independent basis, Debye):
    X=             -2.6154    Y=              3.3592    Z=             -3.0575  Tot=              5.2414
 Quadrupole moment (field-independent basis, Debye-Ang):
   XX=           -197.3247   YY=           -145.8641   ZZ=           -157.2980
   XY=              6.6812   XZ=             -0.0966   YZ=              5.0799

 Summary of Natural Population Analysis:

                                       Natural Population
                Natural  -----------------------------------------------
    Atom  No    Charge         Core      Valence    Rydberg      Total
 -----------------------------------------------------------------------
      C    1   -0.18038      0.99966     2.17470    0.00602     3.18038
      N    2   -0.18147      0.99955     2.67033    0.01158     3.68147
      C    3    0.19413      0.99954     1.79152    0.01481     2.80587
      N    4   -0.14712      0.99969     2.63448    0.01295     3.64712
      N    5   -0.20258      0.99964     2.68738    0.01557     3.70258
      C    6    0.11085      0.99955     1.86881    0.02079     2.88915
      S    7    0.10820      4.99952     2.87158    0.02070     7.89180
      C    8   -0.15420      0.99951     2.13932    0.01537     3.15420
      C    9   -0.20046      0.99959     2.18905    0.01181     3.20046
      C   10   -0.18987      0.99963     2.18151    0.00874     3.18987
      C   11   -0.19290      0.99963     2.18384    0.00942     3.19290
      C   12   -0.19176      0.99961     2.18355    0.00861     3.19176
      C   13    0.05181      0.99948     1.93040    0.01831     2.94819
      O   14   -0.38548      0.99988     3.37903    0.00657     4.38548
      C   15   -0.10182      0.99940     2.08965    0.01277     3.10182
      C   16   -0.08309      0.99942     2.07458    0.00909     3.08309
      C   17   -0.17165      0.99960     2.15931    0.01273     3.17165
      C   18   -0.12914      0.99945     2.11648    0.01321     3.12914
      S   19    0.23397      4.99945     2.74479    0.02180     7.76603
      H   20    0.09529      0.00000     0.40365    0.00107     0.40471
      H   21    0.10293      0.00000     0.39581    0.00125     0.39707
      H   22    0.10717      0.00000     0.39142    0.00140     0.39283
      H   23    0.10137      0.00000     0.39713    0.00150     0.39863
      H   24    0.09735      0.00000     0.40117    0.00149     0.40265
      H   25    0.10262      0.00000     0.39602    0.00135     0.39738
      H   26    0.09941      0.00000     0.39951    0.00108     0.40059
      H   27    0.09269      0.00000     0.40621    0.00110     0.40731
      H   28    0.09478      0.00000     0.40416    0.00107     0.40522
      H   29    0.09737      0.00000     0.40178    0.00084     0.40263
      H   30    0.10349      0.00000     0.39541    0.00111     0.39651
      H   31    0.09486      0.00000     0.40377    0.00137     0.40514
      H   32    0.08406      0.00000     0.41319    0.00276     0.41594
      H   33    0.25191      0.00000     0.24529    0.00280     0.24809
      H   34    0.09496      0.00000     0.40375    0.00129     0.40504
      H   35    0.09686      0.00000     0.40194    0.00120     0.40314
      H   36    0.09595      0.00000     0.40265    0.00140     0.40405
 =======================================================================
   * Total *    0.00009     26.99181    50.73317    0.27493    77.99991

 Normal termination of Gaussian 16 at Mon Dec 14 15:13:31 2020.
