 Gaussian 16, Revision A.03,

 -----------------------------------------------------------
 # opt freq B3LYP/6-31G(d) empiricaldispersion=gd3bj scf=xqc
 -----------------------------------------------------------

 -------------------------------
 CID_117270562_JID_5758_neutraal
 -------------------------------
 Symbolic Z-matrix:
 Charge =  0 Multiplicity = 1

 SCF Done:  E(RB3LYP) =  -676.346180206     A.U. after   13 cycles
 SCF Done:  E(RB3LYP) =  -676.350108876     A.U. after   11 cycles
 SCF Done:  E(RB3LYP) =  -676.350521575     A.U. after   10 cycles
 SCF Done:  E(RB3LYP) =  -676.350692300     A.U. after   10 cycles
 SCF Done:  E(RB3LYP) =  -676.350812446     A.U. after   10 cycles
 SCF Done:  E(RB3LYP) =  -676.350928538     A.U. after   10 cycles
 SCF Done:  E(RB3LYP) =  -676.351004469     A.U. after   10 cycles
 SCF Done:  E(RB3LYP) =  -676.351035033     A.U. after   10 cycles
 SCF Done:  E(RB3LYP) =  -676.351069292     A.U. after   10 cycles
 SCF Done:  E(RB3LYP) =  -676.351143061     A.U. after   11 cycles
 SCF Done:  E(RB3LYP) =  -676.351924091     A.U. after   10 cycles
 SCF Done:  E(RB3LYP) =  -676.351944909     A.U. after   10 cycles
 SCF Done:  E(RB3LYP) =  -676.351943490     A.U. after    8 cycles
 SCF Done:  E(RB3LYP) =  -676.351945557     A.U. after    9 cycles
 SCF Done:  E(RB3LYP) =  -676.351945508     A.U. after    7 cycles
 SCF Done:  E(RB3LYP) =  -676.351945600     A.U. after    7 cycles
 Optimization completed.
    -- Stationary point found.
 Normal termination of Gaussian 16 at Thu Dec 10 17:07:57 2020.

 --------------------------------------------------------------------
 #N Geom=AllCheck Guess=TCheck SCRF=Check GenChk RB3LYP/6-31G(d) Freq
 --------------------------------------------------------------------

 Structure from the checkpoint file:  "JID_5758.chk"
 -------------------------------
 CID_117270562_JID_5758_neutraal
 -------------------------------
 Charge =  0 Multiplicity = 1

 SCF Done:  E(RB3LYP) =  -676.351945600     A.U. after    1 cycles

  Exact polarizability: 148.326   0.686 139.657  -1.957   3.837 114.268
 Approx polarizability: 183.731  -1.195 190.317  -2.890   2.662 174.368

                      1                      2                      3
                      A                      A                      A
 Frequencies --     23.7491                38.2057                54.9010
 Red. masses --      3.5284                 3.6083                 2.7702
 Frc consts  --      0.0012                 0.0031                 0.0049
 IR Inten    --      0.1548                 0.2325                 1.1366

                      4                      5                      6
                      A                      A                      A
 Frequencies --     61.8317                93.0116               117.4375
 Red. masses --      3.0887                 3.0333                 2.1404
 Frc consts  --      0.0070                 0.0155                 0.0174
 IR Inten    --      0.4602                 1.2476                 2.9079

                      7                      8                      9
                      A                      A                      A
 Frequencies --    136.9218               165.2508               207.3106
 Red. masses --      2.3258                 2.2420                 2.1326
 Frc consts  --      0.0257                 0.0361                 0.0540
 IR Inten    --      0.3307                 0.6595                 0.5523

                     10                     11                     12
                      A                      A                      A
 Frequencies --    218.5348               254.6945               268.3668
 Red. masses --      1.7207                 2.5595                 3.0279
 Frc consts  --      0.0484                 0.0978                 0.1285
 IR Inten    --      0.7669                 0.9792                10.4652

                     13                     14                     15
                      A                      A                      A
 Frequencies --    296.0590               338.8991               372.7268
 Red. masses --      2.8113                 2.6664                 2.3435
 Frc consts  --      0.1452                 0.1804                 0.1918
 IR Inten    --      2.5291                 1.9184                 5.4832

                     16                     17                     18
                      A                      A                      A
 Frequencies --    424.2198               427.4285               440.2951
 Red. masses --      1.7711                 2.5676                 2.0278
 Frc consts  --      0.1878                 0.2764                 0.2316
 IR Inten    --      0.4105                 3.3910                 7.2731

                     19                     20                     21
                      A                      A                      A
 Frequencies --    493.5051               504.8413               540.9390
 Red. masses --      4.0283                 3.6047                 2.9693
 Frc consts  --      0.5780                 0.5413                 0.5119
 IR Inten    --      1.9732                 7.7742                15.9124

                     22                     23                     24
                      A                      A                      A
 Frequencies --    624.1619               639.4059               685.4907
 Red. masses --      2.4611                 2.3404                 3.1227
 Frc consts  --      0.5649                 0.5638                 0.8645
 IR Inten    --     38.4560                 3.1048                 3.6384

                     25                     26                     27
                      A                      A                      A
 Frequencies --    796.2530               799.1767               833.6981
 Red. masses --      1.6890                 1.9983                 2.2864
 Frc consts  --      0.6309                 0.7520                 0.9363
 IR Inten    --      4.6210                 4.3402                26.8987

                     28                     29                     30
                      A                      A                      A
 Frequencies --    844.2134               863.0665               864.6915
 Red. masses --      2.2730                 2.7318                 1.9428
 Frc consts  --      0.9545                 1.1989                 0.8558
 IR Inten    --     28.4814                 3.6860                 2.3222

                     31                     32                     33
                      A                      A                      A
 Frequencies --    897.6310               909.1560               931.2916
 Red. masses --      1.7926                 2.2043                 1.9926
 Frc consts  --      0.8510                 1.0735                 1.0182
 IR Inten    --      5.9395                 6.4531                 6.2554

                     34                     35                     36
                      A                      A                      A
 Frequencies --    955.3256               967.1749               990.5953
 Red. masses --      3.5604                 1.9923                 1.8326
 Frc consts  --      1.9145                 1.0980                 1.0595
 IR Inten    --     23.4729                 4.4697                 7.2692

                     37                     38                     39
                      A                      A                      A
 Frequencies --   1007.0615              1026.9849              1038.6567
 Red. masses --      2.5023                 1.4143                 2.4117
 Frc consts  --      1.4952                 0.8789                 1.5329
 IR Inten    --      2.6848                 1.7966                 6.2457

                     40                     41                     42
                      A                      A                      A
 Frequencies --   1050.6686              1067.2724              1083.2892
 Red. masses --      1.9762                 2.1571                 2.3045
 Frc consts  --      1.2853                 1.4477                 1.5934
 IR Inten    --      9.1472                 2.0939                12.0992

                     43                     44                     45
                      A                      A                      A
 Frequencies --   1109.4644              1114.6702              1119.8903
 Red. masses --      1.6417                 2.7646                 3.0926
 Frc consts  --      1.1906                 2.0238                 2.2852
 IR Inten    --      6.1931                18.1639                77.1460

                     46                     47                     48
                      A                      A                      A
 Frequencies --   1144.7307              1150.2613              1162.7343
 Red. masses --      2.6699                 2.4948                 2.9396
 Frc consts  --      2.0613                 1.9448                 2.3415
 IR Inten    --    114.5865                10.3450                13.4830

                     49                     50                     51
                      A                      A                      A
 Frequencies --   1169.3143              1190.9056              1211.7169
 Red. masses --      2.2396                 1.3269                 1.4800
 Frc consts  --      1.8042                 1.1088                 1.2803
 IR Inten    --      7.6850                 4.1161                25.6330

                     52                     53                     54
                      A                      A                      A
 Frequencies --   1215.4328              1231.4457              1241.7205
 Red. masses --      1.4222                 1.3357                 1.5500
 Frc consts  --      1.2379                 1.1934                 1.4081
 IR Inten    --     24.3293                15.9515                 9.3070

                     55                     56                     57
                      A                      A                      A
 Frequencies --   1252.0879              1274.7121              1287.9576
 Red. masses --      1.4011                 1.2359                 1.2196
 Frc consts  --      1.2941                 1.1832                 1.1920
 IR Inten    --     26.2434                 7.6795                 5.4637

                     58                     59                     60
                      A                      A                      A
 Frequencies --   1306.4331              1316.5669              1324.0351
 Red. masses --      1.1504                 1.2953                 1.2480
 Frc consts  --      1.1569                 1.3229                 1.2890
 IR Inten    --      4.1563                 3.3380                12.2119

                     61                     62                     63
                      A                      A                      A
 Frequencies --   1329.4174              1342.7162              1367.5943
 Red. masses --      1.2196                 1.2831                 1.3008
 Frc consts  --      1.2700                 1.3629                 1.4334
 IR Inten    --      0.7519                 1.5032                 0.8433

                     64                     65                     66
                      A                      A                      A
 Frequencies --   1368.4550              1378.0298              1380.0636
 Red. masses --      1.2625                 1.4232                 1.3265
 Frc consts  --      1.3930                 1.5923                 1.4885
 IR Inten    --      1.9352                 5.5025                17.3519

                     67                     68                     69
                      A                      A                      A
 Frequencies --   1382.9889              1399.8428              1408.1477
 Red. masses --      1.3050                 1.5250                 1.3879
 Frc consts  --      1.4707                 1.7607                 1.6215
 IR Inten    --      0.9309                23.4928                11.2990

                     70                     71                     72
                      A                      A                      A
 Frequencies --   1409.9429              1427.8274              1433.4946
 Red. masses --      1.4094                 1.2986                 1.3266
 Frc consts  --      1.6507                 1.5598                 1.6062
 IR Inten    --      3.4917                15.4225                 8.4396

                     73                     74                     75
                      A                      A                      A
 Frequencies --   1435.0428              1464.6974              1500.0381
 Red. masses --      1.5014                 1.4372                 1.1200
 Frc consts  --      1.8217                 1.8167                 1.4848
 IR Inten    --      3.7243                14.7959                 0.5845

                     76                     77                     78
                      A                      A                      A
 Frequencies --   1505.2896              1516.3898              1517.4397
 Red. masses --      1.0925                 1.0783                 1.0749
 Frc consts  --      1.4585                 1.4609                 1.4583
 IR Inten    --      4.4986                 1.1034                 1.8694

                     79                     80                     81
                      A                      A                      A
 Frequencies --   1521.8624              1525.8402              1527.0463
 Red. masses --      1.0897                 1.0890                 1.0904
 Frc consts  --      1.4870                 1.4938                 1.4981
 IR Inten    --      1.0049                 4.5322                 3.2155

                     82                     83                     84
                      A                      A                      A
 Frequencies --   1531.1912              1539.9446              1542.3520
 Red. masses --      1.0872                 1.0566                 1.0946
 Frc consts  --      1.5018                 1.4763                 1.5342
 IR Inten    --      2.2998                 6.4209                 5.7988

                     85                     86                     87
                      A                      A                      A
 Frequencies --   1551.1476              2934.9245              2958.8407
 Red. masses --      1.0940                 1.0729                 1.0835
 Frc consts  --      1.5509                 5.4452                 5.5890
 IR Inten    --      3.1818                63.8775                61.7385

                     88                     89                     90
                      A                      A                      A
 Frequencies --   2960.6663              2982.7312              2994.3018
 Red. masses --      1.0705                 1.0731                 1.0416
 Frc consts  --      5.5285                 5.6248                 5.5025
 IR Inten    --     74.5008                71.5336                54.7545

                     91                     92                     93
                      A                      A                      A
 Frequencies --   3030.3978              3034.0021              3045.5614
 Red. masses --      1.0620                 1.0886                 1.0639
 Frc consts  --      5.7459                 5.9041                 5.8144
 IR Inten    --     31.9504                57.9328                45.4637

                     94                     95                     96
                      A                      A                      A
 Frequencies --   3046.7571              3050.3267              3051.6154
 Red. masses --      1.0631                 1.0843                 1.0951
 Frc consts  --      5.8141                 5.9442                 6.0087
 IR Inten    --     38.9503                20.5488                43.2229

                     97                     98                     99
                      A                      A                      A
 Frequencies --   3067.4288              3070.4068              3077.9976
 Red. masses --      1.0665                 1.0937                 1.0940
 Frc consts  --      5.9123                 6.0750                 6.1068
 IR Inten    --     33.0128                 9.7678                68.8117

                    100                    101                    102
                      A                      A                      A
 Frequencies --   3083.6317              3086.6665              3087.7158
 Red. masses --      1.0999                 1.0922                 1.0984
 Frc consts  --      6.1618                 6.1310                 6.1700
 IR Inten    --     25.4324                46.0296                38.0518

                    103                    104                    105
                      A                      A                      A
 Frequencies --   3093.4297              3110.4635              3116.1526
 Red. masses --      1.0644                 1.0974                 1.0994
 Frc consts  --      6.0012                 6.2555                 6.2901
 IR Inten    --     20.4236                40.1534                68.4581

                    106                    107                    108
                      A                      A                      A
 Frequencies --   3132.0947              3134.5098              3496.9341
 Red. masses --      1.0975                 1.1029                 1.0746
 Frc consts  --      6.3435                 6.3845                 7.7421
 IR Inten    --     36.3057                28.0420                 3.3231

 - Thermochemistry -
 -------------------
 Temperature   298.150 Kelvin.  Pressure   1.00000 Atm.
 Atom     1 has atomic number  6 and mass  12.00000

 Molecular mass:   213.17288 amu.
 Principal axes and moments of inertia in atomic units:
                           1         2         3
     Eigenvalues --  1996.535685416.182636421.68164
           X            1.00000  -0.00268   0.00034
           Y            0.00267   0.99946   0.03272
           Z           -0.00043  -0.03271   0.99946
 This molecule is an asymmetric top.
 Rotational symmetry number  1.
 Warning -- assumption of classical behavior for rotation
           may cause significant error
 Rotational temperatures (Kelvin)      0.04338     0.01599     0.01349
 Rotational constants (GHZ):           0.90394     0.33321     0.28104
 Zero-point vibrational energy     915937.7 (Joules/Mol)
                                  218.91438 (Kcal/Mol)
 Warning -- explicit consideration of  21 degrees of freedom as
           vibrations may cause significant error
 Vibrational temperatures:     34.17    54.97    78.99    88.96   133.82
          (Kelvin)            168.97   197.00   237.76   298.27   314.42
                              366.45   386.12   425.96   487.60   536.27
                              610.36   614.97   633.49   710.04   726.35
                              778.29   898.03   919.96   986.27  1145.63
                             1149.84  1199.51  1214.63  1241.76  1244.10
                             1291.49  1308.07  1339.92  1374.50  1391.55
                             1425.25  1448.94  1477.60  1494.40  1511.68
                             1535.57  1558.61  1596.27  1603.76  1611.27
                             1647.01  1654.97  1672.92  1682.38  1713.45
                             1743.39  1748.74  1771.78  1786.56  1801.48
                             1834.03  1853.08  1879.67  1894.25  1904.99
                             1912.74  1931.87  1967.66  1968.90  1982.68
                             1985.60  1989.81  2014.06  2026.01  2028.59
                             2054.33  2062.48  2064.71  2107.37  2158.22
                             2165.78  2181.75  2183.26  2189.62  2195.34
                             2197.08  2203.04  2215.64  2219.10  2231.76
                             4222.70  4257.11  4259.74  4291.48  4308.13
                             4360.07  4365.25  4381.88  4383.60  4388.74
                             4390.59  4413.35  4417.63  4428.55  4436.66
                             4441.02  4442.53  4450.76  4475.26  4483.45
                             4506.39  4509.86  5031.31

 Zero-point correction=                           0.348862 (Hartree/Particle)
 Thermal correction to Energy=                    0.364201
 Thermal correction to Enthalpy=                  0.365145
 Thermal correction to Gibbs Free Energy=         0.304631
 Sum of electronic and zero-point Energies=           -676.003083
 Sum of electronic and thermal Energies=              -675.987744
 Sum of electronic and thermal Enthalpies=            -675.986800
 Sum of electronic and thermal Free Energies=         -676.047314

                     E (Thermal)             CV                S
                      KCal/Mol        Cal/Mol-Kelvin    Cal/Mol-Kelvin
 Total                  228.540             58.314            127.363
 Electronic               0.000              0.000              0.000
 Translational            0.889              2.981             41.974
 Rotational               0.889              2.981             32.607
 Vibrational            226.762             52.353             52.781
 Vibration     1          0.593              1.985              6.293
 Vibration     2          0.594              1.982              5.350
 Vibration     3          0.596              1.976              4.633
 Vibration     4          0.597              1.973              4.398
 Vibration     5          0.602              1.954              3.596
 Vibration     6          0.608              1.935              3.142
 Vibration     7          0.614              1.916              2.846
 Vibration     8          0.624              1.885              2.489
 Vibration     9          0.641              1.829              2.067
 Vibration    10          0.646              1.813              1.971
 Vibration    11          0.665              1.755              1.698
 Vibration    12          0.673              1.731              1.607
 Vibration    13          0.690              1.681              1.439
 Vibration    14          0.719              1.598              1.217
 Vibration    15          0.744              1.528              1.069
 Vibration    16          0.786              1.418              0.878
 Vibration    17          0.789              1.411              0.867
 Vibration    18          0.800              1.382              0.826
 Vibration    19          0.849              1.264              0.675
 Vibration    20          0.860              1.239              0.646
 Vibration    21          0.896              1.160              0.563

 Optimization completed.
    -- Stationary point found.
 Normal termination of Gaussian 16 at Thu Dec 10 17:20:36 2020.

 ----------------------------------------------------------------------
 # B3LYP/6-311++G(d,p) empiricaldispersion=gd3bj scf=xqc pop=npa geom=c
 heck
 ----------------------------------------------------------------------

 ---------------------------------------
 CID_117270562_JID_5758_Energie_neutraal
 ---------------------------------------
 Structure from the checkpoint file:  "JID_5758.chk"
 Charge =  0 Multiplicity = 1

 SCF Done:  E(RB3LYP) =  -676.545528912     A.U. after   14 cycles
 Normal termination of Gaussian 16 at Thu Dec 10 17:26:17 2020.

 ----------------------------------------------------------------------
 # B3LYP/6-311++G(d,p) empiricaldispersion=gd3bj scf=xqc pop=npa geom=c
 heck
 ----------------------------------------------------------------------

 -------------------------------------
 CID_117270562_JID_5758_Energie_kation
 -------------------------------------
 Structure from the checkpoint file:  "JID_5758.chk"
 Charge =  1 Multiplicity = 2

 SCF Done:  E(UB3LYP) =  -676.255387595     A.U. after   22 cycles
 Normal termination of Gaussian 16 at Thu Dec 10 17:37:41 2020.
 Gaussian 16:  ES64L-G16RevA.03 25-Dec-2016

 ----------------------------------------------------------------------
 # B3LYP/6-311++G(d,p) empiricaldispersion=gd3bj scf=xqc pop=npa geom=c
 heck
 ----------------------------------------------------------------------

 ------------------------------------
 CID_117270562_JID_5758_Energie_anion
 ------------------------------------
 Structure from the checkpoint file:  "JID_5758.chk"
 Charge = -1 Multiplicity = 2

                         Standard orientation:
 ---------------------------------------------------------------------
 Center     Atomic      Atomic             Coordinates (Angstroms)
 Number     Number       Type             X           Y           Z
 ---------------------------------------------------------------------
      1          6           0       -3.670754    2.327215    0.294886
      2          8           0       -3.304908    1.431635   -0.734521
      3          6           0       -3.321470    0.070050   -0.344920
      4          6           0       -2.227465   -0.326800    0.661460
      5          6           0       -0.812872    0.026705    0.139930
      6          6           0       -0.048483   -1.316254    0.074259
      7          6           0       -1.190133   -2.333647   -0.044476
      8          7           0       -2.190871   -1.788446    0.874152
      9          6           0        0.981159   -1.438738   -1.050862
     10          6           0        2.244708   -0.590108   -0.907031
     11          6           0        3.050622   -0.866985    0.392365
     12          6           0        2.840434    0.256088    1.414276
     13          6           0        3.271397    1.610091    0.820279
     14          6           0        2.919903    1.660976   -0.682666
     15          8           0        1.848628    0.781329   -0.990919
     16          1           0       -3.770051    3.314558   -0.164004
     17          1           0       -2.915177    2.385421    1.091565
     18          1           0       -4.634749    2.047373    0.750308
     19          1           0       -4.313742   -0.193774    0.064890
     20          1           0       -3.177087   -0.498175   -1.271011
     21          1           0       -2.430987    0.160040    1.623478
     22          1           0       -0.878589    0.481025   -0.852984
     23          1           0       -0.306381    0.757657    0.773368
     24          1           0        0.437752   -1.495324    1.040976
     25          1           0       -1.525758   -2.392308   -1.097751
     26          1           0       -0.893156   -3.342795    0.264400
     27          1           0       -3.107293   -2.214875    0.751604
     28          1           0        1.303831   -2.486401   -1.133153
     29          1           0        0.503537   -1.179183   -2.004736
     30          1           0        2.892753   -0.806923   -1.774008
     31          1           0        4.119963   -0.939636    0.156397
     32          1           0        2.760215   -1.835670    0.814801
     33          1           0        1.782253    0.299955    1.690041
     34          1           0        3.398091    0.046490    2.333807
     35          1           0        2.775445    2.425179    1.359020
     36          1           0        4.351872    1.756002    0.945798
     37          1           0        2.593139    2.658611   -0.988294
     38          1           0        3.798180    1.396588   -1.295067
 ---------------------------------------------------------------------

 SCF Done:  E(UB3LYP) =  -676.530903461     A.U. after   30 cycles

 The electronic state is 2-A.
 Alpha  occ. eigenvalues --  -19.03305 -19.02176 -14.20095 -10.12223 -10.11931
 Alpha  occ. eigenvalues --  -10.11792 -10.11640 -10.09686 -10.09356 -10.07336
 Alpha  occ. eigenvalues --  -10.07008 -10.06880 -10.06858 -10.06795 -10.05832
 Alpha  occ. eigenvalues --   -0.94504  -0.93879  -0.82349  -0.70861  -0.69506
 Alpha  occ. eigenvalues --   -0.65982  -0.65713  -0.61114  -0.58941  -0.55026
 Alpha  occ. eigenvalues --   -0.54369  -0.51723  -0.47693  -0.46830  -0.43858
 Alpha  occ. eigenvalues --   -0.41672  -0.40551  -0.39605  -0.38983  -0.38445
 Alpha  occ. eigenvalues --   -0.38167  -0.36605  -0.35349  -0.33449  -0.32079
 Alpha  occ. eigenvalues --   -0.31609  -0.30074  -0.29706  -0.28784  -0.28592
 Alpha  occ. eigenvalues --   -0.27471  -0.27430  -0.26116  -0.25855  -0.24927
 Alpha  occ. eigenvalues --   -0.23730  -0.23391  -0.22326  -0.21921  -0.21726
 Alpha  occ. eigenvalues --   -0.19737  -0.17692  -0.15590  -0.12655   0.04235
 Alpha virt. eigenvalues --    0.05791   0.06570   0.07387   0.07759   0.08019
 Alpha virt. eigenvalues --    0.08752   0.09224   0.09750   0.09827   0.10332
 Alpha virt. eigenvalues --    0.10813   0.11479   0.11619   0.12204   0.12372

  Beta  occ. eigenvalues --  -19.03299 -19.02166 -14.20087 -10.12215 -10.11916
  Beta  occ. eigenvalues --  -10.11760 -10.11624 -10.09679 -10.09343 -10.07331
  Beta  occ. eigenvalues --  -10.06999 -10.06864 -10.06840 -10.06772 -10.05826
  Beta  occ. eigenvalues --   -0.94488  -0.93861  -0.82331  -0.70838  -0.69473
  Beta  occ. eigenvalues --   -0.65957  -0.65685  -0.61075  -0.58905  -0.54976
  Beta  occ. eigenvalues --   -0.54322  -0.51690  -0.47655  -0.46801  -0.43803
  Beta  occ. eigenvalues --   -0.41637  -0.40527  -0.39571  -0.38942  -0.38406
  Beta  occ. eigenvalues --   -0.38135  -0.36578  -0.35322  -0.33418  -0.32051
  Beta  occ. eigenvalues --   -0.31584  -0.30048  -0.29683  -0.28760  -0.28565
  Beta  occ. eigenvalues --   -0.27432  -0.27404  -0.26086  -0.25830  -0.24891
  Beta  occ. eigenvalues --   -0.23705  -0.23362  -0.22306  -0.21900  -0.21700
  Beta  occ. eigenvalues --   -0.19710  -0.17669  -0.15540  -0.12640
  Beta virt. eigenvalues --    0.06231   0.06794   0.07145   0.07809   0.08239
  Beta virt. eigenvalues --    0.08574   0.09049   0.09542   0.10003   0.10238
  Beta virt. eigenvalues --    0.10758   0.11184   0.11652   0.11839   0.12434

 Mulliken charges and spin densities:
               1          2
     1  C    0.622954  -0.937986
     2  O   -0.120974   0.032444
     3  C   -0.370534  -0.144730
     4  C   -0.814873   0.534606
     5  C    0.516242  -1.191627
     6  C   -0.617169   1.255544
     7  C    1.048029  -1.600394
     8  N   -0.103821   0.052093
     9  C   -0.765094  -0.100439
    10  C    0.303541  -0.114554
    11  C    0.209229  -0.668063
    12  C   -0.451679   0.223339
    13  C    0.887901  -1.268849
    14  C   -0.010609  -0.213122
    15  O   -0.074739   0.005035
    16  H   -0.034214   0.187872
    17  H   -0.307419   0.445445
    18  H   -0.263701   0.386066
    19  H   -0.174660   0.302896
    20  H    0.099722   0.098320
    21  H   -0.061112   0.298044
    22  H    0.246604   0.002596
    23  H    0.717776  -0.544863
    24  H    0.371677  -0.133627
    25  H    0.044052   0.075097
    26  H   -0.201081   0.363805
    27  H    0.069383   0.155209
    28  H   -0.095114   0.251965
    29  H    0.144640   0.031802
    30  H   -0.209190   0.387203
    31  H   -0.473406   0.659786
    32  H   -0.085438   0.248359
    33  H   -0.373204   0.500873
    34  H   -0.354585   0.530834
    35  H   -0.076691   0.219747
    36  H   -0.146281   0.283499
    37  H   -0.068684   0.231513
    38  H   -0.027477   0.154260
 Sum of Mulliken charges =  -1.00000   1.00000

 Dipole moment (field-independent basis, Debye):
    X=             -1.4335    Y=             -0.7387    Z=             -2.3576  Tot=              2.8564
 Quadrupole moment (field-independent basis, Debye-Ang):
   XX=           -184.6710   YY=           -140.5059   ZZ=           -131.7246
   XY=              6.9562   XZ=              0.8542   YZ=              0.5014

 Summary of Natural Population Analysis:

                                       Natural Population
                Natural  -----------------------------------------------
    Atom  No    Charge         Core      Valence    Rydberg      Total
 -----------------------------------------------------------------------
      C    1   -0.09956      0.99961     2.09031    0.00963     3.09956
      O    2   -0.29808      0.99989     3.28810    0.01009     4.29808
      C    3   -0.01235      0.99955     1.99842    0.01439     3.01235
      C    4   -0.02529      0.99960     2.01304    0.01265     3.02529
      C    5   -0.19302      0.99960     2.18404    0.00938     3.19302
      C    6   -0.11600      0.99958     2.10593    0.01049     3.11600
      C    7   -0.08294      0.99961     2.07209    0.01125     3.08294
      N    8   -0.34071      0.99975     2.82983    0.01112     3.84071
      C    9   -0.19100      0.99958     2.18099    0.01043     3.19100
      C   10    0.07212      0.99955     1.91281    0.01551     2.92788
      C   11   -0.20754      0.99961     2.19894    0.00899     3.20754
      C   12   -0.19125      0.99962     2.18258    0.00904     3.19125
      C   13   -0.20205      0.99963     2.19483    0.00759     3.20205
      C   14   -0.00973      0.99959     1.99760    0.01253     3.00973
      O   15   -0.30587      0.99988     3.29674    0.00925     4.30587
      H   16    0.08918      0.00000     0.40979    0.00102     0.41082
      H   17    0.08140      0.00000     0.41711    0.00149     0.41860
      H   18    0.07814      0.00000     0.42026    0.00160     0.42186
      H   19    0.07685      0.00000     0.42151    0.00164     0.42315
      H   20    0.08795      0.00000     0.41045    0.00160     0.41205
      H   21    0.09179      0.00000     0.40656    0.00165     0.40821
      H   22    0.10593      0.00000     0.39213    0.00194     0.39407
      H   23    0.10639      0.00000     0.39221    0.00140     0.39361
      H   24    0.09901      0.00000     0.39884    0.00215     0.40099
      H   25    0.07587      0.00000     0.42260    0.00154     0.42413
      H   26    0.09493      0.00000     0.40410    0.00098     0.40507
      H   27    0.17368      0.00000     0.32380    0.00253     0.32632
      H   28    0.10008      0.00000     0.39887    0.00105     0.39992
      H   29    0.10016      0.00000     0.39853    0.00131     0.39984
      H   30    0.07969      0.00000     0.41906    0.00125     0.42031
      H   31    0.09939      0.00000     0.39875    0.00186     0.40061
      H   32    0.10282      0.00000     0.39591    0.00128     0.39718
      H   33    0.09769      0.00000     0.40033    0.00199     0.40231
      H   34    0.10105      0.00000     0.39772    0.00123     0.39895
      H   35    0.09769      0.00000     0.40122    0.00109     0.40231
      H   36    0.09676      0.00000     0.40179    0.00145     0.40324
      H   37    0.09078      0.00000     0.40815    0.00106     0.40922
      H   38    0.07604      0.00000     0.42249    0.00147     0.42396
 =======================================================================
   * Total *   -0.00000     14.99466    43.80839    0.19694    59.00000

 Normal termination of Gaussian 16 at Thu Dec 10 17:52:38 2020.
