 Gaussian 16, Revision A.03,

 -----------------------------------------------------------
 # opt freq B3LYP/6-31G(d) empiricaldispersion=gd3bj scf=xqc
 -----------------------------------------------------------

 -------------------------------
 CID_131565297_JID_4580_neutraal
 -------------------------------
 Symbolic Z-matrix:
 Charge =  0 Multiplicity = 1

 SCF Done:  E(RB3LYP) =  -948.916752483     A.U. after   17 cycles
 SCF Done:  E(RB3LYP) =  -948.943347097     A.U. after   14 cycles
 SCF Done:  E(RB3LYP) =  -948.944447913     A.U. after   14 cycles
 SCF Done:  E(RB3LYP) =  -948.946311527     A.U. after   13 cycles
 SCF Done:  E(RB3LYP) =  -948.947160537     A.U. after   13 cycles
 SCF Done:  E(RB3LYP) =  -948.947312787     A.U. after   12 cycles
 SCF Done:  E(RB3LYP) =  -948.947353442     A.U. after   11 cycles
 SCF Done:  E(RB3LYP) =  -948.947364816     A.U. after   10 cycles
 SCF Done:  E(RB3LYP) =  -948.947369133     A.U. after   10 cycles
 SCF Done:  E(RB3LYP) =  -948.947370624     A.U. after    9 cycles
 SCF Done:  E(RB3LYP) =  -948.947371312     A.U. after    9 cycles
 SCF Done:  E(RB3LYP) =  -948.947371513     A.U. after    8 cycles
 Optimization completed.
    -- Stationary point found.
 Normal termination of Gaussian 16 at Thu Dec 10 10:05:13 2020.

 --------------------------------------------------------------------
 #N Geom=AllCheck Guess=TCheck SCRF=Check GenChk RB3LYP/6-31G(d) Freq
 --------------------------------------------------------------------

 Structure from the checkpoint file:  "JID_4580.chk"
 -------------------------------
 CID_131565297_JID_4580_neutraal
 -------------------------------
 Charge =  0 Multiplicity = 1

 SCF Done:  E(RB3LYP) =  -948.947371513     A.U. after    1 cycles

  Exact polarizability: 155.333   5.257 155.549  -5.567   1.052  76.118
 Approx polarizability: 251.705  13.334 295.444 -15.133  -0.139 117.185

                      1                      2                      3
                      A                      A                      A
 Frequencies --     41.1649                91.9958               102.1852
 Red. masses --      5.9541                 6.0939                 4.1780
 Frc consts  --      0.0059                 0.0304                 0.0257
 IR Inten    --      2.9865                 2.6496                 2.3408

                      4                      5                      6
                      A                      A                      A
 Frequencies --    125.5005               147.1779               196.6480
 Red. masses --      7.3750                 5.6344                 3.5965
 Frc consts  --      0.0684                 0.0719                 0.0819
 IR Inten    --      1.6002                 3.1722                 3.9847

                      7                      8                      9
                      A                      A                      A
 Frequencies --    215.0626               233.6770               266.5458
 Red. masses --      3.7157                 6.5833                 1.2464
 Frc consts  --      0.1013                 0.2118                 0.0522
 IR Inten    --      1.1497                 4.0592                79.4446

                     10                     11                     12
                      A                      A                      A
 Frequencies --    306.4172               385.1263               399.6915
 Red. masses --      3.1568                 6.4785                 8.0220
 Frc consts  --      0.1746                 0.5661                 0.7551
 IR Inten    --      7.0696                 8.3595                 2.0476

                     13                     14                     15
                      A                      A                      A
 Frequencies --    428.4230               500.4782               532.1515
 Red. masses --      4.9093                 6.1268                 4.7312
 Frc consts  --      0.5309                 0.9042                 0.7894
 IR Inten    --      0.7029                 8.9179                 0.4992

                     16                     17                     18
                      A                      A                      A
 Frequencies --    541.0788               548.0900               594.0222
 Red. masses --      8.4411                 5.9977                 3.9712
 Frc consts  --      1.4560                 1.0615                 0.8256
 IR Inten    --      1.6277                 0.7490                 7.2465

                     19                     20                     21
                      A                      A                      A
 Frequencies --    643.5610               687.0032               719.4375
 Red. masses --      4.6749                 9.1125                 4.9765
 Frc consts  --      1.1408                 2.5340                 1.5176
 IR Inten    --      3.9505                 2.0074                11.1311

                     22                     23                     24
                      A                      A                      A
 Frequencies --    745.2673               753.7752               800.9117
 Red. masses --      2.6158                 6.4750                 1.5658
 Frc consts  --      0.8560                 2.1676                 0.5918
 IR Inten    --     15.5884                24.6145                23.5197

                     25                     26                     27
                      A                      A                      A
 Frequencies --    818.4328               849.2963               883.4946
 Red. masses --      2.6216                 1.8622                 3.0300
 Frc consts  --      1.0346                 0.7914                 1.3935
 IR Inten    --     12.0312                55.3507                38.1681

                     28                     29                     30
                      A                      A                      A
 Frequencies --    894.0233               920.8191               934.2404
 Red. masses --      1.4131                 1.5318                 2.0077
 Frc consts  --      0.6655                 0.7652                 1.0324
 IR Inten    --     10.1495                 1.4933                 2.6043

                     31                     32                     33
                      A                      A                      A
 Frequencies --    975.2471              1038.5688              1054.0303
 Red. masses --      1.2980                 2.9944                 2.2618
 Frc consts  --      0.7274                 1.9029                 1.4805
 IR Inten    --      0.3340                 0.3508                 7.7564

                     34                     35                     36
                      A                      A                      A
 Frequencies --   1074.1569              1126.3729              1128.3485
 Red. masses --      6.1362                 2.7662                 1.9345
 Frc consts  --      4.1714                 2.0677                 1.4511
 IR Inten    --     13.4679                 9.6369                 1.1997

                     37                     38                     39
                      A                      A                      A
 Frequencies --   1189.7595              1210.1180              1248.4663
 Red. masses --      1.3172                 1.3078                 1.4555
 Frc consts  --      1.0985                 1.1283                 1.3367
 IR Inten    --      5.5467                 7.2491                 2.0421

                     40                     41                     42
                      A                      A                      A
 Frequencies --   1261.2969              1287.1148              1339.7650
 Red. masses --      1.4682                 1.3236                 2.6182
 Frc consts  --      1.3762                 1.2920                 2.7689
 IR Inten    --      9.8097                 5.9113                 0.0872

                     43                     44                     45
                      A                      A                      A
 Frequencies --   1342.7748              1375.1799              1389.8878
 Red. masses --      2.2455                 1.6704                 2.3866
 Frc consts  --      2.3854                 1.8612                 2.7164
 IR Inten    --      4.7232                 4.5598                 6.0325

                     46                     47                     48
                      A                      A                      A
 Frequencies --   1432.7176              1438.3441              1513.1589
 Red. masses --      1.4490                 2.2732                 2.7091
 Frc consts  --      1.7525                 2.7708                 3.6546
 IR Inten    --      9.0848                18.6738                 2.8993

                     49                     50                     51
                      A                      A                      A
 Frequencies --   1526.0146              1551.4615              1622.8528
 Red. masses --      1.1089                 4.9217                 6.4208
 Frc consts  --      1.5215                 6.9799                 9.9631
 IR Inten    --      2.4182                11.2025                 0.0328

                     52                     53                     54
                      A                      A                      A
 Frequencies --   1649.5518              1698.3153              2370.6589
 Red. masses --      5.7562                 1.0921                12.6688
 Frc consts  --      9.2281                 1.8559                41.9491
 IR Inten    --      5.5968                33.8752                 3.6029

                     55                     56                     57
                      A                      A                      A
 Frequencies --   2981.9754              3054.9430              3101.7182
 Red. masses --      1.0717                 1.0829                 1.0917
 Frc consts  --      5.6149                 5.9544                 6.1884
 IR Inten    --     57.9323                 7.9040                28.5443

                     58                     59                     60
                      A                      A                      A
 Frequencies --   3181.5228              3192.0699              3198.7267
 Red. masses --      1.0882                 1.0922                 1.0889
 Frc consts  --      6.4899                 6.5566                 6.5645
 IR Inten    --      8.8522                10.1880                 9.9688

                     61                     62                     63
                      A                      A                      A
 Frequencies --   3215.8567              3504.5977              3591.5918
 Red. masses --      1.0964                 1.0497                 1.0942
 Frc consts  --      6.6803                 7.5963                 8.3157
 IR Inten    --     20.2142                 0.7317                 1.2245

 - Thermochemistry -
 -------------------
 Temperature   298.150 Kelvin.  Pressure   1.00000 Atm.
 Atom     1 has atomic number  6 and mass  12.00000

 Molecular mass:   203.05172 amu.
 Principal axes and moments of inertia in atomic units:
                           1         2         3
     Eigenvalues --  2053.057822973.528034019.49437
           X            0.99968  -0.00768   0.02429
           Y            0.00750   0.99994   0.00756
           Z           -0.02435  -0.00737   0.99968
 This molecule is an asymmetric top.
 Rotational symmetry number  1.
 Warning -- assumption of classical behavior for rotation
           may cause significant error
 Rotational temperatures (Kelvin)      0.04219     0.02913     0.02155
 Rotational constants (GHZ):           0.87905     0.60694     0.44900
 Zero-point vibrational energy     461596.2 (Joules/Mol)
                                  110.32415 (Kcal/Mol)
 Warning -- explicit consideration of  18 degrees of freedom as
           vibrations may cause significant error
 Vibrational temperatures:     59.23   132.36   147.02   180.57   211.76
          (Kelvin)            282.93   309.43   336.21   383.50   440.87
                              554.11   575.07   616.41   720.08   765.65
                              778.49   788.58   854.67   925.94   988.44
                             1035.11  1072.27  1084.51  1152.33  1177.54
                             1221.95  1271.15  1286.30  1324.85  1344.16
                             1403.16  1494.27  1516.51  1545.47  1620.60
                             1623.44  1711.80  1741.09  1796.26  1814.72
                             1851.87  1927.62  1931.95  1978.58  1999.74
                             2061.36  2069.46  2177.10  2195.59  2232.21
                             2334.92  2373.34  2443.50  3410.85  4290.40
                             4395.38  4462.68  4577.50  4592.68  4602.25
                             4626.90  5042.33  5167.50

 Zero-point correction=                           0.175813 (Hartree/Particle)
 Thermal correction to Energy=                    0.187986
 Thermal correction to Enthalpy=                  0.188930
 Thermal correction to Gibbs Free Energy=         0.136944
 Sum of electronic and zero-point Energies=           -948.771559
 Sum of electronic and thermal Energies=              -948.759385
 Sum of electronic and thermal Enthalpies=            -948.758441
 Sum of electronic and thermal Free Energies=         -948.810428

                     E (Thermal)             CV                S
                      KCal/Mol        Cal/Mol-Kelvin    Cal/Mol-Kelvin
 Total                  117.963             46.341            109.415
 Electronic               0.000              0.000              0.000
 Translational            0.889              2.981             41.829
 Rotational               0.889              2.981             31.573
 Vibrational            116.186             40.380             36.012
 Vibration     1          0.594              1.981              5.202
 Vibration     2          0.602              1.955              3.617
 Vibration     3          0.604              1.947              3.412
 Vibration     4          0.610              1.928              3.014
 Vibration     5          0.617              1.906              2.708
 Vibration     6          0.636              1.845              2.164
 Vibration     7          0.645              1.818              2.000
 Vibration     8          0.654              1.789              1.851
 Vibration     9          0.672              1.734              1.619
 Vibration    10          0.697              1.662              1.382
 Vibration    11          0.754              1.502              1.019
 Vibration    12          0.766              1.471              0.964
 Vibration    13          0.790              1.408              0.864
 Vibration    14          0.856              1.249              0.657
 Vibration    15          0.887              1.179              0.582
 Vibration    16          0.896              1.159              0.563
 Vibration    17          0.903              1.144              0.548
 Vibration    18          0.952              1.045              0.460

 Optimization completed.
    -- Stationary point found.
 Normal termination of Gaussian 16 at Thu Dec 10 10:11:46 2020.

 ----------------------------------------------------------------------
 # B3LYP/6-311++G(d,p) empiricaldispersion=gd3bj scf=xqc pop=npa geom=c
 heck
 ----------------------------------------------------------------------

 ---------------------------------------
 CID_131565297_JID_4580_Energie_neutraal
 ---------------------------------------
 Structure from the checkpoint file:  "JID_4580.chk"
 Charge =  0 Multiplicity = 1

 SCF Done:  E(RB3LYP) =  -949.123185269     A.U. after   16 cycles
 Normal termination of Gaussian 16 at Thu Dec 10 10:14:27 2020.

 ----------------------------------------------------------------------
 # B3LYP/6-311++G(d,p) empiricaldispersion=gd3bj scf=xqc pop=npa geom=c
 heck
 ----------------------------------------------------------------------

 -------------------------------------
 CID_131565297_JID_4580_Energie_kation
 -------------------------------------
 Structure from the checkpoint file:  "JID_4580.chk"
 Charge =  1 Multiplicity = 2

 SCF Done:  E(UB3LYP) =  -948.818926974     A.U. after   23 cycles
 Normal termination of Gaussian 16 at Thu Dec 10 10:19:26 2020.
 Gaussian 16:  ES64L-G16RevA.03 25-Dec-2016

 ----------------------------------------------------------------------
 # B3LYP/6-311++G(d,p) empiricaldispersion=gd3bj scf=xqc pop=npa geom=c
 heck
 ----------------------------------------------------------------------

 ------------------------------------
 CID_131565297_JID_4580_Energie_anion
 ------------------------------------
 Structure from the checkpoint file:  "JID_4580.chk"
 Charge = -1 Multiplicity = 2

                         Standard orientation:
 ---------------------------------------------------------------------
 Center     Atomic      Atomic             Coordinates (Angstroms)
 Number     Number       Type             X           Y           Z
 ---------------------------------------------------------------------
      1          6           0        1.638160    2.497773    0.193410
      2          6           0        2.509722    1.433630    0.038097
      3          6           0        1.987105    0.131261   -0.011233
      4          6           0        0.588336   -0.089650    0.087885
      5          6           0       -0.297735    0.993404    0.259115
      6          6           0        0.255620    2.270776    0.309333
      7          6           0       -1.811307    0.854271    0.348760
      8          6           0       -2.482998    0.800831   -1.049614
      9          7           0       -2.049692   -0.372978   -1.789815
     10          6           0       -2.232497   -0.290308    1.167452
     11          7           0       -2.588359   -1.176017    1.826980
     12         16           0        0.298672   -1.815935   -0.017316
     13          7           0        1.943251   -2.204042   -0.169334
     14          6           0        2.675029   -1.123742   -0.153745
     15          1           0        2.017186    3.513876    0.240275
     16          1           0        3.581257    1.593577   -0.038724
     17          1           0       -0.407666    3.120646    0.450510
     18          1           0       -2.192921    1.753118    0.849663
     19          1           0       -3.565975    0.737890   -0.903043
     20          1           0       -2.268903    1.765198   -1.540547
     21          1           0       -2.684690   -0.573547   -2.557017
     22          1           0       -1.124213   -0.234438   -2.186977
     23          1           0        3.754158   -1.219569   -0.248673
 ---------------------------------------------------------------------

 SCF Done:  E(UB3LYP) =  -949.131098428     A.U. after   30 cycles

 The electronic state is 2-A.
 Alpha  occ. eigenvalues --  -88.74442 -14.19361 -14.19184 -14.17509 -10.10510
 Alpha  occ. eigenvalues --  -10.10137 -10.09176 -10.07514 -10.06257 -10.05714
 Alpha  occ. eigenvalues --  -10.04708 -10.04421 -10.03694 -10.03634  -7.82887
 Alpha  occ. eigenvalues --   -5.79299  -5.78817  -5.78368  -0.81400  -0.79772
 Alpha  occ. eigenvalues --   -0.78279  -0.72977  -0.68115  -0.63456  -0.61747
 Alpha  occ. eigenvalues --   -0.58337  -0.53483  -0.48905  -0.46953  -0.44173
 Alpha  occ. eigenvalues --   -0.41001  -0.39660  -0.37102  -0.34883  -0.33674
 Alpha  occ. eigenvalues --   -0.32516  -0.32145  -0.30810  -0.28447  -0.27893
 Alpha  occ. eigenvalues --   -0.27469  -0.25244  -0.24589  -0.23274  -0.22098
 Alpha  occ. eigenvalues --   -0.21806  -0.20878  -0.19522  -0.15661  -0.15046
 Alpha  occ. eigenvalues --   -0.14459  -0.12537  -0.09626   0.04262
 Alpha virt. eigenvalues --    0.06717   0.08244   0.08758   0.09857   0.10527
 Alpha virt. eigenvalues --    0.10863   0.11057   0.11971   0.12394   0.13591
 Alpha virt. eigenvalues --    0.13872   0.14283   0.14648   0.15221   0.15423

  Beta  occ. eigenvalues --  -88.74428 -14.19351 -14.19167 -14.17054 -10.10515
  Beta  occ. eigenvalues --  -10.10093 -10.09172 -10.07555 -10.06185 -10.05551
  Beta  occ. eigenvalues --  -10.04808 -10.04348 -10.03389 -10.03350  -7.82874
  Beta  occ. eigenvalues --   -5.79296  -5.78813  -5.78312  -0.80911  -0.79695
  Beta  occ. eigenvalues --   -0.78248  -0.72621  -0.67905  -0.63253  -0.61293
  Beta  occ. eigenvalues --   -0.58074  -0.53335  -0.48304  -0.46831  -0.43940
  Beta  occ. eigenvalues --   -0.40919  -0.39576  -0.36986  -0.34601  -0.33538
  Beta  occ. eigenvalues --   -0.32362  -0.32005  -0.30691  -0.28264  -0.27513
  Beta  occ. eigenvalues --   -0.26973  -0.25148  -0.24480  -0.23139  -0.21898
  Beta  occ. eigenvalues --   -0.21112  -0.20356  -0.19402  -0.14923  -0.14632
  Beta  occ. eigenvalues --   -0.14153  -0.11183  -0.08616
  Beta virt. eigenvalues --    0.06998   0.08324   0.08889   0.09555   0.10108
  Beta virt. eigenvalues --    0.10671   0.11044   0.11417   0.12056   0.12445
  Beta virt. eigenvalues --    0.13632   0.14293   0.14356   0.14806   0.15269

 Mulliken charges and spin densities:
               1          2
     1  C   -0.467232  -0.141791
     2  C   -0.883524   0.320061
     3  C    0.692264  -0.009164
     4  C   -0.049666  -0.091068
     5  C    0.129316   0.217687
     6  C    0.038250   0.069470
     7  C    0.501637   0.461034
     8  C    0.547248  -1.121624
     9  N   -0.530302   0.080600
    10  C   -0.419287  -0.112239
    11  N   -0.282662  -0.020723
    12  S   -0.057576   0.011984
    13  N   -0.195848   0.196500
    14  C   -0.332320   0.015034
    15  H    0.097032   0.028459
    16  H    0.085575  -0.008982
    17  H   -0.015874   0.104140
    18  H   -0.164231   0.397826
    19  H   -0.293768   0.471072
    20  H    0.068837   0.078574
    21  H    0.191014   0.049906
    22  H    0.208199   0.008310
    23  H    0.132919  -0.005065
 Sum of Mulliken charges =  -1.00000   1.00000

 Dipole moment (field-independent basis, Debye):
    X=              1.3582    Y=              3.0298    Z=             -2.9856  Tot=              4.4652
 Quadrupole moment (field-independent basis, Debye-Ang):
   XX=           -124.4012   YY=           -120.9996   ZZ=           -105.4374
   XY=              2.4492   XZ=              6.3981   YZ=              2.5912

 Summary of Natural Population Analysis:

                                       Natural Population
                Natural  -----------------------------------------------
    Atom  No    Charge         Core      Valence    Rydberg      Total
 -----------------------------------------------------------------------
      C    1   -0.13154      0.99958     2.12246    0.00950     3.13154
      C    2   -0.03461      0.99953     2.02708    0.00801     3.03461
      C    3   -0.05627      0.99947     2.04822    0.00858     3.05627
      C    4   -0.10713      0.99936     2.09365    0.01412     3.10713
      C    5   -0.01384      0.99943     2.00220    0.01221     3.01384
      C    6   -0.04903      0.99952     2.03912    0.01040     3.04903
      C    7   -0.16959      0.99948     2.15802    0.01210     3.16959
      C    8   -0.07396      0.99962     2.06211    0.01222     3.07396
      N    9   -0.42274      0.99976     2.91171    0.01127     3.92274
      C   10    0.16992      0.99964     1.80985    0.02059     2.83008
      N   11   -0.18699      0.99978     2.67583    0.01137     3.68699
      S   12    0.27729      4.99946     2.69474    0.02851     7.72271
      N   13   -0.24048      0.99972     2.72939    0.01136     3.74048
      C   14    0.02425      0.99959     1.96183    0.01434     2.97575
      H   15    0.09357      0.00000     0.40556    0.00087     0.40643
      H   16    0.08965      0.00000     0.40900    0.00136     0.41035
      H   17    0.09044      0.00000     0.40851    0.00105     0.40956
      H   18    0.12298      0.00000     0.37446    0.00257     0.37702
      H   19    0.09331      0.00000     0.40453    0.00216     0.40669
      H   20    0.08319      0.00000     0.41540    0.00141     0.41681
      H   21    0.17497      0.00000     0.32358    0.00145     0.32503
      H   22    0.18032      0.00000     0.31791    0.00176     0.31968
      H   23    0.08632      0.00000     0.41248    0.00120     0.41368
 =======================================================================
   * Total *    0.00000     17.99395    34.80763    0.19843    53.00000

 Normal termination of Gaussian 16 at Thu Dec 10 10:25:29 2020.
