 Gaussian 16, Revision A.03,

 -----------------------------------------------------------
 # opt freq B3LYP/6-31G(d) empiricaldispersion=gd3bj scf=xqc
 -----------------------------------------------------------

 ------------------------------
 CID_81021481_JID_8644_neutraal
 ------------------------------
 Symbolic Z-matrix:
 Charge =  0 Multiplicity = 1

 SCF Done:  E(RB3LYP) =  -805.568544446     A.U. after   14 cycles
 SCF Done:  E(RB3LYP) =  -805.570655623     A.U. after   13 cycles
 SCF Done:  E(RB3LYP) =  -805.569347677     A.U. after   13 cycles
 SCF Done:  E(RB3LYP) =  -805.571055839     A.U. after   13 cycles
 SCF Done:  E(RB3LYP) =  -805.572726153     A.U. after   13 cycles
 SCF Done:  E(RB3LYP) =  -805.573469027     A.U. after   13 cycles
 SCF Done:  E(RB3LYP) =  -805.573518770     A.U. after   12 cycles
 SCF Done:  E(RB3LYP) =  -805.573711764     A.U. after   12 cycles
 SCF Done:  E(RB3LYP) =  -805.573791129     A.U. after   10 cycles
 SCF Done:  E(RB3LYP) =  -805.573977202     A.U. after   12 cycles
 SCF Done:  E(RB3LYP) =  -805.574207032     A.U. after   10 cycles
 SCF Done:  E(RB3LYP) =  -805.574205353     A.U. after   10 cycles
 SCF Done:  E(RB3LYP) =  -805.574209090     A.U. after    9 cycles
 SCF Done:  E(RB3LYP) =  -805.574209267     A.U. after    7 cycles
 SCF Done:  E(RB3LYP) =  -805.574209243     A.U. after    6 cycles
 Optimization completed.
    -- Stationary point found.
 Normal termination of Gaussian 16 at Fri Dec 11 20:59:57 2020.

 --------------------------------------------------------------------
 #N Geom=AllCheck Guess=TCheck SCRF=Check GenChk RB3LYP/6-31G(d) Freq
 --------------------------------------------------------------------

 Structure from the checkpoint file:  "JID_8644.chk"
 ------------------------------
 CID_81021481_JID_8644_neutraal
 ------------------------------
 Charge =  0 Multiplicity = 1

 SCF Done:  E(RB3LYP) =  -805.574209243     A.U. after    1 cycles

  Exact polarizability: 150.768   1.017 166.315 -10.284  -3.866 137.033
 Approx polarizability: 202.929  -1.279 251.320 -24.297  -0.563 239.578

                      1                      2                      3
                      A                      A                      A
 Frequencies --     34.8625                47.6121                51.2590
 Red. masses --      4.0292                 4.0739                 7.1246
 Frc consts  --      0.0029                 0.0054                 0.0110
 IR Inten    --      0.2040                 0.3990                 1.6382

                      4                      5                      6
                      A                      A                      A
 Frequencies --     84.3261                89.3974               111.0841
 Red. masses --      4.3459                 4.6343                 5.9375
 Frc consts  --      0.0182                 0.0218                 0.0432
 IR Inten    --      0.2236                 0.1248                 0.1353

                      7                      8                      9
                      A                      A                      A
 Frequencies --    174.8311               203.1938               214.0972
 Red. masses --      3.9431                 4.3149                 3.4696
 Frc consts  --      0.0710                 0.1050                 0.0937
 IR Inten    --      0.4422                 1.0417                 0.0919

                     10                     11                     12
                      A                      A                      A
 Frequencies --    225.1076               243.0508               265.6572
 Red. masses --      2.3333                 1.2693                 2.4743
 Frc consts  --      0.0697                 0.0442                 0.1029
 IR Inten    --      0.0276                 0.0407                 1.1012

                     13                     14                     15
                      A                      A                      A
 Frequencies --    287.0709               289.2076               311.0589
 Red. masses --      1.6001                 2.4078                 2.0829
 Frc consts  --      0.0777                 0.1187                 0.1187
 IR Inten    --      0.0827                 0.4968                 0.2028

                     16                     17                     18
                      A                      A                      A
 Frequencies --    355.3753               402.1187               410.5750
 Red. masses --      2.2323                 3.3289                 3.0768
 Frc consts  --      0.1661                 0.3171                 0.3056
 IR Inten    --      0.4037                 3.7141                 1.8205

                     19                     20                     21
                      A                      A                      A
 Frequencies --    419.9658               433.3831               460.7719
 Red. masses --      3.2170                 2.3159                 3.6932
 Frc consts  --      0.3343                 0.2563                 0.4620
 IR Inten    --      1.8010                 1.2096                 1.7577

                     22                     23                     24
                      A                      A                      A
 Frequencies --    495.2211               503.7880               530.0567
 Red. masses --      3.5635                 3.3844                 3.2441
 Frc consts  --      0.5149                 0.5061                 0.5370
 IR Inten    --      1.9889                 2.8600                 0.6221

                     25                     26                     27
                      A                      A                      A
 Frequencies --    596.5941               637.3098               647.1671
 Red. masses --      2.6024                 3.0310                 8.5263
 Frc consts  --      0.5457                 0.7253                 2.1040
 IR Inten    --     35.3233                12.1720                16.4030

                     28                     29                     30
                      A                      A                      A
 Frequencies --    680.2775               703.6865               738.6209
 Red. masses --      1.9824                 2.6243                 2.7425
 Frc consts  --      0.5405                 0.7656                 0.8815
 IR Inten    --     40.0722                22.2931                59.4531

                     31                     32                     33
                      A                      A                      A
 Frequencies --    755.2640               762.3174               801.0544
 Red. masses --      2.2154                 2.4732                 4.4930
 Frc consts  --      0.7446                 0.8468                 1.6987
 IR Inten    --     20.0218                 8.0505                 0.2085

                     34                     35                     36
                      A                      A                      A
 Frequencies --    863.0685               871.0651               893.3300
 Red. masses --      2.6578                 2.5894                 2.2060
 Frc consts  --      1.1665                 1.1576                 1.0372
 IR Inten    --      7.1736                 1.1349                 0.9697

                     37                     38                     39
                      A                      A                      A
 Frequencies --    927.1440               932.9009               939.1011
 Red. masses --      2.3240                 1.3442                 2.1703
 Frc consts  --      1.1770                 0.6892                 1.1277
 IR Inten    --      1.8632                 2.8375                 4.8688

                     40                     41                     42
                      A                      A                      A
 Frequencies --    959.3093               963.3725               980.7609
 Red. masses --      1.7824                 1.8741                 1.7411
 Frc consts  --      0.9665                 1.0248                 0.9868
 IR Inten    --      0.5088                 5.2413                 3.5620

                     43                     44                     45
                      A                      A                      A
 Frequencies --   1000.1358              1011.0550              1033.0182
 Red. masses --      1.4234                 1.4409                 2.4337
 Frc consts  --      0.8389                 0.8678                 1.5301
 IR Inten    --      1.0789                 1.1719                21.9021

                     46                     47                     48
                      A                      A                      A
 Frequencies --   1048.0042              1063.2200              1083.5613
 Red. masses --      2.4501                 2.7164                 2.0435
 Frc consts  --      1.5855                 1.8092                 1.4136
 IR Inten    --      3.6168                 6.5560                 3.4179

                     49                     50                     51
                      A                      A                      A
 Frequencies --   1106.9019              1114.6048              1138.3594
 Red. masses --      2.0061                 2.2647                 1.8750
 Frc consts  --      1.4481                 1.6577                 1.4316
 IR Inten    --      6.4791                 3.8076                 4.9627

                     52                     53                     54
                      A                      A                      A
 Frequencies --   1151.4624              1164.9209              1191.8110
 Red. masses --      2.9836                 1.5305                 2.0342
 Frc consts  --      2.3307                 1.2237                 1.7024
 IR Inten    --      1.2637                 2.2081               170.3621

                     55                     56                     57
                      A                      A                      A
 Frequencies --   1194.0705              1215.0928              1233.5281
 Red. masses --      1.7969                 1.9313                 1.9479
 Frc consts  --      1.5095                 1.6801                 1.7463
 IR Inten    --     44.8350                 7.7043                30.8939

                     58                     59                     60
                      A                      A                      A
 Frequencies --   1235.4340              1255.6513              1270.2448
 Red. masses --      2.1274                 2.7950                 1.8120
 Frc consts  --      1.9131                 2.5964                 1.7226
 IR Inten    --      5.8232                 2.3923                13.4887

                     61                     62                     63
                      A                      A                      A
 Frequencies --   1289.2674              1310.1565              1327.1088
 Red. masses --      1.4972                 1.1714                 1.5404
 Frc consts  --      1.4663                 1.1847                 1.5984
 IR Inten    --      3.5992                 0.5169                 1.0195

                     64                     65                     66
                      A                      A                      A
 Frequencies --   1335.7905              1341.9386              1359.7979
 Red. masses --      1.3464                 1.2742                 1.3761
 Frc consts  --      1.4155                 1.3519                 1.4992
 IR Inten    --      4.9767                 4.0990                 0.5623

                     67                     68                     69
                      A                      A                      A
 Frequencies --   1377.8142              1385.8934              1400.4389
 Red. masses --      1.7773                 1.7655                 1.3847
 Frc consts  --      1.9879                 1.9979                 1.6001
 IR Inten    --     17.9182                17.4497                 0.4044

                     70                     71                     72
                      A                      A                      A
 Frequencies --   1401.6536              1406.1015              1413.8537
 Red. masses --      1.3796                 1.4555                 1.2611
 Frc consts  --      1.5969                 1.6955                 1.4852
 IR Inten    --      1.8087                11.3276                 5.6849

                     73                     74                     75
                      A                      A                      A
 Frequencies --   1421.1850              1427.0070              1433.3138
 Red. masses --      1.4656                 1.2813                 1.2970
 Frc consts  --      1.7440                 1.5373                 1.5699
 IR Inten    --      0.7464                 5.7954                 0.2911

                     76                     77                     78
                      A                      A                      A
 Frequencies --   1455.8532              1472.2038              1479.3556
 Red. masses --      1.2434                 2.0361                 2.4065
 Frc consts  --      1.5527                 2.6001                 3.1030
 IR Inten    --      8.1494                26.2636                65.1519

                     79                     80                     81
                      A                      A                      A
 Frequencies --   1513.5457              1518.8692              1523.0476
 Red. masses --      1.0837                 1.0614                 1.0732
 Frc consts  --      1.4626                 1.4427                 1.4667
 IR Inten    --      4.3583                 3.2156                 6.0619

                     82                     83                     84
                      A                      A                      A
 Frequencies --   1527.8082              1531.1114              1540.9516
 Red. masses --      1.0523                 1.0831                 1.0559
 Frc consts  --      1.4472                 1.4960                 1.4773
 IR Inten    --      3.4180                 8.5140                 4.9772

                     85                     86                     87
                      A                      A                      A
 Frequencies --   1549.6845              1610.0166              1639.7603
 Red. masses --      1.0520                 4.7184                 4.6893
 Frc consts  --      1.4885                 7.2062                 7.4289
 IR Inten    --      4.8590                48.2255                14.9568

                     88                     89                     90
                      A                      A                      A
 Frequencies --   1837.1558              3001.3742              3014.2713
 Red. masses --     10.0677                 1.0810                 1.0796
 Frc consts  --     20.0203                 5.7377                 5.7795
 IR Inten    --    237.6567                 9.1910                11.0797

                     91                     92                     93
                      A                      A                      A
 Frequencies --   3018.5736              3028.5498              3037.5924
 Red. masses --      1.0831                 1.0692                 1.0482
 Frc consts  --      5.8148                 5.7778                 5.6986
 IR Inten    --     22.6248                 9.0664                17.3819

                     94                     95                     96
                      A                      A                      A
 Frequencies --   3041.2430              3053.7925              3058.2167
 Red. masses --      1.0627                 1.0814                 1.0441
 Frc consts  --      5.7914                 5.9420                 5.7534
 IR Inten    --     79.4460                30.7087                14.8132

                     97                     98                     99
                      A                      A                      A
 Frequencies --   3078.2261              3090.5324              3092.3111
 Red. masses --      1.0904                 1.0896                 1.0722
 Frc consts  --      6.0872                 6.1318                 6.0409
 IR Inten    --     30.4953                33.6309                12.3910

                    100                    101                    102
                      A                      A                      A
 Frequencies --   3101.3820              3109.5612              3115.0719
 Red. masses --      1.1009                 1.1014                 1.1019
 Frc consts  --      6.2389                 6.2749                 6.2999
 IR Inten    --     15.1420                49.7994                53.3551

                    103                    104                    105
                      A                      A                      A
 Frequencies --   3137.6583              3172.0089              3183.5513
 Red. masses --      1.0995                 1.0896                 1.0928
 Frc consts  --      6.3778                 6.4592                 6.5254
 IR Inten    --     25.4039                23.2246                12.9332

                    106                    107                    108
                      A                      A                      A
 Frequencies --   3193.9637              3206.1949              3676.5457
 Red. masses --      1.0908                 1.0906                 1.0639
 Frc consts  --      6.5560                 6.6054                 8.4731
 IR Inten    --     32.9978                 8.8165                59.1241

 - Thermochemistry -
 -------------------
 Temperature   298.150 Kelvin.  Pressure   1.00000 Atm.
 Atom     1 has atomic number  6 and mass  12.00000

 Molecular mass:   248.15248 amu.
 Principal axes and moments of inertia in atomic units:
                           1         2         3
     Eigenvalues --  3672.102814389.963406445.91407
           X            0.99953   0.03057   0.00297
           Y           -0.03056   0.99953  -0.00220
           Z           -0.00303   0.00211   0.99999
 This molecule is an asymmetric top.
 Rotational symmetry number  1.
 Warning -- assumption of classical behavior for rotation
           may cause significant error
 Rotational temperatures (Kelvin)      0.02359     0.01973     0.01344
 Rotational constants (GHZ):           0.49147     0.41111     0.27998
 Zero-point vibrational energy     867578.5 (Joules/Mol)
                                  207.35624 (Kcal/Mol)
 Warning -- explicit consideration of  25 degrees of freedom as
           vibrations may cause significant error
 Vibrational temperatures:     50.16    68.50    73.75   121.33   128.62
          (Kelvin)            159.83   251.54   292.35   308.04   323.88
                              349.70   382.22   413.03   416.11   447.54
                              511.31   578.56   590.73   604.24   623.54
                              662.95   712.51   724.84   762.63   858.37
                              916.95   931.13   978.77  1012.45  1062.71
                             1086.66  1096.80  1152.54  1241.76  1253.27
                             1285.30  1333.95  1342.24  1351.16  1380.23
                             1386.08  1411.10  1438.97  1454.68  1486.28
                             1507.84  1529.74  1559.00  1592.59  1603.67
                             1637.85  1656.70  1676.06  1714.75  1718.00
                             1748.25  1774.77  1777.51  1806.60  1827.60
                             1854.97  1885.02  1909.41  1921.90  1930.75
                             1956.45  1982.37  1993.99  2014.92  2016.67
                             2023.07  2034.22  2044.77  2053.14  2062.22
                             2094.65  2118.17  2128.46  2177.65  2185.31
                             2191.33  2198.18  2202.93  2217.09  2229.65
                             2316.45  2359.25  2643.26  4318.31  4336.86
                             4343.05  4357.41  4370.42  4375.67  4393.73
                             4400.09  4428.88  4446.59  4449.15  4462.20
                             4473.97  4481.89  4514.39  4563.81  4580.42
                             4595.40  4613.00  5289.73

 Zero-point correction=                           0.330443 (Hartree/Particle)
 Thermal correction to Energy=                    0.347001
 Thermal correction to Enthalpy=                  0.347945
 Thermal correction to Gibbs Free Energy=         0.286018
 Sum of electronic and zero-point Energies=           -805.243766
 Sum of electronic and thermal Energies=              -805.227208
 Sum of electronic and thermal Enthalpies=            -805.226264
 Sum of electronic and thermal Free Energies=         -805.288192

                     E (Thermal)             CV                S
                      KCal/Mol        Cal/Mol-Kelvin    Cal/Mol-Kelvin
 Total                  217.747             64.826            130.338
 Electronic               0.000              0.000              0.000
 Translational            0.889              2.981             42.427
 Rotational               0.889              2.981             33.007
 Vibrational            215.969             58.864             54.904
 Vibration     1          0.594              1.983              5.532
 Vibration     2          0.595              1.978              4.914
 Vibration     3          0.596              1.977              4.768
 Vibration     4          0.601              1.960              3.788
 Vibration     5          0.602              1.957              3.673
 Vibration     6          0.607              1.940              3.250
 Vibration     7          0.627              1.873              2.383
 Vibration     8          0.639              1.835              2.104
 Vibration     9          0.644              1.819              2.008
 Vibration    10          0.650              1.803              1.918
 Vibration    11          0.659              1.774              1.780
 Vibration    12          0.671              1.736              1.624
 Vibration    13          0.684              1.698              1.491
 Vibration    14          0.686              1.694              1.479
 Vibration    15          0.700              1.653              1.357
 Vibration    16          0.731              1.564              1.142
 Vibration    17          0.768              1.466              0.955
 Vibration    18          0.775              1.447              0.925
 Vibration    19          0.783              1.427              0.892
 Vibration    20          0.794              1.397              0.848
 Vibration    21          0.819              1.337              0.764
 Vibration    22          0.851              1.261              0.670
 Vibration    23          0.859              1.242              0.649
 Vibration    24          0.885              1.183              0.587
 Vibration    25          0.954              1.039              0.456

 Optimization completed.
    -- Stationary point found.
 Normal termination of Gaussian 16 at Fri Dec 11 21:20:58 2020.

 ----------------------------------------------------------------------
 # B3LYP/6-311++G(d,p) empiricaldispersion=gd3bj scf=xqc pop=npa geom=c
 heck
 ----------------------------------------------------------------------

 --------------------------------------
 CID_81021481_JID_8644_Energie_neutraal
 --------------------------------------
 Structure from the checkpoint file:  "JID_8644.chk"
 Charge =  0 Multiplicity = 1

 SCF Done:  E(RB3LYP) =  -805.799464186     A.U. after   16 cycles
 Normal termination of Gaussian 16 at Fri Dec 11 21:30:50 2020.

 ----------------------------------------------------------------------
 # B3LYP/6-311++G(d,p) empiricaldispersion=gd3bj scf=xqc pop=npa geom=c
 heck
 ----------------------------------------------------------------------

 ------------------------------------
 CID_81021481_JID_8644_Energie_kation
 ------------------------------------
 Structure from the checkpoint file:  "JID_8644.chk"
 Charge =  1 Multiplicity = 2

 SCF Done:  E(UB3LYP) =  -805.467793329     A.U. after   31 cycles
 Normal termination of Gaussian 16 at Fri Dec 11 21:57:34 2020.
 Gaussian 16:  ES64L-G16RevA.03 25-Dec-2016

 ----------------------------------------------------------------------
 # B3LYP/6-311++G(d,p) empiricaldispersion=gd3bj scf=xqc pop=npa geom=c
 heck
 ----------------------------------------------------------------------

 -----------------------------------
 CID_81021481_JID_8644_Energie_anion
 -----------------------------------
 Structure from the checkpoint file:  "JID_8644.chk"
 Charge = -1 Multiplicity = 2

                         Standard orientation:
 ---------------------------------------------------------------------
 Center     Atomic      Atomic             Coordinates (Angstroms)
 Number     Number       Type             X           Y           Z
 ---------------------------------------------------------------------
      1          6           0       -2.126124    0.628697   -1.415389
      2          6           0       -2.725991    0.155965   -0.083947
      3          6           0       -4.205396   -0.200164   -0.309411
      4          6           0       -2.014206   -1.034940    0.633757
      5          6           0       -1.468600   -2.136784   -0.300805
      6          6           0       -0.043248   -1.890314   -0.821166
      7          6           0        0.911531   -1.626629    0.352159
      8          6           0        0.488181   -0.402570    1.197291
      9          6           0       -0.956112   -0.649168    1.693971
     10          6           0        0.691267    0.952760    0.537216
     11          6           0        0.260926    2.121327    1.179412
     12          7           0        0.412600    3.347527    0.672203
     13          6           0        1.028045    3.413806   -0.513174
     14          7           0        1.512486    2.389272   -1.217042
     15          6           0        1.342345    1.173841   -0.680880
     16          6           0        2.395109   -1.584673    0.030819
     17          8           0        3.249783   -1.195980    0.796514
     18          8           0        2.693853   -2.060148   -1.204043
     19          1           0       -2.150049   -0.166758   -2.169236
     20          1           0       -1.097870    0.975762   -1.319613
     21          1           0       -2.716820    1.463530   -1.808917
     22          1           0       -2.696395    1.008202    0.610062
     23          1           0       -4.301025   -1.080316   -0.958531
     24          1           0       -4.712954   -0.426133    0.635337
     25          1           0       -4.741485    0.624273   -0.792634
     26          1           0       -2.812837   -1.507520    1.220765
     27          1           0       -1.461648   -3.084180    0.256471
     28          1           0       -2.150698   -2.289499   -1.145215
     29          1           0       -0.027540   -1.050235   -1.519355
     30          1           0        0.297540   -2.765677   -1.381821
     31          1           0        0.826097   -2.487843    1.034235
     32          1           0        1.135906   -0.399915    2.082711
     33          1           0       -1.315439    0.209750    2.270448
     34          1           0       -0.890299   -1.481181    2.408288
     35          1           0       -0.227102    2.069370    2.151147
     36          1           0        1.150547    4.404955   -0.944379
     37          1           0        1.735446    0.352714   -1.272724
     38          1           0        3.665569   -2.004785   -1.282054
 ---------------------------------------------------------------------

 SCF Done:  E(UB3LYP) =  -805.797485888     A.U. after   33 cycles
 SCF Done:  E(UB3LYP) =  -805.797485888     a.u. after    1 cycles

 The electronic state is 2-A.
 Alpha  occ. eigenvalues --  -19.07278 -19.01091 -14.18301 -14.18112 -10.20279
 Alpha  occ. eigenvalues --  -10.10997 -10.08852 -10.08346 -10.08248 -10.07766
 Alpha  occ. eigenvalues --  -10.07596 -10.07233 -10.07099 -10.06679 -10.06657
 Alpha  occ. eigenvalues --  -10.06635 -10.06613 -10.05461  -1.01081  -0.91942
 Alpha  occ. eigenvalues --   -0.85672  -0.75909  -0.75193  -0.70788  -0.67858
 Alpha  occ. eigenvalues --   -0.64809  -0.63314  -0.58774  -0.56647  -0.53592
 Alpha  occ. eigenvalues --   -0.53046  -0.51066  -0.50456  -0.46705  -0.43467
 Alpha  occ. eigenvalues --   -0.41266  -0.40149  -0.39382  -0.38753  -0.36935
 Alpha  occ. eigenvalues --   -0.36750  -0.35519  -0.34160  -0.33824  -0.32054
 Alpha  occ. eigenvalues --   -0.31425  -0.30572  -0.29566  -0.29286  -0.28828
 Alpha  occ. eigenvalues --   -0.28563  -0.28081  -0.27750  -0.27390  -0.26299
 Alpha  occ. eigenvalues --   -0.24864  -0.24293  -0.23494  -0.22394  -0.21134
 Alpha  occ. eigenvalues --   -0.20617  -0.20213  -0.19248  -0.17959  -0.17412
 Alpha  occ. eigenvalues --   -0.15013  -0.12648   0.04229
 Alpha virt. eigenvalues --    0.06043   0.06711   0.07352   0.08247   0.08788
 Alpha virt. eigenvalues --    0.09073   0.09313   0.10017   0.10224   0.10492
 Alpha virt. eigenvalues --    0.10809   0.11516   0.12499   0.12816   0.13228

  Beta  occ. eigenvalues --  -19.07249 -19.01055 -14.18140 -14.17861 -10.20250
  Beta  occ. eigenvalues --  -10.11036 -10.08835 -10.08247 -10.08163 -10.07589
  Beta  occ. eigenvalues --  -10.07492 -10.07227 -10.07171 -10.06668 -10.06646
  Beta  occ. eigenvalues --  -10.06621 -10.06594 -10.05458  -1.01014  -0.91878
  Beta  occ. eigenvalues --   -0.85327  -0.75420  -0.75162  -0.70756  -0.67741
  Beta  occ. eigenvalues --   -0.64766  -0.63180  -0.58755  -0.56568  -0.53467
  Beta  occ. eigenvalues --   -0.52590  -0.51009  -0.50398  -0.46644  -0.43405
  Beta  occ. eigenvalues --   -0.41145  -0.40067  -0.39254  -0.38682  -0.36901
  Beta  occ. eigenvalues --   -0.36672  -0.35399  -0.34102  -0.33788  -0.32018
  Beta  occ. eigenvalues --   -0.31288  -0.30297  -0.29439  -0.29179  -0.28684
  Beta  occ. eigenvalues --   -0.28442  -0.27880  -0.27679  -0.27345  -0.26232
  Beta  occ. eigenvalues --   -0.24766  -0.24243  -0.23467  -0.22285  -0.21069
  Beta  occ. eigenvalues --   -0.20573  -0.20104  -0.17881  -0.17829  -0.17192
  Beta  occ. eigenvalues --   -0.14377  -0.12415
  Beta virt. eigenvalues --    0.06444   0.07225   0.07879   0.08409   0.08553
  Beta virt. eigenvalues --    0.09071   0.09289   0.09621   0.10082   0.10490
  Beta virt. eigenvalues --    0.10699   0.10886   0.11671   0.12668   0.12870

 Mulliken charges and spin densities:
               1          2
     1  C   -0.707000  -0.040030
     2  C    0.366574  -0.019588
     3  C   -0.177152  -0.449969
     4  C    0.132501   0.382303
     5  C    0.190704  -1.148671
     6  C    0.421998  -0.525719
     7  C    0.619376  -0.579137
     8  C   -0.003096   0.291034
     9  C   -0.432114  -0.402372
    10  C    0.012092   0.218582
    11  C   -0.633695   0.086249
    12  N   -0.034413   0.103888
    13  C    0.002547  -0.036965
    14  N   -0.049868   0.088659
    15  C   -0.356487   0.088896
    16  C   -0.916153   0.294799
    17  O   -0.227258   0.028884
    18  O   -0.128234   0.033469
    19  H    0.141464   0.009646
    20  H    0.047461   0.079882
    21  H    0.156026  -0.020228
    22  H    0.243812  -0.067392
    23  H    0.074645   0.066011
    24  H   -0.033852   0.159120
    25  H    0.099317   0.023199
    26  H   -0.108500   0.322455
    27  H   -0.318288   0.479624
    28  H    0.170009  -0.014492
    29  H    0.153557   0.001509
    30  H    0.056614   0.162595
    31  H   -0.377161   0.623147
    32  H    0.364633  -0.083356
    33  H    0.073932   0.058455
    34  H   -0.318884   0.484942
    35  H    0.093781   0.042875
    36  H    0.162604   0.001481
    37  H    0.328982  -0.115240
    38  H   -0.090473   0.371454
 Sum of Mulliken charges =  -1.00000   1.00000

 Dipole moment (field-independent basis, Debye):
    X=             -3.0331    Y=              0.6233    Z=             -1.8133  Tot=              3.5883
 Quadrupole moment (field-independent basis, Debye-Ang):
   XX=           -154.7359   YY=           -165.7713   ZZ=           -135.9749
   XY=             -4.1232   XZ=              3.4642   YZ=              6.2366

 Summary of Natural Population Analysis:

                                       Natural Population
                Natural  -----------------------------------------------
    Atom  No    Charge         Core      Valence    Rydberg      Total
 -----------------------------------------------------------------------
      C    1   -0.28779      0.99964     2.28297    0.00518     3.28779
      C    2   -0.11159      0.99960     2.10314    0.00886     3.11159
      C    3   -0.28003      0.99965     2.27589    0.00449     3.28003
      C    4   -0.10874      0.99956     2.09614    0.01303     3.10874
      C    5   -0.18938      0.99961     2.18029    0.00947     3.18938
      C    6   -0.19443      0.99960     2.18565    0.00918     3.19443
      C    7   -0.15630      0.99952     2.14353    0.01326     3.15630
      C    8   -0.11373      0.99955     2.10198    0.01220     3.11373
      C    9   -0.18044      0.99959     2.17079    0.01006     3.18044
      C   10   -0.06303      0.99948     2.05302    0.01054     3.06303
      C   11    0.06930      0.99954     1.91625    0.01490     2.93070
      N   12   -0.21914      0.99971     2.70948    0.00995     3.71914
      C   13    0.12174      0.99967     1.85980    0.01879     2.87826
      N   14   -0.22827      0.99971     2.71922    0.00934     3.72827
      C   15    0.07443      0.99953     1.91006    0.01598     2.92557
      C   16    0.41698      0.99966     1.55738    0.02598     2.58302
      O   17   -0.30677      0.99987     3.30137    0.00553     4.30677
      O   18   -0.34699      0.99987     3.34100    0.00611     4.34699
      H   19    0.09261      0.00000     0.40662    0.00076     0.40739
      H   20    0.11033      0.00000     0.38853    0.00114     0.38967
      H   21    0.09553      0.00000     0.40366    0.00081     0.40447
      H   22    0.09539      0.00000     0.40281    0.00179     0.40461
      H   23    0.09443      0.00000     0.40472    0.00085     0.40557
      H   24    0.09678      0.00000     0.40241    0.00080     0.40322
      H   25    0.09486      0.00000     0.40439    0.00075     0.40514
      H   26    0.09839      0.00000     0.39969    0.00192     0.40161
      H   27    0.10019      0.00000     0.39830    0.00151     0.39981
      H   28    0.09792      0.00000     0.40121    0.00087     0.40208
      H   29    0.10308      0.00000     0.39527    0.00164     0.39692
      H   30    0.10538      0.00000     0.39354    0.00109     0.39462
      H   31    0.11999      0.00000     0.37763    0.00237     0.38001
      H   32    0.11413      0.00000     0.38448    0.00138     0.38587
      H   33    0.10049      0.00000     0.39837    0.00114     0.39951
      H   34    0.10099      0.00000     0.39766    0.00135     0.39901
      H   35    0.08157      0.00000     0.41623    0.00220     0.41843
      H   36    0.07558      0.00000     0.42320    0.00122     0.42442
      H   37    0.08607      0.00000     0.41128    0.00265     0.41393
      H   38    0.24044      0.00000     0.25485    0.00470     0.25956
 =======================================================================
   * Total *    0.00000     17.99337    48.77282    0.23381    67.00000

 Normal termination of Gaussian 16 at Fri Dec 11 22:26:38 2020.
