 Gaussian 16, Revision A.03,

 -----------------------------------------------------------
 # opt freq B3LYP/6-31G(d) empiricaldispersion=gd3bj scf=xqc
 -----------------------------------------------------------

 -------------------------------
 CID_60438159_JID_10244_neutraal
 -------------------------------
 Symbolic Z-matrix:
 Charge =  0 Multiplicity = 1

 SCF Done:  E(RB3LYP) =  -883.022082388     A.U. after   15 cycles
 SCF Done:  E(RB3LYP) =  -882.953001262     A.U. after   14 cycles
 SCF Done:  E(RB3LYP) =  -883.032115014     A.U. after   13 cycles
 SCF Done:  E(RB3LYP) =  -883.022500453     A.U. after   14 cycles
 SCF Done:  E(RB3LYP) =  -883.033703533     A.U. after   12 cycles
 SCF Done:  E(RB3LYP) =  -883.034015139     A.U. after   13 cycles
 SCF Done:  E(RB3LYP) =  -883.034651842     A.U. after   11 cycles
 SCF Done:  E(RB3LYP) =  -883.035166559     A.U. after   12 cycles
 SCF Done:  E(RB3LYP) =  -883.035619227     A.U. after   11 cycles
 SCF Done:  E(RB3LYP) =  -883.036125274     A.U. after   12 cycles
 SCF Done:  E(RB3LYP) =  -883.038557490     A.U. after    9 cycles
 SCF Done:  E(RB3LYP) =  -883.038558266     A.U. after    8 cycles
 SCF Done:  E(RB3LYP) =  -883.038558552     A.U. after    8 cycles
 SCF Done:  E(RB3LYP) =  -883.038558595     A.U. after    8 cycles
 SCF Done:  E(RB3LYP) =  -883.038558619     A.U. after    7 cycles
 Optimization completed.
    -- Stationary point found.
 Normal termination of Gaussian 16 at Sat Dec 12 16:03:25 2020.

 --------------------------------------------------------------------
 #N Geom=AllCheck Guess=TCheck SCRF=Check GenChk RB3LYP/6-31G(d) Freq
 --------------------------------------------------------------------

 Structure from the checkpoint file:  "JID_10244.chk"
 -------------------------------
 CID_60438159_JID_10244_neutraal
 -------------------------------
 Charge =  0 Multiplicity = 1

 SCF Done:  E(RB3LYP) =  -883.038558619     A.U. after    1 cycles

  Exact polarizability: 200.886  20.348 160.533   6.923 -16.849 164.949
 Approx polarizability: 292.290  39.806 242.084  11.734 -45.965 274.305

                      1                      2                      3
                      A                      A                      A
 Frequencies --     28.1477                41.4868                51.4131
 Red. masses --      3.7395                 3.3353                 5.0539
 Frc consts  --      0.0017                 0.0034                 0.0079
 IR Inten    --      1.1212                 0.8860                 0.7432

                      4                      5                      6
                      A                      A                      A
 Frequencies --     62.6941                68.4524                83.7662
 Red. masses --      2.1938                 1.3450                 4.8275
 Frc consts  --      0.0051                 0.0037                 0.0200
 IR Inten    --      1.1472                 0.0885                 4.8929

                      7                      8                      9
                      A                      A                      A
 Frequencies --     97.4147               115.2999               130.9158
 Red. masses --      4.5256                 3.5687                 1.7485
 Frc consts  --      0.0253                 0.0280                 0.0177
 IR Inten    --      1.2363                 1.3512                 0.3855

                     10                     11                     12
                      A                      A                      A
 Frequencies --    142.2723               169.0726               198.9848
 Red. masses --      1.5349                 3.2484                 2.9040
 Frc consts  --      0.0183                 0.0547                 0.0677
 IR Inten    --      0.2679                 2.9229                 9.7186

                     13                     14                     15
                      A                      A                      A
 Frequencies --    223.3087               226.7228               234.9598
 Red. masses --      1.4064                 1.2344                 2.5463
 Frc consts  --      0.0413                 0.0374                 0.0828
 IR Inten    --      0.2805                 0.8046                 1.1460

                     16                     17                     18
                      A                      A                      A
 Frequencies --    243.6949               255.8556               281.0511
 Red. masses --      2.0690                 2.3035                 2.5196
 Frc consts  --      0.0724                 0.0888                 0.1173
 IR Inten    --      1.7111                 0.3761                 0.4264

                     19                     20                     21
                      A                      A                      A
 Frequencies --    293.9398               327.2109               341.2687
 Red. masses --      3.1021                 2.2835                 3.7030
 Frc consts  --      0.1579                 0.1440                 0.2541
 IR Inten    --      0.0926                 3.1688                 0.5795

                     22                     23                     24
                      A                      A                      A
 Frequencies --    354.9605               373.0686               422.4324
 Red. masses --      4.3008                 3.3739                 5.1728
 Frc consts  --      0.3193                 0.2767                 0.5439
 IR Inten    --      6.5835                 0.1290                 1.4021

                     25                     26                     27
                      A                      A                      A
 Frequencies --    436.5593               494.2173               506.8807
 Red. masses --      5.2459                 3.6011                 3.4172
 Frc consts  --      0.5891                 0.5182                 0.5173
 IR Inten    --      9.0826                11.3029                 0.1936

                     28                     29                     30
                      A                      A                      A
 Frequencies --    530.9540               558.8106               573.5287
 Red. masses --      3.1303                 2.7053                 2.5588
 Frc consts  --      0.5199                 0.4977                 0.4959
 IR Inten    --      0.5187                26.4171                 5.4082

                     31                     32                     33
                      A                      A                      A
 Frequencies --    579.5701               585.4319               592.2100
 Red. masses --      4.0196                 3.1888                 3.4637
 Frc consts  --      0.7955                 0.6439                 0.7157
 IR Inten    --      0.4200                 6.5229                 6.3260

                     34                     35                     36
                      A                      A                      A
 Frequencies --    635.4559               646.8214               695.3414
 Red. masses --      2.7636                 3.9901                 3.2230
 Frc consts  --      0.6575                 0.9836                 0.9181
 IR Inten    --     20.7975                16.3841                10.4274

                     37                     38                     39
                      A                      A                      A
 Frequencies --    725.6061               769.8651               785.5057
 Red. masses --      3.7682                 3.7256                 3.4204
 Frc consts  --      1.1689                 1.3010                 1.2435
 IR Inten    --      7.6779                23.1313                 7.4200

                     40                     41                     42
                      A                      A                      A
 Frequencies --    800.4462               811.9499               871.8210
 Red. masses --      2.4139                 1.6806                 1.3986
 Frc consts  --      0.9112                 0.6528                 0.6263
 IR Inten    --      9.1188                 3.7577                 5.3253

                     43                     44                     45
                      A                      A                      A
 Frequencies --    895.4892               901.0719               953.3066
 Red. masses --      2.9174                 1.3235                 1.9076
 Frc consts  --      1.3784                 0.6331                 1.0214
 IR Inten    --      9.3396                 1.1565                 8.0320

                     46                     47                     48
                      A                      A                      A
 Frequencies --    960.3172               962.0859               981.6437
 Red. masses --      2.5020                 2.3457                 3.4933
 Frc consts  --      1.3595                 1.2792                 1.9833
 IR Inten    --      2.8138                 2.7970                 2.1779

                     49                     50                     51
                      A                      A                      A
 Frequencies --   1006.3560              1045.1868              1049.5789
 Red. masses --      2.7911                 1.6957                 1.6143
 Frc consts  --      1.6654                 1.0914                 1.0478
 IR Inten    --      4.9365                 6.2136                 2.7978

                     52                     53                     54
                      A                      A                      A
 Frequencies --   1054.1333              1061.4930              1064.0349
 Red. masses --      1.9324                 1.6716                 2.7867
 Frc consts  --      1.2652                 1.1097                 1.8589
 IR Inten    --     18.9071                 3.0680                 1.7168

                     55                     56                     57
                      A                      A                      A
 Frequencies --   1072.8936              1076.5480              1084.0154
 Red. masses --      1.5323                 1.5277                 2.5933
 Frc consts  --      1.0392                 1.0432                 1.7955
 IR Inten    --      5.8991                 6.6938                 6.2503

                     58                     59                     60
                      A                      A                      A
 Frequencies --   1087.8366              1119.2683              1168.5144
 Red. masses --      1.5843                 2.0439                 2.1514
 Frc consts  --      1.1046                 1.5086                 1.7308
 IR Inten    --      3.3498                 5.5343                 5.8955

                     61                     62                     63
                      A                      A                      A
 Frequencies --   1186.2759              1196.1857              1244.2388
 Red. masses --      1.8389                 1.2857                 1.1836
 Frc consts  --      1.5247                 1.0839                 1.0796
 IR Inten    --      4.7015                 9.2021                22.5492

                     64                     65                     66
                      A                      A                      A
 Frequencies --   1259.0456              1279.3021              1291.4411
 Red. masses --      1.9913                 2.5274                 1.4514
 Frc consts  --      1.8598                 2.4371                 1.4262
 IR Inten    --     21.0412                18.5668                 2.0507

                     67                     68                     69
                      A                      A                      A
 Frequencies --   1291.9543              1315.4730              1320.9793
 Red. masses --      1.3521                 1.7196                 5.8906
 Frc consts  --      1.3297                 1.7532                 6.0562
 IR Inten    --     12.8539                76.7946                 8.5868

                     70                     71                     72
                      A                      A                      A
 Frequencies --   1331.5195              1357.3688              1365.2052
 Red. masses --      1.3488                 5.9622                 1.8512
 Frc consts  --      1.4089                 6.4722                 2.0328
 IR Inten    --      5.8007                32.5662                60.7920

                     73                     74                     75
                      A                      A                      A
 Frequencies --   1373.5752              1380.6700              1416.7758
 Red. masses --      1.7254                 2.2576                 1.2918
 Frc consts  --      1.9179                 2.5356                 1.5277
 IR Inten    --     33.5188               131.3159                 6.6849

                     76                     77                     78
                      A                      A                      A
 Frequencies --   1438.4514              1440.7228              1447.3200
 Red. masses --      1.2426                 1.2666                 1.2657
 Frc consts  --      1.5149                 1.5490                 1.5621
 IR Inten    --      2.8026                 5.9703                 3.5419

                     79                     80                     81
                      A                      A                      A
 Frequencies --   1449.1575              1453.7615              1466.1763
 Red. masses --      1.4174                 1.3918                 2.4994
 Frc consts  --      1.7538                 1.7331                 3.1656
 IR Inten    --      8.0650                 5.0088                 1.1207

                     82                     83                     84
                      A                      A                      A
 Frequencies --   1489.5767              1495.1591              1505.2215
 Red. masses --      2.1045                 1.8302                 1.0984
 Frc consts  --      2.7512                 2.4105                 1.4663
 IR Inten    --     79.7005                 8.0759                13.7302

                     85                     86                     87
                      A                      A                      A
 Frequencies --   1507.1410              1515.1675              1517.1679
 Red. masses --      1.1345                 1.0570                 1.0515
 Frc consts  --      1.5183                 1.4297                 1.4261
 IR Inten    --     10.6729                 3.7565                 1.9885

                     88                     89                     90
                      A                      A                      A
 Frequencies --   1521.9165              1523.2670              1525.9480
 Red. masses --      1.0751                 1.0669                 1.1007
 Frc consts  --      1.4672                 1.4585                 1.5101
 IR Inten    --      1.5907                 5.5434                12.6580

                     91                     92                     93
                      A                      A                      A
 Frequencies --   1529.4213              1535.9482              1549.1250
 Red. masses --      1.0613                 1.2880                 1.2714
 Frc consts  --      1.4627                 1.7902                 1.7976
 IR Inten    --     12.9995                26.8336                26.1554

                     94                     95                     96
                      A                      A                      A
 Frequencies --   1560.5191              1638.3694              1666.8573
 Red. masses --      1.1285                 6.2735                 5.5293
 Frc consts  --      1.6191                 9.9217                 9.0514
 IR Inten    --     15.2658                 9.2476                 8.7792

                     97                     98                     99
                      A                      A                      A
 Frequencies --   1776.1028              1795.0850              3031.1238
 Red. masses --      7.7855                10.9525                 1.0722
 Frc consts  --     14.4702                20.7938                 5.8041
 IR Inten    --    353.8618               308.2634                12.0000

                    100                    101                    102
                      A                      A                      A
 Frequencies --   3034.6572              3043.3541              3047.8563
 Red. masses --      1.0714                 1.0404                 1.0395
 Frc consts  --      5.8132                 5.6777                 5.6896
 IR Inten    --     88.4111                26.9155                21.8543

                    103                    104                    105
                      A                      A                      A
 Frequencies --   3056.9952              3061.2443              3091.8025
 Red. masses --      1.0378                 1.0377                 1.0712
 Frc consts  --      5.7144                 5.7295                 6.0334
 IR Inten    --     15.9863                18.5325                13.0661

                    106                    107                    108
                      A                      A                      A
 Frequencies --   3098.0986              3101.2115              3113.0038
 Red. masses --      1.0978                 1.0958                 1.1012
 Frc consts  --      6.2083                 6.2094                 6.2877
 IR Inten    --     18.0664                22.1268                 8.9400

                    109                    110                    111
                      A                      A                      A
 Frequencies --   3115.9030              3118.7323              3130.0714
 Red. masses --      1.0918                 1.0948                 1.1026
 Frc consts  --      6.2455                 6.2740                 6.3648
 IR Inten    --     10.0131                11.7860                12.7981

                    112                    113                    114
                      A                      A                      A
 Frequencies --   3132.4304              3134.9440              3136.6653
 Red. masses --      1.0964                 1.1011                 1.0868
 Frc consts  --      6.3387                 6.3757                 6.2997
 IR Inten    --     31.8946                18.8738                10.7865

                    115                    116                    117
                      A                      A                      A
 Frequencies --   3151.5300              3158.9108              3165.7957
 Red. masses --      1.1004                 1.1014                 1.0931
 Frc consts  --      6.4394                 6.4756                 6.4545
 IR Inten    --     12.1521                13.9979                 2.6658

                    118                    119                    120
                      A                      A                      A
 Frequencies --   3174.1437              3176.7448              3529.6345
 Red. masses --      1.0899                 1.0902                 1.0737
 Frc consts  --      6.4699                 6.4825                 7.8813
 IR Inten    --     20.4562                10.5145                16.6530

 - Thermochemistry -
 -------------------
 Temperature   298.150 Kelvin.  Pressure   1.00000 Atm.
 Atom     1 has atomic number  6 and mass  12.00000

 Molecular mass:   274.16813 amu.
 Principal axes and moments of inertia in atomic units:
                           1         2         3
     Eigenvalues --  4213.211735281.795546707.96138
           X            0.99984   0.01525   0.00890
           Y           -0.01531   0.99986   0.00658
           Z           -0.00880  -0.00672   0.99994
 This molecule is an asymmetric top.
 Rotational symmetry number  1.
 Warning -- assumption of classical behavior for rotation
           may cause significant error
 Rotational temperatures (Kelvin)      0.02056     0.01640     0.01291
 Rotational constants (GHZ):           0.42835     0.34169     0.26904
 Zero-point vibrational energy     949090.8 (Joules/Mol)
                                  226.83814 (Kcal/Mol)
 Warning -- explicit consideration of  33 degrees of freedom as
           vibrations may cause significant error
 Vibrational temperatures:     40.50    59.69    73.97    90.20    98.49
          (Kelvin)            120.52   140.16   165.89   188.36   204.70
                              243.26   286.29   321.29   326.20   338.05
                              350.62   368.12   404.37   422.91   470.78
                              491.01   510.71   536.76   607.79   628.11
                              711.07   729.29   763.92   804.00   825.18
                              833.87   842.31   852.06   914.28   930.63
                             1000.44  1043.99  1107.66  1130.17  1151.66
                             1168.21  1254.36  1288.41  1296.44  1371.60
                             1381.68  1384.23  1412.37  1447.92  1503.79
                             1510.11  1516.66  1527.25  1530.91  1543.65
                             1548.91  1559.66  1565.15  1610.38  1681.23
                             1706.79  1721.04  1790.18  1811.49  1840.63
                             1858.10  1858.83  1892.67  1900.59  1915.76
                             1952.95  1964.23  1976.27  1986.48  2038.42
                             2069.61  2072.88  2082.37  2085.01  2091.64
                             2109.50  2143.17  2151.20  2165.68  2168.44
                             2179.99  2182.87  2189.70  2191.64  2195.50
                             2200.50  2209.89  2228.85  2245.24  2357.25
                             2398.24  2555.42  2582.73  4361.11  4366.19
                             4378.71  4385.19  4398.33  4404.45  4448.41
                             4457.47  4461.95  4478.92  4483.09  4487.16
                             4503.47  4506.87  4510.49  4512.96  4534.35
                             4544.97  4554.87  4566.88  4570.63  5078.36

 Zero-point correction=                           0.361490 (Hartree/Particle)
 Thermal correction to Energy=                    0.381901
 Thermal correction to Enthalpy=                  0.382846
 Thermal correction to Gibbs Free Energy=         0.312142
 Sum of electronic and zero-point Energies=           -882.677069
 Sum of electronic and thermal Energies=              -882.656657
 Sum of electronic and thermal Enthalpies=            -882.655713
 Sum of electronic and thermal Free Energies=         -882.726417

                     E (Thermal)             CV                S
                      KCal/Mol        Cal/Mol-Kelvin    Cal/Mol-Kelvin
 Total                  239.647             76.594            148.808
 Electronic               0.000              0.000              0.000
 Translational            0.889              2.981             42.724
 Rotational               0.889              2.981             33.367
 Vibrational            237.869             70.632             72.716
 Vibration     1          0.593              1.984              5.956
 Vibration     2          0.594              1.981              5.187
 Vibration     3          0.596              1.977              4.762
 Vibration     4          0.597              1.972              4.371
 Vibration     5          0.598              1.969              4.197
 Vibration     6          0.601              1.960              3.801
 Vibration     7          0.603              1.951              3.505
 Vibration     8          0.608              1.937              3.178
 Vibration     9          0.612              1.922              2.933
 Vibration    10          0.616              1.911              2.773
 Vibration    11          0.625              1.881              2.446
 Vibration    12          0.637              1.841              2.142
 Vibration    13          0.649              1.806              1.932
 Vibration    14          0.650              1.800              1.905
 Vibration    15          0.655              1.787              1.841
 Vibration    16          0.659              1.773              1.776
 Vibration    17          0.666              1.753              1.690
 Vibration    18          0.681              1.709              1.527
 Vibration    19          0.689              1.685              1.451
 Vibration    20          0.711              1.621              1.274
 Vibration    21          0.721              1.593              1.206
 Vibration    22          0.731              1.565              1.144
 Vibration    23          0.744              1.527              1.067
 Vibration    24          0.785              1.421              0.884
 Vibration    25          0.797              1.391              0.837
 Vibration    26          0.850              1.263              0.673
 Vibration    27          0.862              1.235              0.641
 Vibration    28          0.886              1.182              0.585
 Vibration    29          0.914              1.120              0.526
 Vibration    30          0.930              1.089              0.497
 Vibration    31          0.936              1.075              0.486
 Vibration    32          0.942              1.063              0.475
 Vibration    33          0.950              1.048              0.463

 Optimization completed.
    -- Stationary point found.
 Normal termination of Gaussian 16 at Sat Dec 12 16:32:19 2020.

 ----------------------------------------------------------------------
 # B3LYP/6-311++G(d,p) empiricaldispersion=gd3bj scf=xqc pop=npa geom=c
 heck
 ----------------------------------------------------------------------

 ---------------------------------------
 CID_60438159_JID_10244_Energie_neutraal
 ---------------------------------------
 Structure from the checkpoint file:  "JID_10244.chk"
 Charge =  0 Multiplicity = 1

 SCF Done:  E(RB3LYP) =  -883.281597248     A.U. after   15 cycles
 Normal termination of Gaussian 16 at Sat Dec 12 16:45:07 2020.

 ----------------------------------------------------------------------
 # B3LYP/6-311++G(d,p) empiricaldispersion=gd3bj scf=xqc pop=npa geom=c
 heck
 ----------------------------------------------------------------------

 -------------------------------------
 CID_60438159_JID_10244_Energie_kation
 -------------------------------------
 Structure from the checkpoint file:  "JID_10244.chk"
 Charge =  1 Multiplicity = 2

 SCF Done:  E(UB3LYP) =  -882.977810638     A.U. after   32 cycles
 Normal termination of Gaussian 16 at Sat Dec 12 17:23:58 2020.
 Gaussian 16:  ES64L-G16RevA.03 25-Dec-2016

 ----------------------------------------------------------------------
 # B3LYP/6-311++G(d,p) empiricaldispersion=gd3bj scf=xqc pop=npa geom=c
 heck
 ----------------------------------------------------------------------

 ------------------------------------
 CID_60438159_JID_10244_Energie_anion
 ------------------------------------
 Structure from the checkpoint file:  "JID_10244.chk"
 Charge = -1 Multiplicity = 2

                         Standard orientation:
 ---------------------------------------------------------------------
 Center     Atomic      Atomic             Coordinates (Angstroms)
 Number     Number       Type             X           Y           Z
 ---------------------------------------------------------------------
      1          6           0       -1.383647   -2.243787   -1.457864
      2          6           0        0.074316   -2.699610   -1.416818
      3          7           0        0.970304   -1.735756   -0.803095
      4          6           0        1.413436   -0.538523   -1.491095
      5          6           0        2.434578    0.132726   -0.522154
      6          6           0        2.542162   -0.836153    0.679048
      7          6           0        1.505627   -1.925466    0.438099
      8          8           0        1.219878   -2.833837    1.207313
      9          6           0        2.169290    1.572277   -0.080270
     10          8           0        3.046766    2.416665   -0.206949
     11          7           0        0.994731    1.904972    0.571289
     12          6           0       -0.309966    1.311650    0.477056
     13          6           0       -1.132371    1.682437   -0.609484
     14          6           0       -2.427090    1.173584   -0.678946
     15          6           0       -2.932465    0.319222    0.308760
     16          6           0       -2.111311    0.000640    1.387560
     17          6           0       -0.802483    0.490104    1.501969
     18          6           0       -0.001714    0.149282    2.733582
     19          6           0       -4.320180   -0.258504    0.188516
     20          6           0       -0.632323    2.647091   -1.656813
     21          1           0       -1.758745   -2.092640   -0.443194
     22          1           0       -2.000055   -3.002109   -1.953782
     23          1           0       -1.499482   -1.300255   -2.000360
     24          1           0        0.166703   -3.615427   -0.827159
     25          1           0        0.440369   -2.908280   -2.431623
     26          1           0        0.563614    0.107219   -1.725228
     27          1           0        1.898573   -0.801778   -2.440781
     28          1           0        3.397112    0.210943   -1.026739
     29          1           0        2.369224   -0.355489    1.641922
     30          1           0        3.527577   -1.309704    0.733034
     31          1           0        1.006346    2.896059    0.796564
     32          1           0       -3.061791    1.456334   -1.515846
     33          1           0       -2.495960   -0.640053    2.177888
     34          1           0        0.365678   -0.882588    2.690788
     35          1           0        0.852686    0.818821    2.851673
     36          1           0       -0.630346    0.232554    3.626592
     37          1           0       -5.019833    0.463988   -0.245044
     38          1           0       -4.318573   -1.141791   -0.463681
     39          1           0       -4.709947   -0.570894    1.162211
     40          1           0       -0.420738    3.633378   -1.224941
     41          1           0        0.300744    2.311307   -2.122980
     42          1           0       -1.376721    2.781452   -2.446455
 ---------------------------------------------------------------------

 SCF Done:  E(UB3LYP) =  -883.272299733     A.U. after   33 cycles
 SCF Done:  E(UB3LYP) =  -883.272299734     a.u. after    1 cycles

 The electronic state is 2-A.
 Alpha  occ. eigenvalues --  -19.00932 -19.00110 -14.25537 -14.25465 -10.19499
 Alpha  occ. eigenvalues --  -10.18205 -10.12678 -10.12656 -10.11517 -10.11230
 Alpha  occ. eigenvalues --  -10.10428 -10.10253 -10.10102 -10.09917 -10.08358
 Alpha  occ. eigenvalues --  -10.08222 -10.08184 -10.08171 -10.08066 -10.06826
 Alpha  occ. eigenvalues --   -0.96123  -0.95218  -0.86479  -0.84794  -0.77286
 Alpha  occ. eigenvalues --   -0.73090  -0.70362  -0.69439  -0.65996  -0.64098
 Alpha  occ. eigenvalues --   -0.62028  -0.60360  -0.59801  -0.57148  -0.54419
 Alpha  occ. eigenvalues --   -0.51075  -0.49945  -0.48554  -0.45553  -0.44437
 Alpha  occ. eigenvalues --   -0.41585  -0.41010  -0.40385  -0.39270  -0.36912
 Alpha  occ. eigenvalues --   -0.36496  -0.35601  -0.34962  -0.34630  -0.34301
 Alpha  occ. eigenvalues --   -0.33527  -0.33088  -0.32563  -0.32415  -0.32345
 Alpha  occ. eigenvalues --   -0.31969  -0.31698  -0.31187  -0.30941  -0.29049
 Alpha  occ. eigenvalues --   -0.28581  -0.27997  -0.27662  -0.26425  -0.26128
 Alpha  occ. eigenvalues --   -0.25752  -0.25691  -0.25036  -0.18835  -0.18071
 Alpha  occ. eigenvalues --   -0.16989  -0.16375  -0.15707  -0.15426   0.03821
 Alpha virt. eigenvalues --    0.05832   0.06118   0.06454   0.06835   0.06836
 Alpha virt. eigenvalues --    0.07612   0.08185   0.08400   0.08536   0.09120
 Alpha virt. eigenvalues --    0.09469   0.10188   0.10637   0.10866   0.11423

  Beta  occ. eigenvalues --  -19.00922 -19.00106 -14.25539 -14.25454 -10.19497
  Beta  occ. eigenvalues --  -10.18200 -10.12652 -10.12646 -10.11501 -10.11223
  Beta  occ. eigenvalues --  -10.10428 -10.10252 -10.10098 -10.09913 -10.08351
  Beta  occ. eigenvalues --  -10.08204 -10.08162 -10.08148 -10.08037 -10.06803
  Beta  occ. eigenvalues --   -0.96107  -0.95211  -0.86472  -0.84776  -0.77272
  Beta  occ. eigenvalues --   -0.73071  -0.70346  -0.69416  -0.65967  -0.64062
  Beta  occ. eigenvalues --   -0.61989  -0.60327  -0.59766  -0.57110  -0.54381
  Beta  occ. eigenvalues --   -0.51048  -0.49912  -0.48523  -0.45519  -0.44405
  Beta  occ. eigenvalues --   -0.41551  -0.40990  -0.40359  -0.39251  -0.36885
  Beta  occ. eigenvalues --   -0.36465  -0.35577  -0.34941  -0.34601  -0.34266
  Beta  occ. eigenvalues --   -0.33503  -0.33059  -0.32533  -0.32391  -0.32321
  Beta  occ. eigenvalues --   -0.31946  -0.31676  -0.31162  -0.30904  -0.29022
  Beta  occ. eigenvalues --   -0.28554  -0.27963  -0.27636  -0.26400  -0.26106
  Beta  occ. eigenvalues --   -0.25727  -0.25672  -0.25016  -0.18822  -0.18048
  Beta  occ. eigenvalues --   -0.16980  -0.16361  -0.15687  -0.15411
  Beta virt. eigenvalues --    0.05922   0.06322   0.06582   0.06695   0.07134
  Beta virt. eigenvalues --    0.07376   0.07903   0.08398   0.08699   0.09024
  Beta virt. eigenvalues --    0.09410   0.09730   0.10402   0.11010   0.11057

 Mulliken charges and spin densities:
               1          2
     1  C    0.004976  -0.396245
     2  C    0.053921  -0.356381
     3  N    0.142297   0.039818
     4  C    0.678113  -0.982978
     5  C   -0.105477   0.262719
     6  C    0.521593  -0.780343
     7  C   -0.427945   0.247697
     8  O   -0.316516   0.003601
     9  C   -0.888583   0.502374
    10  O   -0.280126   0.010257
    11  N   -0.524038   0.289718
    12  C   -0.002216   0.070237
    13  C   -1.458689   1.392938
    14  C    0.144481  -0.716166
    15  C   -0.116759   0.697738
    16  C   -0.444717   0.009358
    17  C    0.565103  -0.371619
    18  C   -0.375798  -0.276787
    19  C    2.011581  -2.550070
    20  C    0.821599  -1.269300
    21  H    0.309730  -0.101479
    22  H   -0.261864   0.416435
    23  H   -0.169737   0.350535
    24  H    0.106416   0.069518
    25  H   -0.236138   0.394859
    26  H    0.734327  -0.599850
    27  H   -0.672467   0.901202
    28  H    0.070368   0.221332
    29  H    0.267116  -0.086980
    30  H    0.101918   0.103537
    31  H    0.075629   0.258201
    32  H   -0.419130   0.621288
    33  H   -0.002085   0.191053
    34  H    0.198344   0.035306
    35  H    0.062286   0.080270
    36  H    0.000531   0.151207
    37  H   -0.288782   0.435045
    38  H   -0.040080   0.225283
    39  H   -0.168556   0.308793
    40  H   -0.001529   0.179564
    41  H   -0.050584   0.226421
    42  H   -0.618513   0.791892
 Sum of Mulliken charges =  -1.00000   1.00000

 Dipole moment (field-independent basis, Debye):
    X=              2.5105    Y=             -0.6778    Z=              4.8435  Tot=              5.4975
 Quadrupole moment (field-independent basis, Debye-Ang):
   XX=           -193.6675   YY=           -180.1719   ZZ=           -173.7580
   XY=             -0.8404   XZ=             -2.9630   YZ=              5.0384

 Summary of Natural Population Analysis:

                                       Natural Population
                Natural  -----------------------------------------------
    Atom  No    Charge         Core      Valence    Rydberg      Total
 -----------------------------------------------------------------------
      C    1   -0.28944      0.99965     2.28475    0.00504     3.28944
      C    2   -0.08505      0.99962     2.07488    0.01055     3.08505
      N    3   -0.25070      0.99962     2.73905    0.01202     3.75070
      C    4   -0.07409      0.99960     2.06389    0.01060     3.07409
      C    5   -0.15442      0.99956     2.14374    0.01112     3.15442
      C    6   -0.22699      0.99958     2.21960    0.00782     3.22699
      C    7    0.34779      0.99962     1.62918    0.02341     2.65221
      O    8   -0.32828      0.99987     3.32333    0.00508     4.32828
      C    9    0.35406      0.99963     1.62387    0.02244     2.64594
      O   10   -0.31744      0.99988     3.31197    0.00560     4.31744
      N   11   -0.32807      0.99965     2.81790    0.01052     3.82807
      C   12    0.05119      0.99935     1.93628    0.01318     2.94881
      C   13   -0.00847      0.99947     1.99857    0.01043     3.00847
      C   14   -0.10194      0.99945     2.09189    0.01060     3.10194
      C   15   -0.00138      0.99951     1.99197    0.00990     3.00138
      C   16   -0.10276      0.99946     2.09428    0.00901     3.10276
      C   17   -0.00470      0.99946     1.99594    0.00931     3.00470
      C   18   -0.30236      0.99963     2.29718    0.00556     3.30236
      C   19   -0.29393      0.99963     2.28833    0.00597     3.29393
      C   20   -0.29477      0.99963     2.28882    0.00633     3.29477
      H   21    0.10299      0.00000     0.39536    0.00165     0.39701
      H   22    0.09941      0.00000     0.39960    0.00099     0.40059
      H   23    0.10118      0.00000     0.39700    0.00182     0.39882
      H   24    0.10805      0.00000     0.39073    0.00123     0.39195
      H   25    0.09400      0.00000     0.40460    0.00140     0.40600
      H   26    0.10172      0.00000     0.39536    0.00292     0.39828
      H   27    0.09788      0.00000     0.40010    0.00202     0.40212
      H   28    0.11691      0.00000     0.38203    0.00106     0.38309
      H   29    0.11487      0.00000     0.38401    0.00112     0.38513
      H   30    0.11293      0.00000     0.38620    0.00087     0.38707
      H   31    0.19639      0.00000     0.30122    0.00238     0.30361
      H   32    0.10306      0.00000     0.39493    0.00201     0.39694
      H   33    0.09877      0.00000     0.39999    0.00124     0.40123
      H   34    0.11677      0.00000     0.38218    0.00105     0.38323
      H   35    0.10595      0.00000     0.39326    0.00079     0.39405
      H   36    0.10424      0.00000     0.39508    0.00069     0.39576
      H   37    0.10632      0.00000     0.39248    0.00121     0.39368
      H   38    0.10769      0.00000     0.39126    0.00105     0.39231
      H   39    0.10224      0.00000     0.39680    0.00096     0.39776
      H   40    0.10645      0.00000     0.39240    0.00115     0.39355
      H   41    0.10582      0.00000     0.39285    0.00133     0.39418
      H   42    0.10815      0.00000     0.39056    0.00130     0.39185
 =======================================================================
   * Total *    0.00000     19.99185    53.77341    0.23473    74.00000

 Normal termination of Gaussian 16 at Sat Dec 12 18:04:04 2020.
