 Gaussian 16, Revision A.03,

 -----------------------------------------------------------
 # opt freq B3LYP/6-31G(d) empiricaldispersion=gd3bj scf=xqc
 -----------------------------------------------------------

 ------------------------------
 CID_14214846_JID_4539_neutraal
 ------------------------------
 Symbolic Z-matrix:
 Charge =  0 Multiplicity = 1

 SCF Done:  E(RB3LYP) =  -653.289158004     A.U. after   15 cycles
 SCF Done:  E(RB3LYP) =  -653.291510945     A.U. after   13 cycles
 SCF Done:  E(RB3LYP) =  -653.291673296     A.U. after   12 cycles
 SCF Done:  E(RB3LYP) =  -653.291854058     A.U. after   11 cycles
 SCF Done:  E(RB3LYP) =  -653.291835047     A.U. after   11 cycles
 SCF Done:  E(RB3LYP) =  -653.291838614     A.U. after   12 cycles
 SCF Done:  E(RB3LYP) =  -653.291876103     A.U. after   11 cycles
 SCF Done:  E(RB3LYP) =  -653.291886082     A.U. after   10 cycles
 SCF Done:  E(RB3LYP) =  -653.291889263     A.U. after   10 cycles
 SCF Done:  E(RB3LYP) =  -653.291891842     A.U. after    8 cycles
 SCF Done:  E(RB3LYP) =  -653.291892157     A.U. after    8 cycles
 SCF Done:  E(RB3LYP) =  -653.291892297     A.U. after    7 cycles
 SCF Done:  E(RB3LYP) =  -653.291892313     A.U. after    7 cycles
 Optimization completed.
    -- Stationary point found.
 Normal termination of Gaussian 16 at Thu Dec 10 10:02:18 2020.

 --------------------------------------------------------------------
 #N Geom=AllCheck Guess=TCheck SCRF=Check GenChk RB3LYP/6-31G(d) Freq
 --------------------------------------------------------------------

 Structure from the checkpoint file:  "JID_4539.chk"
 ------------------------------
 CID_14214846_JID_4539_neutraal
 ------------------------------
 Charge =  0 Multiplicity = 1

 SCF Done:  E(RB3LYP) =  -653.291892313     A.U. after    1 cycles

  Exact polarizability: 165.404   1.921 121.722  12.565  -1.800  81.983
 Approx polarizability: 234.072  16.266 199.040  23.444   0.372 124.217

                      1                      2                      3
                      A                      A                      A
 Frequencies --     49.4841                91.0919               113.4286
 Red. masses --      5.9010                 4.8630                 4.3286
 Frc consts  --      0.0085                 0.0238                 0.0328
 IR Inten    --      1.4817                 1.0061                 1.8281

                      4                      5                      6
                      A                      A                      A
 Frequencies --    140.9940               172.9267               190.0643
 Red. masses --      5.1907                 4.3862                 3.2143
 Frc consts  --      0.0608                 0.0773                 0.0684
 IR Inten    --      5.4053                 0.3196                15.6128

                      7                      8                      9
                      A                      A                      A
 Frequencies --    213.2579               244.4263               249.2931
 Red. masses --      2.5296                 2.8950                 1.1673
 Frc consts  --      0.0678                 0.1019                 0.0427
 IR Inten    --      4.7658                 0.6289                 8.6555

                     10                     11                     12
                      A                      A                      A
 Frequencies --    299.4491               315.2709               332.7476
 Red. masses --      2.4923                 3.1316                 1.1693
 Frc consts  --      0.1317                 0.1834                 0.0763
 IR Inten    --      0.9232                 2.7747                81.4139

                     13                     14                     15
                      A                      A                      A
 Frequencies --    354.1837               382.4320               412.1398
 Red. masses --      3.0799                 2.3422                 2.9874
 Frc consts  --      0.2276                 0.2018                 0.2990
 IR Inten    --      1.8293                 9.1621                 1.3142

                     16                     17                     18
                      A                      A                      A
 Frequencies --    449.8779               520.0672               571.8330
 Red. masses --      4.0834                 3.6795                 4.0734
 Frc consts  --      0.4869                 0.5863                 0.7848
 IR Inten    --      1.1870                 1.0005                 5.3985

                     19                     20                     21
                      A                      A                      A
 Frequencies --    589.8864               644.3475               664.1984
 Red. masses --      4.1217                 5.3085                 4.1402
 Frc consts  --      0.8450                 1.2986                 1.0761
 IR Inten    --      2.3343                 1.0026                 3.7040

                     22                     23                     24
                      A                      A                      A
 Frequencies --    695.7395               781.6890               789.2685
 Red. masses --      3.3887                 3.1179                 2.7225
 Frc consts  --      0.9664                 1.1225                 0.9992
 IR Inten    --     11.4794                 8.2860                20.8028

                     25                     26                     27
                      A                      A                      A
 Frequencies --    824.9326               850.8863               859.0279
 Red. masses --      3.2562                 1.3764                 2.2216
 Frc consts  --      1.3056                 0.5871                 0.9659
 IR Inten    --     43.6728                13.1929                 1.7228

                     28                     29                     30
                      A                      A                      A
 Frequencies --    917.1237               935.7778               988.0383
 Red. masses --      2.0708                 1.7957                 5.6867
 Frc consts  --      1.0262                 0.9265                 3.2708
 IR Inten    --      2.9861                 2.0482                17.3561

                     31                     32                     33
                      A                      A                      A
 Frequencies --    996.3824              1004.3905              1012.2956
 Red. masses --      1.8273                 1.7050                 2.3703
 Frc consts  --      1.0689                 1.0134                 1.4311
 IR Inten    --     20.4920                 0.1739                39.3072

                     34                     35                     36
                      A                      A                      A
 Frequencies --   1047.7807              1089.4658              1094.0638
 Red. masses --      1.6227                 2.4441                 2.8267
 Frc consts  --      1.0496                 1.7092                 1.9935
 IR Inten    --      3.4096                35.1598                53.1944

                     37                     38                     39
                      A                      A                      A
 Frequencies --   1127.0764              1128.5783              1161.4596
 Red. masses --      1.8208                 1.9221                 1.3807
 Frc consts  --      1.3628                 1.4424                 1.0974
 IR Inten    --      0.4421                21.4631                26.7854

                     40                     41                     42
                      A                      A                      A
 Frequencies --   1188.4388              1199.0652              1219.1202
 Red. masses --      1.5555                 1.7846                 1.5326
 Frc consts  --      1.2944                 1.5117                 1.3421
 IR Inten    --      5.5926                21.7027                10.7742

                     43                     44                     45
                      A                      A                      A
 Frequencies --   1255.7854              1270.6541              1316.2264
 Red. masses --      1.5507                 2.4567                 1.7955
 Frc consts  --      1.4409                 2.3370                 1.8327
 IR Inten    --      7.1449                 3.5473                16.8551

                     46                     47                     48
                      A                      A                      A
 Frequencies --   1319.8980              1340.3905              1367.0180
 Red. masses --      1.5367                 2.2622                 1.5013
 Frc consts  --      1.5773                 2.3947                 1.6529
 IR Inten    --      1.8139                71.7944                 9.5825

                     49                     50                     51
                      A                      A                      A
 Frequencies --   1380.5571              1398.6466              1400.5367
 Red. masses --      1.4165                 1.4145                 1.6440
 Frc consts  --      1.5907                 1.6303                 1.9000
 IR Inten    --      0.3288                 2.6245                21.0264

                     52                     53                     54
                      A                      A                      A
 Frequencies --   1413.3281              1421.8023              1434.2555
 Red. masses --      1.3523                 1.3291                 1.2416
 Frc consts  --      1.5915                 1.5830                 1.5049
 IR Inten    --      9.0707                 6.8981                 1.2705

                     55                     56                     57
                      A                      A                      A
 Frequencies --   1446.6681              1475.1510              1508.3114
 Red. masses --      1.3246                 3.1524                 1.1579
 Frc consts  --      1.6333                 4.0418                 1.5520
 IR Inten    --     22.1832                24.8414                 3.4793

                     58                     59                     60
                      A                      A                      A
 Frequencies --   1522.1119              1528.6901              1540.1182
 Red. masses --      1.0632                 1.0806                 1.0800
 Frc consts  --      1.4513                 1.4879                 1.5093
 IR Inten    --      4.4508                 5.2361                 1.1397

                     61                     62                     63
                      A                      A                      A
 Frequencies --   1545.0854              1573.7444              1653.1128
 Red. masses --      1.0708                 6.6281                 7.1221
 Frc consts  --      1.5061                 9.6718                11.4673
 IR Inten    --      6.7431               122.4226                 4.5936

                     64                     65                     66
                      A                      A                      A
 Frequencies --   1785.8704              2914.7810              3017.5315
 Red. masses --      9.3863                 1.0833                 1.0687
 Frc consts  --     17.6379                 5.4226                 5.7333
 IR Inten    --    394.6864               139.0034                39.5344

                     67                     68                     69
                      A                      A                      A
 Frequencies --   3020.8005              3033.1749              3046.6355
 Red. masses --      1.0828                 1.0654                 1.0405
 Frc consts  --      5.8217                 5.7748                 5.6901
 IR Inten    --     18.4244                15.8018                24.5744

                     70                     71                     72
                      A                      A                      A
 Frequencies --   3051.1038              3064.1346              3073.2272
 Red. masses --      1.0646                 1.0798                 1.0978
 Frc consts  --      5.8394                 5.9735                 6.1090
 IR Inten    --     18.6349                52.8485                15.9882

                     73                     74                     75
                      A                      A                      A
 Frequencies --   3090.1459              3097.9781              3112.5924
 Red. masses --      1.1012                 1.0968                 1.1006
 Frc consts  --      6.1955                 6.2019                 6.2824
 IR Inten    --     28.5823                55.4233                31.8626

                     76                     77                     78
                      A                      A                      A
 Frequencies --   3125.5785              3258.6402              3763.9527
 Red. masses --      1.1013                 1.0962                 1.0657
 Frc consts  --      6.3391                 6.8585                 8.8955
 IR Inten    --     30.1390                 1.8381                14.7395

 - Thermochemistry -
 -------------------
 Temperature   298.150 Kelvin.  Pressure   1.00000 Atm.
 Atom     1 has atomic number  6 and mass  12.00000

 Molecular mass:   194.09429 amu.
 Principal axes and moments of inertia in atomic units:
                           1         2         3
     Eigenvalues --  1263.741224453.473104994.14425
           X            0.99999  -0.00415   0.00143
           Y            0.00418   0.99965  -0.02624
           Z           -0.00132   0.02625   0.99965
 This molecule is an asymmetric top.
 Rotational symmetry number  1.
 Warning -- assumption of classical behavior for rotation
           may cause significant error
 Rotational temperatures (Kelvin)      0.06854     0.01945     0.01734
 Rotational constants (GHZ):           1.42809     0.40524     0.36137
 Zero-point vibrational energy     618949.3 (Joules/Mol)
                                  147.93243 (Kcal/Mol)
 Warning -- explicit consideration of  19 degrees of freedom as
           vibrations may cause significant error
 Vibrational temperatures:     71.20   131.06   163.20   202.86   248.80
          (Kelvin)            273.46   306.83   351.67   358.68   430.84
                              453.60   478.75   509.59   550.23   592.98
                              647.27   748.26   822.74   848.72   927.07
                              955.63  1001.01  1124.68  1135.58  1186.89
                             1224.24  1235.95  1319.54  1346.38  1421.57
                             1433.57  1445.09  1456.47  1507.52  1567.50
                             1574.11  1621.61  1623.77  1671.08  1709.90
                             1725.19  1754.04  1806.80  1828.19  1893.76
                             1899.04  1928.52  1966.83  1986.31  2012.34
                             2015.06  2033.46  2045.66  2063.57  2081.43
                             2122.41  2170.12  2189.98  2199.44  2215.89
                             2223.03  2264.27  2378.46  2569.47  4193.72
                             4341.55  4346.26  4364.06  4383.43  4389.86
                             4408.61  4421.69  4446.03  4457.30  4478.33
                             4497.01  4688.46  5415.49

 Zero-point correction=                           0.235745 (Hartree/Particle)
 Thermal correction to Energy=                    0.248571
 Thermal correction to Enthalpy=                  0.249515
 Thermal correction to Gibbs Free Energy=         0.196786
 Sum of electronic and zero-point Energies=           -653.056147
 Sum of electronic and thermal Energies=              -653.043321
 Sum of electronic and thermal Enthalpies=            -653.042377
 Sum of electronic and thermal Free Energies=         -653.095106

                     E (Thermal)             CV                S
                      KCal/Mol        Cal/Mol-Kelvin    Cal/Mol-Kelvin
 Total                  155.981             49.573            110.979
 Electronic               0.000              0.000              0.000
 Translational            0.889              2.981             41.695
 Rotational               0.889              2.981             31.708
 Vibrational            154.203             43.611             37.576
 Vibration     1          0.595              1.978              4.838
 Vibration     2          0.602              1.956              3.636
 Vibration     3          0.607              1.938              3.209
 Vibration     4          0.615              1.912              2.790
 Vibration     5          0.626              1.876              2.403
 Vibration     6          0.633              1.854              2.227
 Vibration     7          0.644              1.821              2.016
 Vibration     8          0.660              1.772              1.770
 Vibration     9          0.662              1.764              1.736
 Vibration    10          0.692              1.675              1.420
 Vibration    11          0.703              1.644              1.335
 Vibration    12          0.715              1.610              1.247
 Vibration    13          0.730              1.567              1.148
 Vibration    14          0.752              1.508              1.030
 Vibration    15          0.776              1.444              0.919
 Vibration    16          0.809              1.361              0.796
 Vibration    17          0.875              1.206              0.610
 Vibration    18          0.928              1.092              0.501
 Vibration    19          0.947              1.053              0.467

 Optimization completed.
    -- Stationary point found.
 Normal termination of Gaussian 16 at Thu Dec 10 10:10:50 2020.

 ----------------------------------------------------------------------
 # B3LYP/6-311++G(d,p) empiricaldispersion=gd3bj scf=xqc pop=npa geom=c
 heck
 ----------------------------------------------------------------------

 --------------------------------------
 CID_14214846_JID_4539_Energie_neutraal
 --------------------------------------
 Structure from the checkpoint file:  "JID_4539.chk"
 Charge =  0 Multiplicity = 1

 SCF Done:  E(RB3LYP) =  -653.483199533     A.U. after   15 cycles
 Normal termination of Gaussian 16 at Thu Dec 10 10:14:53 2020.

 ----------------------------------------------------------------------
 # B3LYP/6-311++G(d,p) empiricaldispersion=gd3bj scf=xqc pop=npa geom=c
 heck
 ----------------------------------------------------------------------

 ------------------------------------
 CID_14214846_JID_4539_Energie_kation
 ------------------------------------
 Structure from the checkpoint file:  "JID_4539.chk"
 Charge =  1 Multiplicity = 2

 SCF Done:  E(UB3LYP) =  -653.170815899     A.U. after   27 cycles
 Normal termination of Gaussian 16 at Thu Dec 10 10:23:32 2020.
 Gaussian 16:  ES64L-G16RevA.03 25-Dec-2016

 ----------------------------------------------------------------------
 # B3LYP/6-311++G(d,p) empiricaldispersion=gd3bj scf=xqc pop=npa geom=c
 heck
 ----------------------------------------------------------------------

 -----------------------------------
 CID_14214846_JID_4539_Energie_anion
 -----------------------------------
 Structure from the checkpoint file:  "JID_4539.chk"
 Charge = -1 Multiplicity = 2

                         Standard orientation:
 ---------------------------------------------------------------------
 Center     Atomic      Atomic             Coordinates (Angstroms)
 Number     Number       Type             X           Y           Z
 ---------------------------------------------------------------------
      1          6           0        1.573710    2.180112   -0.535529
      2          6           0        1.055240    1.388106    0.680467
      3          6           0        2.041325    0.307627    1.199139
      4          6           0        1.945464   -1.080577    0.527054
      5          6           0        0.525897   -1.672273    0.689861
      6          6           0       -0.474402   -0.608187    0.410543
      7          6           0       -0.279410    0.750648    0.403887
      8          6           0       -1.548014    1.318751    0.086888
      9          6           0       -2.424179    0.269792   -0.073221
     10          8           0       -1.761969   -0.919380    0.125736
     11          6           0       -3.837028    0.251146   -0.399414
     12          8           0       -4.523706   -0.748217   -0.519555
     13          6           0        2.345965   -1.085408   -0.958030
     14          8           0        3.614035   -0.495352   -1.203343
     15          1           0        2.544725    2.639126   -0.312758
     16          1           0        0.880761    2.987224   -0.796720
     17          1           0        1.675201    1.550826   -1.425615
     18          1           0        0.929748    2.119431    1.491100
     19          1           0        1.856915    0.164072    2.271056
     20          1           0        3.070067    0.675870    1.115436
     21          1           0        2.654203   -1.734609    1.048579
     22          1           0        0.373146   -2.525206    0.016430
     23          1           0        0.389701   -2.057152    1.710163
     24          1           0       -1.795659    2.367655   -0.011062
     25          1           0       -4.259033    1.271003   -0.536466
     26          1           0        2.432841   -2.122548   -1.298343
     27          1           0        1.558096   -0.615067   -1.564997
     28          1           0        3.515000    0.464544   -1.119382
 ---------------------------------------------------------------------

 SCF Done:  E(UB3LYP) =  -653.491624504     A.U. after   33 cycles
 SCF Done:  E(UB3LYP) =  -653.491624504     a.u. after    1 cycles

 The electronic state is 2-A.
 Alpha  occ. eigenvalues --  -19.03619 -19.03171 -18.92546 -10.11638 -10.08225
 Alpha  occ. eigenvalues --  -10.07745 -10.07526 -10.06954 -10.06737 -10.06733
 Alpha  occ. eigenvalues --  -10.06716 -10.06679 -10.03948 -10.02457  -0.96772
 Alpha  occ. eigenvalues --   -0.93282  -0.86164  -0.73528  -0.68290  -0.64831
 Alpha  occ. eigenvalues --   -0.62866  -0.59063  -0.57067  -0.51678  -0.48124
 Alpha  occ. eigenvalues --   -0.46886  -0.43841  -0.42519  -0.39082  -0.37193
 Alpha  occ. eigenvalues --   -0.35667  -0.34615  -0.33960  -0.32797  -0.32242
 Alpha  occ. eigenvalues --   -0.30763  -0.30333  -0.28601  -0.27469  -0.27135
 Alpha  occ. eigenvalues --   -0.26701  -0.25434  -0.24678  -0.23810  -0.22976
 Alpha  occ. eigenvalues --   -0.22250  -0.22056  -0.20205  -0.18032  -0.14378
 Alpha  occ. eigenvalues --   -0.09143  -0.08973   0.04520
 Alpha virt. eigenvalues --    0.06506   0.07610   0.08624   0.09283   0.10239
 Alpha virt. eigenvalues --    0.10699   0.10815   0.11489   0.12145   0.13082
 Alpha virt. eigenvalues --    0.13424   0.14303   0.15116   0.15499   0.15763

  Beta  occ. eigenvalues --  -19.03429 -19.03167 -18.91993 -10.11633 -10.08009
  Beta  occ. eigenvalues --  -10.07729 -10.07515 -10.06956 -10.06750 -10.06730
  Beta  occ. eigenvalues --  -10.06663 -10.06403 -10.04045 -10.02194  -0.96455
  Beta  occ. eigenvalues --   -0.93275  -0.85166  -0.73460  -0.68203  -0.64590
  Beta  occ. eigenvalues --   -0.62567  -0.59043  -0.56872  -0.51429  -0.47880
  Beta  occ. eigenvalues --   -0.46422  -0.43564  -0.42456  -0.38956  -0.37043
  Beta  occ. eigenvalues --   -0.35592  -0.34437  -0.33831  -0.32463  -0.32035
  Beta  occ. eigenvalues --   -0.30512  -0.30248  -0.28270  -0.27276  -0.26780
  Beta  occ. eigenvalues --   -0.26569  -0.25171  -0.24627  -0.23689  -0.22847
  Beta  occ. eigenvalues --   -0.22019  -0.20121  -0.19677  -0.17977  -0.13332
  Beta  occ. eigenvalues --   -0.08484  -0.07687
  Beta virt. eigenvalues --    0.06558   0.07824   0.08684   0.09209   0.10317
  Beta virt. eigenvalues --    0.10726   0.10777   0.10976   0.11505   0.12243
  Beta virt. eigenvalues --    0.13068   0.13505   0.14272   0.15078   0.15491

 Mulliken charges and spin densities:
               1          2
     1  C   -0.259468  -0.418057
     2  C    0.023113   0.126105
     3  C   -0.729128  -0.314113
     4  C    0.573898   0.161687
     5  C   -0.460400  -0.441347
     6  C   -0.251888   0.131846
     7  C    0.467950  -0.078530
     8  C   -0.147357   0.312071
     9  C    0.541267  -0.054982
    10  O   -0.072559   0.051323
    11  C   -0.383402   0.199691
    12  O   -0.390971   0.182026
    13  C   -0.544312  -0.129575
    14  O   -0.236167  -0.002540
    15  H    0.031308   0.069801
    16  H    0.159446  -0.001372
    17  H    0.099215   0.025721
    18  H   -0.071461   0.268622
    19  H   -0.042510   0.192630
    20  H    0.028875   0.136784
    21  H   -0.087499   0.291989
    22  H    0.205945  -0.047959
    23  H   -0.076896   0.260710
    24  H    0.083151   0.039215
    25  H    0.016057  -0.018346
    26  H    0.126342   0.036401
    27  H    0.160495   0.015070
    28  H    0.236956   0.005131
 Sum of Mulliken charges =  -1.00000   1.00000

 Dipole moment (field-independent basis, Debye):
    X=              7.4239    Y=              2.6060    Z=             -0.7327  Tot=              7.9021
 Quadrupole moment (field-independent basis, Debye-Ang):
   XX=           -162.3487   YY=            -99.8678   ZZ=           -102.5410
   XY=             -5.7593   XZ=             -5.4533   YZ=             -1.5676

 Summary of Natural Population Analysis:

                                       Natural Population
                Natural  -----------------------------------------------
    Atom  No    Charge         Core      Valence    Rydberg      Total
 -----------------------------------------------------------------------
      C    1   -0.28505      0.99965     2.28003    0.00538     3.28505
      C    2   -0.11486      0.99957     2.10425    0.01104     3.11486
      C    3   -0.18874      0.99961     2.17779    0.01134     3.18874
      C    4   -0.11768      0.99960     2.10636    0.01172     3.11768
      C    5   -0.21097      0.99958     2.20103    0.01037     3.21097
      C    6    0.19392      0.99936     1.79177    0.01494     2.80608
      C    7   -0.09438      0.99944     2.08365    0.01129     3.09438
      C    8   -0.08215      0.99948     2.07444    0.00824     3.08215
      C    9    0.10409      0.99944     1.88300    0.01347     2.89591
      O   10   -0.21252      0.99984     3.20469    0.00798     4.21252
      C   11    0.21248      0.99967     1.76764    0.02022     2.78752
      O   12   -0.24131      0.99988     3.23340    0.00803     4.24131
      C   13   -0.00946      0.99956     1.99816    0.01175     3.00946
      O   14   -0.37283      0.99990     3.36605    0.00688     4.37283
      H   15    0.09067      0.00000     0.40822    0.00111     0.40933
      H   16    0.10339      0.00000     0.39570    0.00091     0.39661
      H   17    0.09356      0.00000     0.40533    0.00112     0.40644
      H   18    0.09703      0.00000     0.40074    0.00223     0.40297
      H   19    0.10444      0.00000     0.39430    0.00127     0.39556
      H   20    0.09563      0.00000     0.40316    0.00121     0.40437
      H   21    0.09776      0.00000     0.40043    0.00181     0.40224
      H   22    0.10487      0.00000     0.39399    0.00114     0.39513
      H   23    0.10877      0.00000     0.38988    0.00135     0.39123
      H   24    0.09751      0.00000     0.40134    0.00115     0.40249
      H   25    0.03116      0.00000     0.46619    0.00264     0.46884
      H   26    0.08460      0.00000     0.41434    0.00106     0.41540
      H   27    0.08192      0.00000     0.41670    0.00138     0.41808
      H   28    0.22815      0.00000     0.26890    0.00295     0.27185
 =======================================================================
   * Total *   -0.00000     13.99459    37.83145    0.17396    52.00000

 Normal termination of Gaussian 16 at Thu Dec 10 10:34:21 2020.
