 Gaussian 16, Revision A.03,

 -----------------------------------------------------------
 # opt freq B3LYP/6-31G(d) empiricaldispersion=gd3bj scf=xqc
 -----------------------------------------------------------

 ------------------------------
 CID_83228523_JID_8411_neutraal
 ------------------------------
 Symbolic Z-matrix:
 Charge =  0 Multiplicity = 1

 SCF Done:  E(RB3LYP) =  -804.236759064     A.U. after   15 cycles
 SCF Done:  E(RB3LYP) =  -804.242519902     A.U. after   13 cycles
 SCF Done:  E(RB3LYP) =  -804.243695952     A.U. after   12 cycles
 SCF Done:  E(RB3LYP) =  -804.244433277     A.U. after   12 cycles
 SCF Done:  E(RB3LYP) =  -804.245009869     A.U. after   16 cycles
 SCF Done:  E(RB3LYP) =  -804.246294601     A.U. after   12 cycles
 SCF Done:  E(RB3LYP) =  -804.247474956     A.U. after   13 cycles
 SCF Done:  E(RB3LYP) =  -804.248323601     A.U. after   14 cycles
 SCF Done:  E(RB3LYP) =  -804.248674557     A.U. after   13 cycles
 SCF Done:  E(RB3LYP) =  -804.249218881     A.U. after   11 cycles
 SCF Done:  E(RB3LYP) =  -804.249612947     A.U. after    9 cycles
 SCF Done:  E(RB3LYP) =  -804.249614891     A.U. after    9 cycles
 SCF Done:  E(RB3LYP) =  -804.249615646     A.U. after    9 cycles
 SCF Done:  E(RB3LYP) =  -804.249615764     A.U. after    8 cycles
 SCF Done:  E(RB3LYP) =  -804.249615803     A.U. after    7 cycles
 Optimization completed.
    -- Stationary point found.
 Normal termination of Gaussian 16 at Fri Dec 11 20:42:35 2020.

 --------------------------------------------------------------------
 #N Geom=AllCheck Guess=TCheck SCRF=Check GenChk RB3LYP/6-31G(d) Freq
 --------------------------------------------------------------------

 Structure from the checkpoint file:  "JID_8411.chk"
 ------------------------------
 CID_83228523_JID_8411_neutraal
 ------------------------------
 Charge =  0 Multiplicity = 1

 SCF Done:  E(RB3LYP) =  -804.249615803     A.U. after    1 cycles

  Exact polarizability: 208.587  -3.994 155.055  11.391   3.078 116.557
 Approx polarizability: 257.457  -4.093 257.246  22.311   8.899 182.697

                      1                      2                      3
                      A                      A                      A
 Frequencies --     21.3481                23.8336                30.6317
 Red. masses --      3.8573                 5.6559                 4.5605
 Frc consts  --      0.0010                 0.0019                 0.0025
 IR Inten    --      0.2139                 1.1375                 1.0035

                      4                      5                      6
                      A                      A                      A
 Frequencies --     50.7322                51.4890                76.3976
 Red. masses --      4.1617                 3.9274                 4.6414
 Frc consts  --      0.0063                 0.0061                 0.0160
 IR Inten    --      0.8055                 0.6297                 2.7731

                      7                      8                      9
                      A                      A                      A
 Frequencies --    100.3615               114.4184               167.5393
 Red. masses --      4.1427                 4.1153                 4.4058
 Frc consts  --      0.0246                 0.0317                 0.0729
 IR Inten    --      3.1059                 0.4323                 1.3654

                     10                     11                     12
                      A                      A                      A
 Frequencies --    212.6522               223.0185               262.6469
 Red. masses --      6.3536                 3.7707                 1.8529
 Frc consts  --      0.1693                 0.1105                 0.0753
 IR Inten    --      5.1199                 5.9542                 0.8668

                     13                     14                     15
                      A                      A                      A
 Frequencies --    296.4286               302.0483               359.8949
 Red. masses --      3.9102                 3.9451                 2.8902
 Frc consts  --      0.2024                 0.2121                 0.2206
 IR Inten    --      3.0493                 1.6479                 3.9316

                     16                     17                     18
                      A                      A                      A
 Frequencies --    378.4595               387.2158               425.2520
 Red. masses --      2.7412                 4.1162                 3.2302
 Frc consts  --      0.2313                 0.3636                 0.3442
 IR Inten    --      0.6171                 1.6792                 0.3759

                     19                     20                     21
                      A                      A                      A
 Frequencies --    429.6141               477.9776               501.6653
 Red. masses --      3.4893                 3.6019                 3.8219
 Frc consts  --      0.3794                 0.4848                 0.5667
 IR Inten    --      2.8767                 1.5048                 8.0561

                     22                     23                     24
                      A                      A                      A
 Frequencies --    527.5542               564.8888               604.9192
 Red. masses --      1.9514                 2.9771                 2.6424
 Frc consts  --      0.3200                 0.5597                 0.5697
 IR Inten    --      3.5066                 9.8044                15.9006

                     25                     26                     27
                      A                      A                      A
 Frequencies --    623.0577               642.3649               664.2324
 Red. masses --      6.8581                 2.3406                 6.3000
 Frc consts  --      1.5686                 0.5690                 1.6377
 IR Inten    --      3.6059                 4.1299                 4.2528

                     28                     29                     30
                      A                      A                      A
 Frequencies --    716.3549               753.6135               771.3721
 Red. masses --      4.2606                 3.4349                 2.3149
 Frc consts  --      1.2882                 1.1494                 0.8116
 IR Inten    --      7.3250                20.3888                13.5889

                     31                     32                     33
                      A                      A                      A
 Frequencies --    820.9640               834.2743               842.2983
 Red. masses --      1.3162                 3.6988                 2.0520
 Frc consts  --      0.5227                 1.5168                 0.8577
 IR Inten    --      2.9546                11.0479                 6.5972

                     34                     35                     36
                      A                      A                      A
 Frequencies --    851.5877               867.2678               875.6901
 Red. masses --      2.0080                 2.7137                 2.1907
 Frc consts  --      0.8580                 1.2026                 0.9898
 IR Inten    --      8.0732                20.3141                15.6181

                     37                     38                     39
                      A                      A                      A
 Frequencies --    915.4290               917.1555               935.6443
 Red. masses --      5.2972                 2.4138                 1.9629
 Frc consts  --      2.6155                 1.1963                 1.0125
 IR Inten    --     17.6178                 0.2943                11.9392

                     40                     41                     42
                      A                      A                      A
 Frequencies --    943.2946               951.5097               955.8098
 Red. masses --      1.5666                 1.6524                 1.3073
 Frc consts  --      0.8213                 0.8814                 0.7037
 IR Inten    --     40.6428                41.0251                 0.1426

                     43                     44                     45
                      A                      A                      A
 Frequencies --    974.1431              1008.4374              1035.1207
 Red. masses --      1.4878                 2.9430                 1.5117
 Frc consts  --      0.8318                 1.7633                 0.9543
 IR Inten    --     21.0144                58.8210                 2.3196

                     46                     47                     48
                      A                      A                      A
 Frequencies --   1036.6082              1043.6089              1052.1291
 Red. masses --      2.7370                 2.0701                 1.8954
 Frc consts  --      1.7329                 1.3283                 1.2362
 IR Inten    --      0.3533                 5.5264                 0.8273

                     49                     50                     51
                      A                      A                      A
 Frequencies --   1075.7145              1089.4084              1105.4039
 Red. masses --      3.3053                 5.7013                 2.2761
 Frc consts  --      2.2535                 3.9866                 1.6387
 IR Inten    --     24.6116                76.6050                 5.6911

                     52                     53                     54
                      A                      A                      A
 Frequencies --   1136.3346              1158.9986              1193.2005
 Red. masses --      1.5074                 1.3042                 1.5802
 Frc consts  --      1.1468                 1.0322                 1.3255
 IR Inten    --     13.2295                16.7154                25.0983

                     55                     56                     57
                      A                      A                      A
 Frequencies --   1212.2467              1217.8797              1239.4864
 Red. masses --      1.5558                 1.1982                 2.7576
 Frc consts  --      1.3471                 1.0471                 2.4961
 IR Inten    --      8.5853                37.4807                 1.0901

                     58                     59                     60
                      A                      A                      A
 Frequencies --   1247.5187              1263.8026              1267.4104
 Red. masses --      1.3830                 2.7180                 1.3881
 Frc consts  --      1.2681                 2.5577                 1.3137
 IR Inten    --      3.3257               232.3732                 0.3306

                     61                     62                     63
                      A                      A                      A
 Frequencies --   1291.1461              1313.1521              1321.3497
 Red. masses --      1.4249                 1.3228                 1.3018
 Frc consts  --      1.3996                 1.3440                 1.3392
 IR Inten    --      4.6307                81.0620                 0.0457

                     64                     65                     66
                      A                      A                      A
 Frequencies --   1338.2765              1349.6195              1355.2427
 Red. masses --      1.2234                 1.3562                 1.5384
 Frc consts  --      1.2910                 1.4554                 1.6648
 IR Inten    --      1.5262                 2.4051                17.4005

                     67                     68                     69
                      A                      A                      A
 Frequencies --   1366.1761              1370.8357              1376.4892
 Red. masses --      1.2949                 1.4658                 2.1363
 Frc consts  --      1.4240                 1.6229                 2.3848
 IR Inten    --      1.1334                 3.0377                30.9936

                     70                     71                     72
                      A                      A                      A
 Frequencies --   1379.1815              1411.6346              1415.8533
 Red. masses --      1.4667                 1.3343                 1.3031
 Frc consts  --      1.6437                 1.5665                 1.5391
 IR Inten    --     15.0393                14.9086                 7.6295

                     73                     74                     75
                      A                      A                      A
 Frequencies --   1472.2015              1484.1470              1504.3213
 Red. masses --      2.7049                 1.0982                 1.1046
 Frc consts  --      3.4541                 1.4253                 1.4728
 IR Inten    --      2.2118                 7.0204                 5.7858

                     76                     77                     78
                      A                      A                      A
 Frequencies --   1505.3548              1506.1583              1513.9032
 Red. masses --      1.0893                 1.1009                 1.1099
 Frc consts  --      1.4544                 1.4715                 1.4988
 IR Inten    --      9.9120                13.0356                 2.8226

                     79                     80                     81
                      A                      A                      A
 Frequencies --   1520.2892              1538.9233              1564.0455
 Red. masses --      1.0888                 1.1087                 2.4895
 Frc consts  --      1.4827                 1.5470                 3.5881
 IR Inten    --      3.2485                 5.3588               110.4954

                     82                     83                     84
                      A                      A                      A
 Frequencies --   1643.7195              1674.0472              2372.4446
 Red. masses --      6.5983                 5.9023                12.5879
 Frc consts  --     10.5035                 9.7455                41.7443
 IR Inten    --     10.2724                53.4672                 0.0656

                     85                     86                     87
                      A                      A                      A
 Frequencies --   3039.8060              3046.4420              3050.0887
 Red. masses --      1.0676                 1.0668                 1.0705
 Frc consts  --      5.8123                 5.8336                 5.8677
 IR Inten    --     37.1686                21.3408                20.1239

                     88                     89                     90
                      A                      A                      A
 Frequencies --   3058.7511              3063.4876              3075.8609
 Red. masses --      1.0634                 1.0600                 1.0657
 Frc consts  --      5.8616                 5.8614                 5.9403
 IR Inten    --     29.1882                30.7404                25.4353

                     91                     92                     93
                      A                      A                      A
 Frequencies --   3084.5499              3098.2930              3107.7073
 Red. masses --      1.0832                 1.0935                 1.1014
 Frc consts  --      6.0721                 6.1847                 6.2674
 IR Inten    --     41.2772                28.1114                32.1703

                     94                     95                     96
                      A                      A                      A
 Frequencies --   3115.7313              3118.1847              3126.0221
 Red. masses --      1.1016                 1.1018                 1.0964
 Frc consts  --      6.3008                 6.3119                 6.3128
 IR Inten    --     13.0893                42.5076                 5.4599

                     97                     98                     99
                      A                      A                      A
 Frequencies --   3127.2483              3177.5735              3214.7771
 Red. masses --      1.1041                 1.0890                 1.0881
 Frc consts  --      6.3620                 6.4782                 6.6253
 IR Inten    --     53.5639                15.8727                12.3904

                    100                    101                    102
                      A                      A                      A
 Frequencies --   3218.4784              3230.9378              3433.5960
 Red. masses --      1.0927                 1.0935                 1.0755
 Frc consts  --      6.6691                 6.7254                 7.4707
 IR Inten    --      5.2265                 7.3750                 0.9219

 - Thermochemistry -
 -------------------
 Temperature   298.150 Kelvin.  Pressure   1.00000 Atm.
 Atom     1 has atomic number  6 and mass  12.00000

 Molecular mass:   246.13683 amu.
 Principal axes and moments of inertia in atomic units:
                           1         2         3
     Eigenvalues --  1660.87786********************
           X            0.99998   0.00563   0.00416
           Y           -0.00555   0.99979  -0.01969
           Z           -0.00427   0.01966   0.99980
 This molecule is an asymmetric top.
 Rotational symmetry number  1.
 Warning -- assumption of classical behavior for rotation
           may cause significant error
 Rotational temperatures (Kelvin)      0.05215     0.00717     0.00680
 Rotational constants (GHZ):           1.08662     0.14943     0.14165
 Zero-point vibrational energy     800340.1 (Joules/Mol)
                                  191.28587 (Kcal/Mol)
 Warning -- explicit consideration of  24 degrees of freedom as
           vibrations may cause significant error
 Vibrational temperatures:     30.72    34.29    44.07    72.99    74.08
          (Kelvin)            109.92   144.40   164.62   241.05   305.96
                              320.87   377.89   426.49   434.58   517.81
                              544.52   557.12   611.84   618.12   687.70
                              721.78   759.03   812.75   870.34   896.44
                              924.22   955.68  1030.67  1084.28  1109.83
                             1181.18  1200.33  1211.88  1225.24  1247.80
                             1259.92  1317.10  1319.58  1346.18  1357.19
                             1369.01  1375.20  1401.57  1450.92  1489.31
                             1491.45  1501.52  1513.78  1547.71  1567.42
                             1590.43  1634.93  1667.54  1716.75  1744.15
                             1752.26  1783.34  1794.90  1818.33  1823.52
                             1857.67  1889.33  1901.13  1925.48  1941.80
                             1949.89  1965.62  1972.33  1980.46  1984.33
                             2031.03  2037.10  2118.17  2135.36  2164.38
                             2165.87  2167.03  2178.17  2187.36  2214.17
                             2250.31  2364.95  2408.58  3413.42  4373.60
                             4383.15  4388.40  4400.86  4407.68  4425.48
                             4437.98  4457.75  4471.30  4482.84  4486.37
                             4497.65  4499.41  4571.82  4625.35  4630.67
                             4648.60  4940.18

 Zero-point correction=                           0.304833 (Hartree/Particle)
 Thermal correction to Energy=                    0.321739
 Thermal correction to Enthalpy=                  0.322683
 Thermal correction to Gibbs Free Energy=         0.256692
 Sum of electronic and zero-point Energies=           -803.944782
 Sum of electronic and thermal Energies=              -803.927877
 Sum of electronic and thermal Enthalpies=            -803.926933
 Sum of electronic and thermal Free Energies=         -803.992924

                     E (Thermal)             CV                S
                      KCal/Mol        Cal/Mol-Kelvin    Cal/Mol-Kelvin
 Total                  201.894             63.751            138.891
 Electronic               0.000              0.000              0.000
 Translational            0.889              2.981             42.403
 Rotational               0.889              2.981             33.902
 Vibrational            200.117             57.789             62.586
 Vibration     1          0.593              1.985              6.505
 Vibration     2          0.593              1.985              6.286
 Vibration     3          0.594              1.984              5.788
 Vibration     4          0.595              1.977              4.789
 Vibration     5          0.596              1.977              4.759
 Vibration     6          0.599              1.965              3.981
 Vibration     7          0.604              1.949              3.447
 Vibration     8          0.607              1.937              3.193
 Vibration     9          0.624              1.882              2.463
 Vibration    10          0.644              1.822              2.021
 Vibration    11          0.649              1.806              1.934
 Vibration    12          0.670              1.741              1.644
 Vibration    13          0.690              1.680              1.437
 Vibration    14          0.694              1.670              1.406
 Vibration    15          0.734              1.555              1.123
 Vibration    16          0.749              1.516              1.045
 Vibration    17          0.756              1.497              1.011
 Vibration    18          0.787              1.415              0.874
 Vibration    19          0.791              1.406              0.860
 Vibration    20          0.834              1.299              0.716
 Vibration    21          0.857              1.246              0.654
 Vibration    22          0.883              1.189              0.593
 Vibration    23          0.921              1.107              0.514
 Vibration    24          0.963              1.021              0.441

 Optimization completed.
    -- Stationary point found.
 Normal termination of Gaussian 16 at Fri Dec 11 20:57:29 2020.

 ----------------------------------------------------------------------
 # B3LYP/6-311++G(d,p) empiricaldispersion=gd3bj scf=xqc pop=npa geom=c
 heck
 ----------------------------------------------------------------------

 --------------------------------------
 CID_83228523_JID_8411_Energie_neutraal
 --------------------------------------
 Structure from the checkpoint file:  "JID_8411.chk"
 Charge =  0 Multiplicity = 1

 SCF Done:  E(RB3LYP) =  -804.471207555     A.U. after   15 cycles
 Normal termination of Gaussian 16 at Fri Dec 11 21:04:36 2020.

 ----------------------------------------------------------------------
 # B3LYP/6-311++G(d,p) empiricaldispersion=gd3bj scf=xqc pop=npa geom=c
 heck
 ----------------------------------------------------------------------

 ------------------------------------
 CID_83228523_JID_8411_Energie_kation
 ------------------------------------
 Structure from the checkpoint file:  "JID_8411.chk"
 Charge =  1 Multiplicity = 2

 SCF Done:  E(UB3LYP) =  -804.171514167     A.U. after   25 cycles
 Normal termination of Gaussian 16 at Fri Dec 11 21:21:48 2020.
 Gaussian 16:  ES64L-G16RevA.03 25-Dec-2016

 ----------------------------------------------------------------------
 # B3LYP/6-311++G(d,p) empiricaldispersion=gd3bj scf=xqc pop=npa geom=c
 heck
 ----------------------------------------------------------------------

 -----------------------------------
 CID_83228523_JID_8411_Energie_anion
 -----------------------------------
 Structure from the checkpoint file:  "JID_8411.chk"
 Charge = -1 Multiplicity = 2

                         Standard orientation:
 ---------------------------------------------------------------------
 Center     Atomic      Atomic             Coordinates (Angstroms)
 Number     Number       Type             X           Y           Z
 ---------------------------------------------------------------------
      1          6           0        5.356869    0.880292    0.593827
      2          6           0        5.324867   -0.265811   -0.430739
      3          6           0        4.245090    0.190511   -1.425096
      4          6           0        3.200005    0.968936   -0.580851
      5          6           0        3.867631    1.208403    0.796246
      6          8           0        1.917750    0.331450   -0.499786
      7          7           0        2.049940   -0.979876    0.087323
      8          6           0        1.032760   -1.089587    1.147751
      9          6           0       -0.401390   -0.934840    0.695262
     10          6           0       -1.194062   -2.060492    0.433163
     11          6           0       -2.499019   -1.933548   -0.028273
     12          6           0       -3.035633   -0.660512   -0.237293
     13          6           0       -2.269088    0.477618    0.023332
     14          6           0       -0.960771    0.328174    0.485468
     15          8           0       -4.335242   -0.642742   -0.701228
     16          6           0       -4.899899    0.598560   -1.060468
     17          6           0       -5.264375    1.429999    0.104438
     18          7           0       -5.551217    2.084347    1.018129
     19          1           0        5.885889    1.744581    0.169690
     20          1           0        5.863428    0.613868    1.527571
     21          1           0        6.295356   -0.451424   -0.903230
     22          1           0        5.003273   -1.189601    0.063242
     23          1           0        3.776480   -0.630477   -1.975178
     24          1           0        4.685271    0.867928   -2.167557
     25          1           0        2.939775    1.914932   -1.066209
     26          1           0        3.437820    0.499447    1.509875
     27          1           0        3.688833    2.218736    1.177573
     28          1           0        1.762933   -1.598052   -0.674885
     29          1           0        1.182407   -2.080237    1.594936
     30          1           0        1.286843   -0.342809    1.905507
     31          1           0       -0.784869   -3.054974    0.597102
     32          1           0       -3.117778   -2.801852   -0.229237
     33          1           0       -2.672627    1.475297   -0.102934
     34          1           0       -0.362510    1.212030    0.678658
     35          1           0       -4.230883    1.173040   -1.715162
     36          1           0       -5.808688    0.362394   -1.620411
 ---------------------------------------------------------------------

 SCF Done:  E(UB3LYP) =  -804.461971979     A.U. after   33 cycles
 SCF Done:  E(UB3LYP) =  -804.461971979     a.u. after    1 cycles

 The electronic state is 2-A.
 Alpha  occ. eigenvalues --  -19.08438 -19.05669 -14.26408 -14.23931 -10.18641
 Alpha  occ. eigenvalues --  -10.15235 -10.13464 -10.12996 -10.11545 -10.09208
 Alpha  occ. eigenvalues --  -10.08944 -10.08833 -10.08601 -10.08533 -10.07953
 Alpha  occ. eigenvalues --  -10.07622 -10.07581 -10.07484  -1.00091  -0.97593
 Alpha  occ. eigenvalues --   -0.83247  -0.78595  -0.76517  -0.73439  -0.69781
 Alpha  occ. eigenvalues --   -0.66686  -0.65040  -0.62516  -0.60776  -0.57170
 Alpha  occ. eigenvalues --   -0.53515  -0.51363  -0.49110  -0.47836  -0.47415
 Alpha  occ. eigenvalues --   -0.44520  -0.42581  -0.41597  -0.40870  -0.40804
 Alpha  occ. eigenvalues --   -0.37597  -0.37029  -0.35908  -0.34934  -0.34671
 Alpha  occ. eigenvalues --   -0.33875  -0.32898  -0.31992  -0.30866  -0.29773
 Alpha  occ. eigenvalues --   -0.29405  -0.28590  -0.28326  -0.26889  -0.26600
 Alpha  occ. eigenvalues --   -0.25692  -0.25446  -0.25152  -0.24826  -0.24585
 Alpha  occ. eigenvalues --   -0.24210  -0.23626  -0.18012  -0.17270  -0.16180
 Alpha  occ. eigenvalues --   -0.14267   0.03738
 Alpha virt. eigenvalues --    0.05055   0.05914   0.06454   0.06946   0.07042
 Alpha virt. eigenvalues --    0.07496   0.07815   0.08081   0.08401   0.09015
 Alpha virt. eigenvalues --    0.09192   0.09820   0.10061   0.10598   0.10747

  Beta  occ. eigenvalues --  -19.08436 -19.05668 -14.26389 -14.23921 -10.18573
  Beta  occ. eigenvalues --  -10.15226 -10.13459 -10.12990 -10.11535 -10.09202
  Beta  occ. eigenvalues --  -10.08938 -10.08828 -10.08562 -10.08479 -10.07937
  Beta  occ. eigenvalues --  -10.07608 -10.07568 -10.07472  -1.00079  -0.97580
  Beta  occ. eigenvalues --   -0.83221  -0.78557  -0.76477  -0.73415  -0.69705
  Beta  occ. eigenvalues --   -0.66631  -0.64963  -0.62484  -0.60742  -0.57123
  Beta  occ. eigenvalues --   -0.53442  -0.51320  -0.49063  -0.47800  -0.47373
  Beta  occ. eigenvalues --   -0.44426  -0.42545  -0.41551  -0.40842  -0.40766
  Beta  occ. eigenvalues --   -0.37551  -0.36989  -0.35874  -0.34907  -0.34636
  Beta  occ. eigenvalues --   -0.33839  -0.32873  -0.31941  -0.30827  -0.29740
  Beta  occ. eigenvalues --   -0.29377  -0.28560  -0.28301  -0.26860  -0.26577
  Beta  occ. eigenvalues --   -0.25661  -0.25414  -0.25125  -0.24786  -0.24518
  Beta  occ. eigenvalues --   -0.24184  -0.23598  -0.17988  -0.17135  -0.16137
  Beta  occ. eigenvalues --   -0.14159
  Beta virt. eigenvalues --    0.05522   0.06250   0.06581   0.06760   0.07161
  Beta virt. eigenvalues --    0.07341   0.07714   0.07895   0.08376   0.08908
  Beta virt. eigenvalues --    0.09172   0.09380   0.09914   0.10205   0.10753

 Mulliken charges and spin densities:
               1          2
     1  C    0.159708  -0.709401
     2  C   -0.053014  -0.154819
     3  C    0.121604  -0.482632
     4  C   -0.567219   0.542274
     5  C    0.335229  -0.423394
     6  O    0.005093   0.025952
     7  N   -0.150423  -0.159791
     8  C    0.075610  -0.636347
     9  C    1.703879  -0.757867
    10  C   -0.578074   0.313646
    11  C   -0.533523   0.247609
    12  C   -0.763257   0.254590
    13  C   -0.058491  -0.054810
    14  C    0.210429  -0.471825
    15  O   -0.071208   0.032734
    16  C    0.390924  -0.736673
    17  C    0.747357  -0.488797
    18  N   -0.354891   0.018582
    19  H   -0.068193   0.201129
    20  H   -0.056146   0.202174
    21  H   -0.077140   0.227291
    22  H    0.082201   0.063539
    23  H   -0.037681   0.157993
    24  H   -0.103924   0.255049
    25  H   -0.128477   0.350935
    26  H    0.065531   0.047254
    27  H   -0.049427   0.200783
    28  H    0.222555   0.037678
    29  H    0.010369   0.157186
    30  H    0.106911   0.051074
    31  H   -0.260355   0.410185
    32  H    0.001406   0.174224
    33  H    0.059047   0.119391
    34  H   -0.049789   0.203861
    35  H   -0.354605   0.566325
    36  H   -0.982015   1.214898
 Sum of Mulliken charges =  -1.00000   1.00000

 Dipole moment (field-independent basis, Debye):
    X=              4.9691    Y=             -2.9296    Z=              1.8536  Tot=              6.0589
 Quadrupole moment (field-independent basis, Debye-Ang):
   XX=           -250.8961   YY=           -143.7238   ZZ=           -143.6713
   XY=              6.6923   XZ=             -3.3279   YZ=             -0.1711

 Summary of Natural Population Analysis:

                                       Natural Population
                Natural  -----------------------------------------------
    Atom  No    Charge         Core      Valence    Rydberg      Total
 -----------------------------------------------------------------------
      C    1   -0.18969      0.99964     2.18332    0.00674     3.18969
      C    2   -0.19270      0.99964     2.18617    0.00689     3.19270
      C    3   -0.20424      0.99962     2.19739    0.00723     3.20424
      C    4    0.06980      0.99955     1.91414    0.01652     2.93020
      C    5   -0.20865      0.99962     2.19974    0.00930     3.20865
      O    6   -0.23663      0.99989     3.22603    0.01070     4.23663
      N    7   -0.18021      0.99974     2.66696    0.01351     3.68021
      C    8   -0.09837      0.99958     2.08688    0.01190     3.09837
      C    9   -0.04273      0.99950     2.03411    0.00913     3.04273
      C   10   -0.09211      0.99952     2.08371    0.00888     3.09211
      C   11   -0.11318      0.99952     2.10441    0.00925     3.11318
      C   12    0.15704      0.99936     1.82992    0.01368     2.84296
      C   13   -0.14003      0.99951     2.13196    0.00855     3.14003
      C   14   -0.06873      0.99952     2.06041    0.00880     3.06873
      O   15   -0.26804      0.99986     3.25778    0.01040     4.26804
      C   16   -0.06377      0.99948     2.04998    0.01431     3.06377
      C   17    0.14295      0.99965     1.84179    0.01562     2.85705
      N   18   -0.17159      0.99979     2.66015    0.01165     3.67159
      H   19    0.09256      0.00000     0.40592    0.00152     0.40744
      H   20    0.09797      0.00000     0.40095    0.00108     0.40203
      H   21    0.09649      0.00000     0.40231    0.00120     0.40351
      H   22    0.09877      0.00000     0.39926    0.00197     0.40123
      H   23    0.10446      0.00000     0.39447    0.00107     0.39554
      H   24    0.09823      0.00000     0.40035    0.00142     0.40177
      H   25    0.09354      0.00000     0.40522    0.00124     0.40646
      H   26    0.10400      0.00000     0.39429    0.00171     0.39600
      H   27    0.10033      0.00000     0.39866    0.00102     0.39967
      H   28    0.16860      0.00000     0.32913    0.00227     0.33140
      H   29    0.09853      0.00000     0.40029    0.00117     0.40147
      H   30    0.09901      0.00000     0.39961    0.00139     0.40099
      H   31    0.09920      0.00000     0.39969    0.00111     0.40080
      H   32    0.10577      0.00000     0.39286    0.00137     0.39423
      H   33    0.10706      0.00000     0.39116    0.00178     0.39294
      H   34    0.10599      0.00000     0.39270    0.00131     0.39401
      H   35    0.11101      0.00000     0.38538    0.00360     0.38899
      H   36    0.11937      0.00000     0.37674    0.00389     0.38063
 =======================================================================
   * Total *    0.00000     17.99300    47.78384    0.22315    66.00000

 Normal termination of Gaussian 16 at Fri Dec 11 21:44:11 2020.
