 Gaussian 16, Revision A.03,

 -----------------------------------------------------------
 # opt freq B3LYP/6-31G(d) empiricaldispersion=gd3bj scf=xqc
 -----------------------------------------------------------

 ------------------------------
 CID_62246331_JID_9287_neutraal
 ------------------------------
 Symbolic Z-matrix:
 Charge =  0 Multiplicity = 1

 SCF Done:  E(RB3LYP) =  -1305.14133476     A.U. after   16 cycles
 SCF Done:  E(RB3LYP) =  -1305.14618122     A.U. after   14 cycles
 SCF Done:  E(RB3LYP) =  -1305.14361188     A.U. after   15 cycles
 SCF Done:  E(RB3LYP) =  -1305.14834255     A.U. after   15 cycles
 SCF Done:  E(RB3LYP) =  -1305.14959980     A.U. after   13 cycles
 SCF Done:  E(RB3LYP) =  -1305.14548678     A.U. after   15 cycles
 SCF Done:  E(RB3LYP) =  -1305.14959587     A.U. after   14 cycles
 SCF Done:  E(RB3LYP) =  -1305.15012176     A.U. after   10 cycles
 SCF Done:  E(RB3LYP) =  -1305.15023503     A.U. after   12 cycles
 SCF Done:  E(RB3LYP) =  -1305.15028539     A.U. after   12 cycles
 SCF Done:  E(RB3LYP) =  -1305.15031545     A.U. after   12 cycles
 SCF Done:  E(RB3LYP) =  -1305.15032735     A.U. after   12 cycles
 SCF Done:  E(RB3LYP) =  -1305.15033440     A.U. after   10 cycles
 SCF Done:  E(RB3LYP) =  -1305.15033762     A.U. after   11 cycles
 SCF Done:  E(RB3LYP) =  -1305.15033821     A.U. after    8 cycles
 SCF Done:  E(RB3LYP) =  -1305.15033837     A.U. after    8 cycles
 Optimization completed.
    -- Stationary point found.
 Normal termination of Gaussian 16 at Sun Dec 13 20:19:43 2020.

 --------------------------------------------------------------------
 #N Geom=AllCheck Guess=TCheck SCRF=Check GenChk RB3LYP/6-31G(d) Freq
 --------------------------------------------------------------------

 Structure from the checkpoint file:  "JID_9287.chk"
 ------------------------------
 CID_62246331_JID_9287_neutraal
 ------------------------------
 Charge =  0 Multiplicity = 1

 SCF Done:  E(RB3LYP) =  -1305.15033837     A.U. after    1 cycles

  Exact polarizability: 197.286  19.788 194.382   6.886  -6.338  96.670
 Approx polarizability: 301.320  53.343 357.372  26.050 -17.300 165.705

                      1                      2                      3
                      A                      A                      A
 Frequencies --     17.9022                42.2772                61.2753
 Red. masses --      9.8633                 8.2453                10.9086
 Frc consts  --      0.0019                 0.0087                 0.0241
 IR Inten    --      0.8909                 0.5132                 0.3393

                      4                      5                      6
                      A                      A                      A
 Frequencies --     74.4598                88.1462               115.4509
 Red. masses --      9.8428                 5.6934                 3.5758
 Frc consts  --      0.0322                 0.0261                 0.0281
 IR Inten    --      1.4796                 1.0114                11.6248

                      7                      8                      9
                      A                      A                      A
 Frequencies --    133.4862               150.1541               175.5132
 Red. masses --      5.7437                 9.1726                 5.9994
 Frc consts  --      0.0603                 0.1218                 0.1089
 IR Inten    --      2.9278                 2.4017                 7.2621

                     10                     11                     12
                      A                      A                      A
 Frequencies --    186.2326               190.6517               270.5552
 Red. masses --      5.6732                 6.4079                 6.9782
 Frc consts  --      0.1159                 0.1372                 0.3010
 IR Inten    --      2.3547                 2.2384                 4.8812

                     13                     14                     15
                      A                      A                      A
 Frequencies --    298.1497               315.7470               358.3477
 Red. masses --      5.3428                 2.6217                 4.0831
 Frc consts  --      0.2798                 0.1540                 0.3089
 IR Inten    --      3.7043                15.3598                 1.6153

                     16                     17                     18
                      A                      A                      A
 Frequencies --    370.2684               394.0520               400.6268
 Red. masses --      1.8072                 3.5861                 4.0187
 Frc consts  --      0.1460                 0.3281                 0.3800
 IR Inten    --     10.5089                 5.5553                25.8061

                     19                     20                     21
                      A                      A                      A
 Frequencies --    453.0152               475.0271               500.6975
 Red. masses --      4.5566                10.8144                 6.2156
 Frc consts  --      0.5510                 1.4378                 0.9181
 IR Inten    --     10.4774                 6.4809                 8.0692

                     22                     23                     24
                      A                      A                      A
 Frequencies --    520.2554               542.7984               572.5500
 Red. masses --      4.6050                 4.5712                 3.4435
 Frc consts  --      0.7344                 0.7935                 0.6651
 IR Inten    --     18.8121                 4.2305                 8.2480

                     25                     26                     27
                      A                      A                      A
 Frequencies --    584.0541               586.2916               627.4467
 Red. masses --      3.8743                 4.8210                 7.4079
 Frc consts  --      0.7787                 0.9764                 1.7183
 IR Inten    --     18.3991                38.9066                13.3180

                     28                     29                     30
                      A                      A                      A
 Frequencies --    643.7188               658.5170               681.6717
 Red. masses --      2.8407                 8.0619                 6.2008
 Frc consts  --      0.6935                 2.0598                 1.6977
 IR Inten    --    120.7665                40.0087                14.9265

                     31                     32                     33
                      A                      A                      A
 Frequencies --    698.1671               750.7670               765.2448
 Red. masses --      2.1501                 5.5943                 4.3358
 Frc consts  --      0.6175                 1.8578                 1.4960
 IR Inten    --     92.6738                 6.9860                11.1987

                     34                     35                     36
                      A                      A                      A
 Frequencies --    785.2115               820.7583               828.3275
 Red. masses --      4.9132                 3.6739                 3.6134
 Frc consts  --      1.7848                 1.4582                 1.4607
 IR Inten    --      4.3215                30.8767                23.2886

                     37                     38                     39
                      A                      A                      A
 Frequencies --    847.1847               888.5586               928.1018
 Red. masses --      1.6566                 3.0626                 1.7162
 Frc consts  --      0.7005                 1.4247                 0.8710
 IR Inten    --     10.7903                 6.9259                 9.1510

                     40                     41                     42
                      A                      A                      A
 Frequencies --    945.0771               953.2648               965.4191
 Red. masses --      2.9398                 1.9547                 1.6422
 Frc consts  --      1.5470                 1.0466                 0.9018
 IR Inten    --     63.2967                54.4360                21.0318

                     43                     44                     45
                      A                      A                      A
 Frequencies --    980.7910               992.4155              1058.6816
 Red. masses --      1.3198                 3.3509                 4.7602
 Frc consts  --      0.7480                 1.9445                 3.1434
 IR Inten    --      4.9579                18.2774                 0.2387

                     46                     47                     48
                      A                      A                      A
 Frequencies --   1114.5696              1160.4781              1160.9920
 Red. masses --      2.1596                 1.1741                 2.2233
 Frc consts  --      1.5806                 0.9316                 1.7657
 IR Inten    --     51.0100                 1.9695                38.2513

                     49                     50                     51
                      A                      A                      A
 Frequencies --   1181.9253              1204.5720              1231.1966
 Red. masses --      2.0701                 1.5573                 4.3193
 Frc consts  --      1.7038                 1.3313                 3.8576
 IR Inten    --     26.8775                89.0099                 3.2912

                     52                     53                     54
                      A                      A                      A
 Frequencies --   1266.5905              1306.9233              1340.9341
 Red. masses --      1.3959                 1.4737                 1.1569
 Frc consts  --      1.3194                 1.4831                 1.2257
 IR Inten    --     23.1342                27.2754                 5.6571

                     55                     56                     57
                      A                      A                      A
 Frequencies --   1347.6462              1363.2937              1370.7928
 Red. masses --      2.9682                 3.3809                 3.3497
 Frc consts  --      3.1761                 3.7023                 3.7086
 IR Inten    --    209.3132               321.3475                84.6673

                     58                     59                     60
                      A                      A                      A
 Frequencies --   1392.0920              1404.3149              1416.5885
 Red. masses --      7.3802                 2.5501                 1.7880
 Frc consts  --      8.4266                 2.9630                 2.1140
 IR Inten    --    479.4997                20.4890                74.2577

                     61                     62                     63
                      A                      A                      A
 Frequencies --   1479.9931              1483.8380              1504.6428
 Red. masses --      4.3858                 1.0841                 1.2198
 Frc consts  --      5.6601                 1.4063                 1.6270
 IR Inten    --      0.8097                 6.0950                23.6494

                     64                     65                     66
                      A                      A                      A
 Frequencies --   1534.2916              1578.3565              1619.4215
 Red. masses --      1.9951                 2.3721                 3.0705
 Frc consts  --      2.7672                 3.4818                 4.7444
 IR Inten    --     48.6909                55.6731                78.6788

                     67                     68                     69
                      A                      A                      A
 Frequencies --   1655.4291              1668.5384              1725.2012
 Red. masses --      4.7321                 6.3444                 1.0721
 Frc consts  --      7.6406                10.4067                 1.8800
 IR Inten    --    115.1709               118.8758                37.9344

                     70                     71                     72
                      A                      A                      A
 Frequencies --   1773.7505              1845.1843              3105.1907
 Red. masses --     12.0117                12.0856                 1.0578
 Frc consts  --     22.2658                24.2435                 6.0094
 IR Inten    --    543.2884                94.1576                 4.6858

                     73                     74                     75
                      A                      A                      A
 Frequencies --   3112.9546              3157.1174              3164.4252
 Red. masses --      1.0591                 1.1078                 1.1073
 Frc consts  --      6.0468                 6.5059                 6.5326
 IR Inten    --      7.5600                 0.1893                 0.1032

                     76                     77                     78
                      A                      A                      A
 Frequencies --   3225.5970              3248.0530              3252.0740
 Red. masses --      1.0879                 1.0913                 1.0931
 Frc consts  --      6.6691                 6.7832                 6.8113
 IR Inten    --      6.8652                 4.5266                 0.8566

                     79                     80                     81
                      A                      A                      A
 Frequencies --   3418.8608              3522.8592              3532.0441
 Red. masses --      1.0493                 1.0914                 1.0816
 Frc consts  --      7.2265                 7.9806                 7.9501
 IR Inten    --     13.5286                82.4023               305.2802

 - Thermochemistry -
 -------------------
 Temperature   298.150 Kelvin.  Pressure   1.00000 Atm.
 Atom     1 has atomic number  6 and mass  12.00000

 Molecular mass:   282.04228 amu.
 Principal axes and moments of inertia in atomic units:
                           1         2         3
     Eigenvalues --  3621.614357626.62194**********
           X            0.99970  -0.02447   0.00193
           Y            0.02448   0.99970  -0.00318
           Z           -0.00185   0.00323   0.99999
 This molecule is an asymmetric top.
 Rotational symmetry number  1.
 Warning -- assumption of classical behavior for rotation
           may cause significant error
 Rotational temperatures (Kelvin)      0.02392     0.01136     0.00833
 Rotational constants (GHZ):           0.49833     0.23664     0.17363
 Zero-point vibrational energy     559661.2 (Joules/Mol)
                                  133.76223 (Kcal/Mol)
 Warning -- explicit consideration of  26 degrees of freedom as
           vibrations may cause significant error
 Vibrational temperatures:     25.76    60.83    88.16   107.13   126.82
          (Kelvin)            166.11   192.06   216.04   252.52   267.95
                              274.31   389.27   428.97   454.29   515.58
                              532.73   566.95   576.41   651.79   683.46
                              720.39   748.53   780.97   823.77   840.32
                              843.54   902.76   926.17   947.46   980.77
                             1004.51  1080.19  1101.02  1129.74  1180.89
                             1191.78  1218.91  1278.44  1335.33  1359.76
                             1371.54  1389.02  1411.14  1427.86  1523.21
                             1603.62  1669.67  1670.41  1700.53  1733.11
                             1771.42  1822.34  1880.37  1929.31  1938.96
                             1961.48  1972.27  2002.91  2020.50  2038.15
                             2129.38  2134.91  2164.85  2207.50  2270.90
                             2329.99  2381.79  2400.65  2482.18  2552.03
                             2654.81  4467.68  4478.85  4542.39  4552.90
                             4640.91  4673.22  4679.01  4918.98  5068.61
                             5081.82

 Zero-point correction=                           0.213164 (Hartree/Particle)
 Thermal correction to Energy=                    0.229820
 Thermal correction to Enthalpy=                  0.230764
 Thermal correction to Gibbs Free Energy=         0.166930
 Sum of electronic and zero-point Energies=          -1304.937175
 Sum of electronic and thermal Energies=             -1304.920518
 Sum of electronic and thermal Enthalpies=           -1304.919574
 Sum of electronic and thermal Free Energies=        -1304.983408

                     E (Thermal)             CV                S
                      KCal/Mol        Cal/Mol-Kelvin    Cal/Mol-Kelvin
 Total                  144.214             62.580            134.350
 Electronic               0.000              0.000              0.000
 Translational            0.889              2.981             42.809
 Rotational               0.889              2.981             34.017
 Vibrational            142.437             56.618             57.524
 Vibration     1          0.593              1.986              6.854
 Vibration     2          0.595              1.980              5.149
 Vibration     3          0.597              1.973              4.416
 Vibration     4          0.599              1.966              4.032
 Vibration     5          0.601              1.958              3.701
 Vibration     6          0.608              1.937              3.175
 Vibration     7          0.613              1.920              2.895
 Vibration     8          0.618              1.902              2.670
 Vibration     9          0.627              1.873              2.376
 Vibration    10          0.632              1.859              2.265
 Vibration    11          0.634              1.853              2.221
 Vibration    12          0.674              1.727              1.593
 Vibration    13          0.691              1.677              1.427
 Vibration    14          0.703              1.644              1.332
 Vibration    15          0.733              1.558              1.129
 Vibration    16          0.742              1.533              1.079
 Vibration    17          0.761              1.483              0.985
 Vibration    18          0.766              1.469              0.960
 Vibration    19          0.812              1.354              0.787
 Vibration    20          0.832              1.305              0.724
 Vibration    21          0.856              1.248              0.656
 Vibration    22          0.875              1.205              0.609
 Vibration    23          0.898              1.155              0.559
 Vibration    24          0.929              1.091              0.499
 Vibration    25          0.941              1.066              0.478
 Vibration    26          0.943              1.061              0.474

 Optimization completed.
    -- Stationary point found.
 Normal termination of Gaussian 16 at Sun Dec 13 20:34:52 2020.

 ----------------------------------------------------------------------
 # B3LYP/6-311++G(d,p) empiricaldispersion=gd3bj scf=xqc pop=npa geom=c
 heck
 ----------------------------------------------------------------------

 --------------------------------------
 CID_62246331_JID_9287_Energie_neutraal
 --------------------------------------
 Structure from the checkpoint file:  "JID_9287.chk"
 Charge =  0 Multiplicity = 1

 SCF Done:  E(RB3LYP) =  -1305.44226295     A.U. after   17 cycles
 Normal termination of Gaussian 16 at Sun Dec 13 20:41:41 2020.

 ----------------------------------------------------------------------
 # B3LYP/6-311++G(d,p) empiricaldispersion=gd3bj scf=xqc pop=npa geom=c
 heck
 ----------------------------------------------------------------------

 ------------------------------------
 CID_62246331_JID_9287_Energie_kation
 ------------------------------------
 Structure from the checkpoint file:  "JID_9287.chk"
 Charge =  1 Multiplicity = 2

 SCF Done:  E(UB3LYP) =  -1305.13835424     A.U. after   30 cycles
 Normal termination of Gaussian 16 at Sun Dec 13 20:58:47 2020.
 Gaussian 16:  ES64L-G16RevA.03 25-Dec-2016

 ----------------------------------------------------------------------
 # B3LYP/6-311++G(d,p) empiricaldispersion=gd3bj scf=xqc pop=npa geom=c
 heck
 ----------------------------------------------------------------------

 -----------------------------------
 CID_62246331_JID_9287_Energie_anion
 -----------------------------------
 Structure from the checkpoint file:  "JID_9287.chk"
 Charge = -1 Multiplicity = 2

                         Standard orientation:
 ---------------------------------------------------------------------
 Center     Atomic      Atomic             Coordinates (Angstroms)
 Number     Number       Type             X           Y           Z
 ---------------------------------------------------------------------
      1          6           0        3.018863   -2.111645   -0.668077
      2          6           0        1.839189   -1.813833    0.248839
      3          8           0        1.060819   -2.648531    0.655587
      4          7           0        1.773170   -0.463318    0.568876
      5          6           0        2.747602    0.374668    0.046552
      6          8           0        2.814737    1.570424    0.246093
      7         16           0        3.906612   -0.539368   -0.964322
      8          6           0        0.701666    0.048873    1.444851
      9          6           0       -0.573796    0.392166    0.710193
     10          6           0       -0.822651    1.702909    0.207526
     11          6           0       -2.065759    1.964424   -0.411307
     12          6           0       -3.014951    0.968501   -0.562812
     13          6           0       -2.742084   -0.313320   -0.088394
     14          6           0       -1.534794   -0.597081    0.549163
     15          7           0       -3.733656   -1.364749   -0.247565
     16          8           0       -4.791235   -1.077099   -0.816150
     17          8           0       -3.463827   -2.484923    0.193183
     18          7           0        0.110060    2.700857    0.367027
     19          7           0       -0.027935    3.975341   -0.210576
     20          1           0        2.647186   -2.533406   -1.605215
     21          1           0        3.669599   -2.846467   -0.188305
     22          1           0        0.505469   -0.746698    2.165031
     23          1           0        1.112479    0.907612    1.978662
     24          1           0       -2.280393    2.961814   -0.774952
     25          1           0       -3.964738    1.165962   -1.043837
     26          1           0       -1.350551   -1.600377    0.913624
     27          1           0        1.086037    2.441358    0.474094
     28          1           0       -0.293770    3.893243   -1.194230
     29          1           0       -0.772275    4.476960    0.271049
 ---------------------------------------------------------------------

 SCF Done:  E(UB3LYP) =  -1305.47411928     A.U. after   27 cycles

 The electronic state is 2-A.
 Alpha  occ. eigenvalues --  -88.78666 -19.02956 -19.01769 -18.95993 -18.95929
 Alpha  occ. eigenvalues --  -14.33936 -14.28476 -14.24139 -14.23625 -10.21660
 Alpha  occ. eigenvalues --  -10.19888 -10.14191 -10.12491 -10.09991 -10.07112
 Alpha  occ. eigenvalues --  -10.07019 -10.05818 -10.05427 -10.05344  -7.87346
 Alpha  occ. eigenvalues --   -5.83699  -5.83364  -5.82752  -1.03808  -0.98867
 Alpha  occ. eigenvalues --   -0.96713  -0.88913  -0.87273  -0.86588  -0.76019
 Alpha  occ. eigenvalues --   -0.73976  -0.70312  -0.66557  -0.63549  -0.62702
 Alpha  occ. eigenvalues --   -0.60004  -0.54973  -0.54352  -0.49977  -0.46908
 Alpha  occ. eigenvalues --   -0.45070  -0.42885  -0.42275  -0.41292  -0.40899
 Alpha  occ. eigenvalues --   -0.39454  -0.38117  -0.37814  -0.36094  -0.35886
 Alpha  occ. eigenvalues --   -0.35148  -0.34807  -0.34113  -0.33009  -0.32270
 Alpha  occ. eigenvalues --   -0.31467  -0.30216  -0.29183  -0.28941  -0.27673
 Alpha  occ. eigenvalues --   -0.26682  -0.23790  -0.21466  -0.20283  -0.19588
 Alpha  occ. eigenvalues --   -0.18282  -0.17863  -0.17517  -0.15137  -0.14057
 Alpha  occ. eigenvalues --   -0.13653  -0.11496  -0.09982   0.02415
 Alpha virt. eigenvalues --    0.04587   0.06081   0.06950   0.08118   0.08689
 Alpha virt. eigenvalues --    0.09059   0.09560   0.10066   0.10737   0.11014
 Alpha virt. eigenvalues --    0.11570   0.12250   0.12801   0.13452   0.13792

  Beta  occ. eigenvalues --  -88.78665 -19.02844 -19.01620 -18.95628 -18.95520
  Beta  occ. eigenvalues --  -14.33385 -14.28544 -14.24142 -14.23568 -10.21463
  Beta  occ. eigenvalues --  -10.19743 -10.14204 -10.12486 -10.09773 -10.07101
  Beta  occ. eigenvalues --  -10.07091 -10.05895 -10.05328 -10.05183  -7.87345
  Beta  occ. eigenvalues --   -5.83700  -5.83368  -5.82743  -1.02922  -0.98639
  Beta  occ. eigenvalues --   -0.96452  -0.88808  -0.87205  -0.85853  -0.75897
  Beta  occ. eigenvalues --   -0.73898  -0.70117  -0.66501  -0.63241  -0.62483
  Beta  occ. eigenvalues --   -0.59809  -0.54777  -0.53729  -0.49888  -0.46742
  Beta  occ. eigenvalues --   -0.44807  -0.42747  -0.42178  -0.41194  -0.40618
  Beta  occ. eigenvalues --   -0.39323  -0.37879  -0.37397  -0.35698  -0.34993
  Beta  occ. eigenvalues --   -0.34596  -0.33975  -0.33533  -0.32705  -0.31944
  Beta  occ. eigenvalues --   -0.31115  -0.29960  -0.29008  -0.28611  -0.27531
  Beta  occ. eigenvalues --   -0.26123  -0.23674  -0.21370  -0.19880  -0.19012
  Beta  occ. eigenvalues --   -0.18173  -0.17784  -0.17429  -0.14314  -0.13289
  Beta  occ. eigenvalues --   -0.11823  -0.11110  -0.09356
  Beta virt. eigenvalues --    0.06047   0.06390   0.06917   0.08114   0.08582
  Beta virt. eigenvalues --    0.08994   0.09196   0.09646   0.10183   0.10740
  Beta virt. eigenvalues --    0.11042   0.11970   0.12418   0.12800   0.13495

 Mulliken charges and spin densities:
               1          2
     1  C   -0.347531  -0.017024
     2  C   -0.215813   0.075309
     3  O   -0.306384   0.046804
     4  N    0.386114  -0.023398
     5  C   -0.085558   0.115381
     6  O   -0.342010   0.038208
     7  S   -0.021551  -0.003063
     8  C   -0.564340  -0.001858
     9  C    1.372564  -0.032922
    10  C   -0.366682   0.125658
    11  C   -0.600128  -0.062915
    12  C    0.254141   0.175815
    13  C   -0.760211  -0.058624
    14  C   -0.531325   0.088864
    15  N   -0.239436   0.175905
    16  O   -0.165130   0.142613
    17  O   -0.155968   0.158404
    18  N   -0.225979   0.022620
    19  N   -0.356174  -0.005266
    20  H    0.225547   0.004902
    21  H    0.190407   0.031099
    22  H    0.225789  -0.001554
    23  H    0.222032   0.006168
    24  H    0.104783   0.006049
    25  H    0.232456  -0.009724
    26  H    0.279336  -0.005327
    27  H    0.337566  -0.001944
    28  H    0.204284   0.008688
    29  H    0.249202   0.001132
 Sum of Mulliken charges =  -1.00000   1.00000

 Dipole moment (field-independent basis, Debye):
    X=              9.9231    Y=              4.0005    Z=              0.1484  Tot=             10.7002
 Quadrupole moment (field-independent basis, Debye-Ang):
   XX=           -192.0675   YY=           -148.9448   ZZ=           -120.7643
   XY=            -37.0849   XZ=             -4.9288   YZ=              0.3937

 Summary of Natural Population Analysis:

                                       Natural Population
                Natural  -----------------------------------------------
    Atom  No    Charge         Core      Valence    Rydberg      Total
 -----------------------------------------------------------------------
      C    1   -0.28995      0.99957     2.28295    0.00744     3.28995
      C    2    0.36573      0.99967     1.61334    0.02127     2.63427
      O    3   -0.27607      0.99987     3.26944    0.00676     4.27607
      N    4   -0.27277      0.99957     2.76071    0.01249     3.77277
      C    5    0.30524      0.99970     1.66901    0.02605     2.69476
      O    6   -0.30160      0.99985     3.29354    0.00821     4.30160
      S    7    0.09772      4.99958     2.88449    0.01821     7.90228
      C    8   -0.09464      0.99958     2.08368    0.01139     3.09464
      C    9   -0.07759      0.99948     2.06773    0.01038     3.07759
      C   10    0.12794      0.99947     1.86275    0.00985     2.87206
      C   11   -0.16213      0.99955     2.15337    0.00921     3.16213
      C   12   -0.05015      0.99954     2.04107    0.00954     3.05015
      C   13    0.01849      0.99940     1.96707    0.01504     2.98151
      C   14   -0.05852      0.99949     2.04988    0.00915     3.05852
      N   15    0.29802      0.99971     2.17612    0.02614     3.20198
      O   16   -0.20593      0.99990     3.19858    0.00745     4.20593
      O   17   -0.19411      0.99990     3.18665    0.00756     4.19411
      N   18   -0.23043      0.99964     2.71699    0.01380     3.73043
      N   19   -0.31958      0.99978     2.80873    0.01107     3.81958
      H   20    0.11834      0.00000     0.38052    0.00115     0.38166
      H   21    0.11563      0.00000     0.38311    0.00127     0.38437
      H   22    0.11380      0.00000     0.38506    0.00114     0.38620
      H   23    0.10778      0.00000     0.39066    0.00156     0.39222
      H   24    0.09413      0.00000     0.40421    0.00166     0.40587
      H   25    0.11250      0.00000     0.38637    0.00112     0.38750
      H   26    0.12286      0.00000     0.37585    0.00129     0.37714
      H   27    0.20296      0.00000     0.29478    0.00227     0.29704
      H   28    0.16406      0.00000     0.33319    0.00276     0.33594
      H   29    0.16831      0.00000     0.32980    0.00189     0.33169
 =======================================================================
   * Total *   -0.00000     22.99325    49.74964    0.25712    73.00000

 Normal termination of Gaussian 16 at Sun Dec 13 21:14:25 2020.
