 Gaussian 16, Revision A.03,

 -----------------------------------------------------------
 # opt freq B3LYP/6-31G(d) empiricaldispersion=gd3bj scf=xqc
 -----------------------------------------------------------

 -------------------------------
 CID_110454489_JID_3715_neutraal
 -------------------------------
 Symbolic Z-matrix:
 Charge =  0 Multiplicity = 1

 SCF Done:  E(RB3LYP) =  -555.581783932     A.U. after   14 cycles
 SCF Done:  E(RB3LYP) =  -555.586749972     A.U. after   12 cycles
 SCF Done:  E(RB3LYP) =  -555.587510767     A.U. after   12 cycles
 SCF Done:  E(RB3LYP) =  -555.587981716     A.U. after   11 cycles
 SCF Done:  E(RB3LYP) =  -555.588426427     A.U. after   12 cycles
 SCF Done:  E(RB3LYP) =  -555.588667403     A.U. after   11 cycles
 SCF Done:  E(RB3LYP) =  -555.588894751     A.U. after   11 cycles
 SCF Done:  E(RB3LYP) =  -555.588945177     A.U. after   10 cycles
 SCF Done:  E(RB3LYP) =  -555.588971416     A.U. after   10 cycles
 SCF Done:  E(RB3LYP) =  -555.589012608     A.U. after   10 cycles
 SCF Done:  E(RB3LYP) =  -555.589117538     A.U. after    7 cycles
 SCF Done:  E(RB3LYP) =  -555.589117769     A.U. after    9 cycles
 SCF Done:  E(RB3LYP) =  -555.589117884     A.U. after    8 cycles
 SCF Done:  E(RB3LYP) =  -555.589117978     A.U. after    8 cycles
 SCF Done:  E(RB3LYP) =  -555.589118015     A.U. after    6 cycles
 Optimization completed.
    -- Stationary point found.
 Normal termination of Gaussian 16 at Sun Dec 13 12:33:36 2020.

 --------------------------------------------------------------------
 #N Geom=AllCheck Guess=TCheck SCRF=Check GenChk RB3LYP/6-31G(d) Freq
 --------------------------------------------------------------------

 Structure from the checkpoint file:  "JID_3715.chk"
 -------------------------------
 CID_110454489_JID_3715_neutraal
 -------------------------------
 Charge =  0 Multiplicity = 1

 SCF Done:  E(RB3LYP) =  -555.589118015     A.U. after    1 cycles

  Exact polarizability: 150.000   6.969 123.547  -0.304  -1.024  89.836
 Approx polarizability: 196.090   7.497 186.034  -0.449  -2.300 132.384

                      1                      2                      3
                      A                      A                      A
 Frequencies --     19.7596                35.9973                39.1423
 Red. masses --      2.4474                 1.6859                 1.3980
 Frc consts  --      0.0006                 0.0013                 0.0013
 IR Inten    --      0.3348                 0.3803                 0.0655

                      4                      5                      6
                      A                      A                      A
 Frequencies --     96.1099               113.5902               143.5543
 Red. masses --      2.6250                 1.2263                 2.3554
 Frc consts  --      0.0143                 0.0093                 0.0286
 IR Inten    --      0.1684                 1.0043                 1.5071

                      7                      8                      9
                      A                      A                      A
 Frequencies --    164.1858               174.5442               191.0313
 Red. masses --      1.2870                 1.8977                 2.5969
 Frc consts  --      0.0204                 0.0341                 0.0558
 IR Inten    --      0.1915                 3.5301                 2.4952

                     10                     11                     12
                      A                      A                      A
 Frequencies --    236.8038               246.3129               272.2988
 Red. masses --      2.5884                 2.1158                 2.2836
 Frc consts  --      0.0855                 0.0756                 0.0998
 IR Inten    --      2.1599                 0.6309                 3.3705

                     13                     14                     15
                      A                      A                      A
 Frequencies --    308.3356               325.6281               404.3100
 Red. masses --      3.2389                 3.7134                 3.9490
 Frc consts  --      0.1814                 0.2320                 0.3803
 IR Inten    --      1.4910                 0.4778                 2.4198

                     16                     17                     18
                      A                      A                      A
 Frequencies --    439.8975               574.2495               593.5603
 Red. masses --      5.1927                 2.4537                 2.3031
 Frc consts  --      0.5920                 0.4767                 0.4781
 IR Inten    --      0.4087                 5.5162                 3.7632

                     19                     20                     21
                      A                      A                      A
 Frequencies --    606.3216               646.7802               671.2827
 Red. masses --      4.0154                 6.8159                 4.4727
 Frc consts  --      0.8697                 1.6799                 1.1875
 IR Inten    --      1.0536                 0.4756                 7.9367

                     22                     23                     24
                      A                      A                      A
 Frequencies --    738.7152               771.1656               847.9785
 Red. masses --      5.3634                 2.7044                 1.8346
 Frc consts  --      1.7244                 0.9476                 0.7773
 IR Inten    --      3.2021                 7.4606                 2.6931

                     25                     26                     27
                      A                      A                      A
 Frequencies --    858.3634               894.8993               923.1523
 Red. masses --      2.6760                 1.9642                 2.5388
 Frc consts  --      1.1617                 0.9268                 1.2748
 IR Inten    --      8.5429                 6.1220                 2.0947

                     28                     29                     30
                      A                      A                      A
 Frequencies --    947.6192               972.4303               989.3955
 Red. masses --      1.6449                 2.7317                 1.4958
 Frc consts  --      0.8703                 1.5219                 0.8627
 IR Inten    --      1.1711                 2.2577                 0.6460

                     31                     32                     33
                      A                      A                      A
 Frequencies --   1020.0502              1041.7878              1059.5809
 Red. masses --      2.2209                 1.9603                 1.7664
 Frc consts  --      1.3615                 1.2535                 1.1685
 IR Inten    --     10.6151                 2.3037                 6.2037

                     34                     35                     36
                      A                      A                      A
 Frequencies --   1066.3445              1078.0615              1079.4017
 Red. masses --      2.0461                 1.4695                 1.4693
 Frc consts  --      1.3708                 1.0062                 1.0086
 IR Inten    --     10.6785                 1.1917                 1.6788

                     37                     38                     39
                      A                      A                      A
 Frequencies --   1155.9575              1158.0092              1172.0294
 Red. masses --      1.7187                 1.3168                 3.0890
 Frc consts  --      1.3531                 1.0404                 2.5000
 IR Inten    --      3.2769                 0.0557                22.4970

                     40                     41                     42
                      A                      A                      A
 Frequencies --   1195.0588              1207.0385              1217.8713
 Red. masses --      2.1371                 1.5276                 1.7494
 Frc consts  --      1.7983                 1.3113                 1.5288
 IR Inten    --      7.5931                 5.6818                 2.0731

                     43                     44                     45
                      A                      A                      A
 Frequencies --   1256.1171              1279.6388              1305.3714
 Red. masses --      1.2406                 1.2940                 3.4111
 Frc consts  --      1.1533                 1.2484                 3.4246
 IR Inten    --      4.0467                 6.1436                 5.6752

                     46                     47                     48
                      A                      A                      A
 Frequencies --   1333.7387              1346.1131              1360.8563
 Red. masses --      1.3384                 4.9182                 1.2724
 Frc consts  --      1.4027                 5.2507                 1.3884
 IR Inten    --      0.9632                54.2586                 0.4863

                     49                     50                     51
                      A                      A                      A
 Frequencies --   1379.5130              1402.2400              1420.3941
 Red. masses --      1.4390                 1.4774                 2.5431
 Frc consts  --      1.6135                 1.7116                 3.0230
 IR Inten    --      0.6655                 5.7088                57.2922

                     52                     53                     54
                      A                      A                      A
 Frequencies --   1435.7115              1440.2270              1470.1648
 Red. masses --      1.6130                 1.3241                 1.3777
 Frc consts  --      1.9589                 1.6183                 1.7544
 IR Inten    --     26.5164                 9.6257                 0.5566

                     55                     56                     57
                      A                      A                      A
 Frequencies --   1500.8136              1510.0428              1511.1588
 Red. masses --      1.3648                 1.0547                 1.1034
 Frc consts  --      1.8112                 1.4170                 1.4846
 IR Inten    --      8.9373                 0.3540                 9.6654

                     58                     59                     60
                      A                      A                      A
 Frequencies --   1515.9273              1516.6865              1521.8795
 Red. masses --      1.1647                 1.6496                 1.0442
 Frc consts  --      1.5769                 2.2358                 1.4250
 IR Inten    --      6.5960                23.6100                12.6514

                     61                     62                     63
                      A                      A                      A
 Frequencies --   1525.3864              1528.1349              1535.8596
 Red. masses --      1.4280                 1.0997                 1.6252
 Frc consts  --      1.9576                 1.5131                 2.2587
 IR Inten    --      2.8518                 1.8796                 3.8430

                     64                     65                     66
                      A                      A                      A
 Frequencies --   1549.0009              1553.4605              1568.4261
 Red. masses --      1.8642                 1.1547                 1.0956
 Frc consts  --      2.6353                 1.6418                 1.5879
 IR Inten    --     35.1007                 2.5615                 2.2776

                     67                     68                     69
                      A                      A                      A
 Frequencies --   1630.4274              2959.0156              3019.2831
 Red. masses --      6.3940                 1.0732                 1.0579
 Frc consts  --     10.0144                 5.5364                 5.6820
 IR Inten    --     11.7374                71.4356                55.4897

                     70                     71                     72
                      A                      A                      A
 Frequencies --   3035.8782              3039.9929              3045.5285
 Red. masses --      1.0391                 1.1041                 1.0384
 Frc consts  --      5.6425                 6.0120                 5.6746
 IR Inten    --     31.2091                35.4431                42.9603

                     73                     74                     75
                      A                      A                      A
 Frequencies --   3050.0166              3062.3199              3064.4061
 Red. masses --      1.0366                 1.0700                 1.0628
 Frc consts  --      5.6817                 5.9122                 5.8804
 IR Inten    --     62.0123                26.2387                32.2820

                     76                     77                     78
                      A                      A                      A
 Frequencies --   3081.7090              3083.2384              3093.6774
 Red. masses --      1.0874                 1.1005                 1.1004
 Frc consts  --      6.0846                 6.1640                 6.2052
 IR Inten    --     38.1623                33.3775                23.0056

                     79                     80                     81
                      A                      A                      A
 Frequencies --   3103.4338              3110.3874              3121.0956
 Red. masses --      1.1056                 1.0988                 1.1062
 Frc consts  --      6.2738                 6.2634                 6.3488
 IR Inten    --     25.8987                38.6092                52.9993

                     82                     83                     84
                      A                      A                      A
 Frequencies --   3139.4331              3139.8522              3181.2280
 Red. masses --      1.1001                 1.0982                 1.0992
 Frc consts  --      6.3882                 6.3788                 6.5543
 IR Inten    --     15.5683                 5.0884                 3.0934

 - Thermochemistry -
 -------------------
 Temperature   298.150 Kelvin.  Pressure   1.00000 Atm.
 Atom     1 has atomic number  6 and mass  12.00000

 Molecular mass:   179.14225 amu.
 Principal axes and moments of inertia in atomic units:
                           1         2         3
     Eigenvalues --  1205.915653385.999484094.51298
           X            0.99980   0.01980  -0.00031
           Y           -0.01980   0.99980  -0.00038
           Z            0.00030   0.00039   1.00000
 This molecule is an asymmetric top.
 Rotational symmetry number  1.
 Warning -- assumption of classical behavior for rotation
           may cause significant error
 Rotational temperatures (Kelvin)      0.07182     0.02558     0.02115
 Rotational constants (GHZ):           1.49657     0.53300     0.44077
 Zero-point vibrational energy     696384.5 (Joules/Mol)
                                  166.43988 (Kcal/Mol)
 Warning -- explicit consideration of  19 degrees of freedom as
           vibrations may cause significant error
 Vibrational temperatures:     28.43    51.79    56.32   138.28   163.43
          (Kelvin)            206.54   236.23   251.13   274.85   340.71
                              354.39   391.78   443.63   468.51   581.71
                              632.91   826.22   854.00   872.36   930.57
                              965.83  1062.85  1109.54  1220.05  1234.99
                             1287.56  1328.21  1363.41  1399.11  1423.52
                             1467.62  1498.90  1524.50  1534.23  1551.09
                             1553.02  1663.16  1666.12  1686.29  1719.42
                             1736.66  1752.25  1807.27  1841.11  1878.14
                             1918.95  1936.76  1957.97  1984.81  2017.51
                             2043.63  2065.67  2072.17  2115.24  2159.34
                             2172.61  2174.22  2181.08  2182.17  2189.65
                             2194.69  2198.65  2209.76  2228.67  2235.08
                             2256.62  2345.82  4257.36  4344.08  4367.95
                             4373.87  4381.84  4388.29  4406.00  4409.00
                             4433.89  4436.09  4451.11  4465.15  4475.15
                             4490.56  4516.94  4517.55  4577.08

 Zero-point correction=                           0.265239 (Hartree/Particle)
 Thermal correction to Energy=                    0.279168
 Thermal correction to Enthalpy=                  0.280112
 Thermal correction to Gibbs Free Energy=         0.222669
 Sum of electronic and zero-point Energies=           -555.323879
 Sum of electronic and thermal Energies=              -555.309950
 Sum of electronic and thermal Enthalpies=            -555.309006
 Sum of electronic and thermal Free Energies=         -555.366449

                     E (Thermal)             CV                S
                      KCal/Mol        Cal/Mol-Kelvin    Cal/Mol-Kelvin
 Total                  175.181             50.015            120.899
 Electronic               0.000              0.000              0.000
 Translational            0.889              2.981             41.456
 Rotational               0.889              2.981             31.192
 Vibrational            173.403             44.053             48.252
 Vibration     1          0.593              1.986              6.658
 Vibration     2          0.594              1.982              5.468
 Vibration     3          0.594              1.981              5.302
 Vibration     4          0.603              1.952              3.532
 Vibration     5          0.607              1.938              3.207
 Vibration     6          0.616              1.910              2.756
 Vibration     7          0.623              1.886              2.501
 Vibration     8          0.627              1.874              2.386
 Vibration     9          0.634              1.852              2.218
 Vibration    10          0.656              1.784              1.827
 Vibration    11          0.661              1.769              1.757
 Vibration    12          0.675              1.724              1.582
 Vibration    13          0.698              1.658              1.371
 Vibration    14          0.710              1.624              1.282
 Vibration    15          0.769              1.461              0.947
 Vibration    16          0.800              1.383              0.827
 Vibration    17          0.931              1.087              0.496
 Vibration    18          0.951              1.045              0.461
 Vibration    19          0.965              1.018              0.439

                           ! Non-Optimized Parameters !
 Normal termination of Gaussian 16 at Sun Dec 13 12:41:32 2020.

 ----------------------------------------------------------------------
 # B3LYP/6-311++G(d,p) empiricaldispersion=gd3bj scf=xqc pop=npa geom=c
 heck
 ----------------------------------------------------------------------

 ---------------------------------------
 CID_110454489_JID_3715_Energie_neutraal
 ---------------------------------------
 Structure from the checkpoint file:  "JID_3715.chk"
 Charge =  0 Multiplicity = 1

 SCF Done:  E(RB3LYP) =  -555.734921007     A.U. after   14 cycles
 Normal termination of Gaussian 16 at Sun Dec 13 12:44:46 2020.

 ----------------------------------------------------------------------
 # B3LYP/6-311++G(d,p) empiricaldispersion=gd3bj scf=xqc pop=npa geom=c
 heck
 ----------------------------------------------------------------------

 -------------------------------------
 CID_110454489_JID_3715_Energie_kation
 -------------------------------------
 Structure from the checkpoint file:  "JID_3715.chk"
 Charge =  1 Multiplicity = 2

 SCF Done:  E(UB3LYP) =  -555.455028394     A.U. after   33 cycles
 SCF Done:  E(UB3LYP) =  -555.455028410     a.u. after    2 cycles
 Normal termination of Gaussian 16 at Sun Dec 13 13:00:43 2020.
 Gaussian 16:  ES64L-G16RevA.03 25-Dec-2016

 ----------------------------------------------------------------------
 # B3LYP/6-311++G(d,p) empiricaldispersion=gd3bj scf=xqc pop=npa geom=c
 heck
 ----------------------------------------------------------------------

 ------------------------------------
 CID_110454489_JID_3715_Energie_anion
 ------------------------------------
 Structure from the checkpoint file:  "JID_3715.chk"
 Charge = -1 Multiplicity = 2

                         Standard orientation:
 ---------------------------------------------------------------------
 Center     Atomic      Atomic             Coordinates (Angstroms)
 Number     Number       Type             X           Y           Z
 ---------------------------------------------------------------------
      1          6           0       -1.449550   -2.307330    0.052203
      2          6           0       -1.352484   -0.821437    0.016533
      3          6           0       -0.225729   -0.008996   -0.005421
      4          6           0       -0.728519    1.325244   -0.034847
      5          7           0       -2.061451    1.329070   -0.031711
      6          7           0       -2.424139    0.017160   -0.001185
      7          6           0       -3.825834   -0.336457    0.013031
      8          6           0        0.031554    2.614919   -0.069506
      9          7           0        1.107277   -0.473745    0.007385
     10          6           0        1.909885   -0.209258    1.220079
     11          6           0        3.358159   -0.041000    0.713259
     12          6           0        3.326150   -0.620162   -0.712218
     13          6           0        1.925628   -0.231525   -1.184464
     14          1           0       -1.966996   -2.668164    0.950482
     15          1           0       -1.984494   -2.709012   -0.818023
     16          1           0       -0.434651   -2.714177    0.051541
     17          1           0       -4.083767   -0.893191    0.921257
     18          1           0       -4.390881    0.595310   -0.012617
     19          1           0       -4.088220   -0.944921   -0.859976
     20          1           0       -0.663961    3.454713    0.011240
     21          1           0        0.752528    2.681763    0.754039
     22          1           0        0.597726    2.727154   -1.002314
     23          1           0        1.812477   -1.051154    1.918487
     24          1           0        1.565366    0.688865    1.751375
     25          1           0        3.616773    1.023417    0.670069
     26          1           0        4.091526   -0.530973    1.360682
     27          1           0        4.119701   -0.225290   -1.353938
     28          1           0        3.416821   -1.712110   -0.684714
     29          1           0        1.911177    0.824513   -1.509883
     30          1           0        1.561503   -0.838122   -2.021019
 ---------------------------------------------------------------------

 SCF Done:  E(UB3LYP) =  -555.720232150     A.U. after   30 cycles

 The electronic state is 2-A.
 Alpha  occ. eigenvalues --  -14.27537 -14.21532 -14.20103 -10.10412 -10.09862
 Alpha  occ. eigenvalues --  -10.09073 -10.08999 -10.08540 -10.07745 -10.07009
 Alpha  occ. eigenvalues --  -10.06931 -10.06830 -10.06758  -0.93714  -0.82992
 Alpha  occ. eigenvalues --   -0.74289  -0.70371  -0.66290  -0.63598  -0.62554
 Alpha  occ. eigenvalues --   -0.59506  -0.56486  -0.50528  -0.48551  -0.45956
 Alpha  occ. eigenvalues --   -0.44182  -0.41214  -0.38919  -0.37601  -0.37416
 Alpha  occ. eigenvalues --   -0.33244  -0.32880  -0.32251  -0.31448  -0.31104
 Alpha  occ. eigenvalues --   -0.30465  -0.29696  -0.29222  -0.28817  -0.27674
 Alpha  occ. eigenvalues --   -0.26903  -0.25954  -0.25061  -0.24540  -0.23010
 Alpha  occ. eigenvalues --   -0.19119  -0.13438  -0.12646  -0.10990   0.04408
 Alpha virt. eigenvalues --    0.06099   0.07448   0.07913   0.08419   0.09267
 Alpha virt. eigenvalues --    0.09399   0.10146   0.10466   0.11111   0.11118
 Alpha virt. eigenvalues --    0.11647   0.11942   0.13085   0.13348   0.13900

  Beta  occ. eigenvalues --  -14.27535 -14.21523 -14.20099 -10.10365 -10.09861
  Beta  occ. eigenvalues --  -10.09059 -10.08984 -10.08539 -10.07744 -10.06988
  Beta  occ. eigenvalues --  -10.06916 -10.06810 -10.06713  -0.93705  -0.82979
  Beta  occ. eigenvalues --   -0.74272  -0.70349  -0.66254  -0.63565  -0.62518
  Beta  occ. eigenvalues --   -0.59449  -0.56438  -0.50489  -0.48488  -0.45929
  Beta  occ. eigenvalues --   -0.44148  -0.41173  -0.38896  -0.37552  -0.37381
  Beta  occ. eigenvalues --   -0.33220  -0.32850  -0.32224  -0.31409  -0.31063
  Beta  occ. eigenvalues --   -0.30430  -0.29664  -0.29193  -0.28788  -0.27647
  Beta  occ. eigenvalues --   -0.26873  -0.25928  -0.25024  -0.24504  -0.22978
  Beta  occ. eigenvalues --   -0.19081  -0.13422  -0.12634  -0.10967
  Beta virt. eigenvalues --    0.06494   0.07310   0.07833   0.08423   0.08943
  Beta virt. eigenvalues --    0.09696   0.10232   0.10355   0.10668   0.11465
  Beta virt. eigenvalues --    0.11590   0.11946   0.12206   0.13301   0.13461

 Mulliken charges and spin densities:
               1          2
     1  C    0.989037  -1.635826
     2  C   -0.277208   0.581007
     3  C   -1.078355   0.446819
     4  C   -0.212680   0.123035
     5  N   -0.363162   0.238607
     6  N   -0.048829   0.133389
     7  C    0.833695  -1.144848
     8  C    0.100175  -0.726750
     9  N    0.294429   0.077341
    10  C    0.243987  -0.364253
    11  C    0.148230  -0.479801
    12  C    0.487890  -0.843237
    13  C    0.113789  -0.196511
    14  H   -0.306723   0.468145
    15  H   -0.291543   0.450270
    16  H   -0.147033   0.344674
    17  H   -0.374277   0.541939
    18  H   -0.067139   0.224117
    19  H   -0.419817   0.588327
    20  H    0.139598   0.021612
    21  H   -0.008664   0.144477
    22  H   -0.144808   0.284880
    23  H   -0.114107   0.260929
    24  H    0.013687   0.105420
    25  H    0.062354   0.062527
    26  H   -0.309360   0.473692
    27  H   -0.477608   0.635721
    28  H    0.171676  -0.032061
    29  H    0.245050  -0.149122
    30  H   -0.202283   0.365479
 Sum of Mulliken charges =  -1.00000   1.00000

 Dipole moment (field-independent basis, Debye):
    X=              2.2959    Y=              3.4998    Z=              0.2878  Tot=              4.1956
 Quadrupole moment (field-independent basis, Debye-Ang):
   XX=           -159.0769   YY=           -123.9000   ZZ=           -113.1247
   XY=             -8.2420   XZ=              0.6139   YZ=              1.3053

 Summary of Natural Population Analysis:

                                       Natural Population
                Natural  -----------------------------------------------
    Atom  No    Charge         Core      Valence    Rydberg      Total
 -----------------------------------------------------------------------
      C    1   -0.30435      0.99964     2.29913    0.00559     3.30435
      C    2    0.09534      0.99947     1.89338    0.01181     2.90466
      C    3    0.02673      0.99936     1.96080    0.01312     2.97327
      C    4    0.06888      0.99955     1.91853    0.01304     2.93112
      N    5   -0.16571      0.99970     2.65482    0.01119     3.66571
      N    6   -0.11099      0.99962     2.59854    0.01283     3.61099
      C    7   -0.17431      0.99964     2.16668    0.00798     3.17431
      C    8   -0.29759      0.99963     2.29337    0.00459     3.29759
      N    9   -0.28720      0.99969     2.77384    0.01368     3.78720
      C   10   -0.07570      0.99962     2.06574    0.01034     3.07570
      C   11   -0.19655      0.99964     2.18952    0.00739     3.19655
      C   12   -0.19389      0.99963     2.18620    0.00805     3.19389
      C   13   -0.07566      0.99961     2.06552    0.01053     3.07566
      H   14    0.10731      0.00000     0.39093    0.00175     0.39269
      H   15    0.10754      0.00000     0.39069    0.00178     0.39246
      H   16    0.11525      0.00000     0.38318    0.00156     0.38475
      H   17    0.09904      0.00000     0.39911    0.00185     0.40096
      H   18    0.10756      0.00000     0.39078    0.00166     0.39244
      H   19    0.09953      0.00000     0.39849    0.00198     0.40047
      H   20    0.10662      0.00000     0.39232    0.00106     0.39338
      H   21    0.10132      0.00000     0.39709    0.00160     0.39868
      H   22    0.10199      0.00000     0.39636    0.00165     0.39801
      H   23    0.09004      0.00000     0.40861    0.00135     0.40996
      H   24    0.08676      0.00000     0.41199    0.00124     0.41324
      H   25    0.09476      0.00000     0.40382    0.00142     0.40524
      H   26    0.10088      0.00000     0.39792    0.00119     0.39912
      H   27    0.10004      0.00000     0.39876    0.00120     0.39996
      H   28    0.09730      0.00000     0.40134    0.00136     0.40270
      H   29    0.07854      0.00000     0.41993    0.00153     0.42146
      H   30    0.09652      0.00000     0.40223    0.00125     0.40348
 =======================================================================
   * Total *   -0.00000     12.99480    35.84963    0.15557    49.00000

 Normal termination of Gaussian 16 at Sun Dec 13 13:09:34 2020.
