 Gaussian 16, Revision A.03,

 -----------------------------------------------------------
 # opt freq B3LYP/6-31G(d) empiricaldispersion=gd3bj scf=xqc
 -----------------------------------------------------------

 ------------------------------
 CID_147213042_JID_981_neutraal
 ------------------------------
 Symbolic Z-matrix:
 Charge =  0 Multiplicity = 1

 SCF Done:  E(RB3LYP) =  -407.938447022     A.U. after   14 cycles
 SCF Done:  E(RB3LYP) =  -407.940741805     A.U. after   13 cycles
 SCF Done:  E(RB3LYP) =  -407.941625537     A.U. after   13 cycles
 SCF Done:  E(RB3LYP) =  -407.941925390     A.U. after   15 cycles
 SCF Done:  E(RB3LYP) =  -407.942281514     A.U. after   12 cycles
 SCF Done:  E(RB3LYP) =  -407.942336634     A.U. after   11 cycles
 SCF Done:  E(RB3LYP) =  -407.942402205     A.U. after   12 cycles
 SCF Done:  E(RB3LYP) =  -407.942434048     A.U. after   11 cycles
 SCF Done:  E(RB3LYP) =  -407.942470743     A.U. after   11 cycles
 SCF Done:  E(RB3LYP) =  -407.942485923     A.U. after   11 cycles
 SCF Done:  E(RB3LYP) =  -407.942489791     A.U. after    7 cycles
 SCF Done:  E(RB3LYP) =  -407.942489306     A.U. after    8 cycles
 SCF Done:  E(RB3LYP) =  -407.942489579     A.U. after    8 cycles
 SCF Done:  E(RB3LYP) =  -407.942489612     A.U. after    7 cycles
 SCF Done:  E(RB3LYP) =  -407.942489602     A.U. after    6 cycles
 Optimization completed.
    -- Stationary point found.

 1\1\GINC-NODE128\FOpt\RB3LYP\6-31G(d)\C9H17N1\VSC10255\08-Dec-2020\0\\
 # opt freq B3LYP/6-31G(d) empiricaldispersion=gd3bj scf=xqc\\CID_14721
 3042_JID_981_neutraal\\0,1\C,1.2974279891,-0.071316997,0.1386077565\C,
 0.8836474654,-0.6739733599,1.4843998666\C,0.895706666,0.3289741273,2.6
 479470203\C,-0.0275682723,1.5437425681,2.4728350773\C,-1.5149041507,1.
 193878746,2.2511698956\C,-2.090921598,0.3276513593,3.341734342\C,-2.71
 24668692,0.7386734768,4.4517077351\C,-2.9908894679,2.1645651673,4.8464
 621005\N,-4.392771363,2.3049868802,5.2364620077\C,-5.0948814771,3.1396

 Normal termination of Gaussian 16 at Tue Dec  8 13:42:37 2020.

 --------------------------------------------------------------------
 #N Geom=AllCheck Guess=TCheck SCRF=Check GenChk RB3LYP/6-31G(d) Freq
 --------------------------------------------------------------------

 Structure from the checkpoint file:  "JID_981.chk"
 ------------------------------
 CID_147213042_JID_981_neutraal
 ------------------------------
 Charge =  0 Multiplicity = 1

 SCF Done:  E(RB3LYP) =  -407.942489602     A.U. after    1 cycles

  Exact polarizability: 135.918  -1.738  93.580  -0.637   0.062  78.779
 Approx polarizability: 160.396   0.776 143.786  -3.614  -1.897 116.051

                      1                      2                      3
                      A                      A                      A
 Frequencies --     21.0432                34.8159                53.2411
 Red. masses --      3.7381                 3.3710                 3.3319
 Frc consts  --      0.0010                 0.0024                 0.0056
 IR Inten    --      0.0835                 0.7917                 0.3729

                      4                      5                      6
                      A                      A                      A
 Frequencies --     75.3380                87.2027               169.9731
 Red. masses --      2.5859                 3.1163                 3.0383
 Frc consts  --      0.0086                 0.0140                 0.0517
 IR Inten    --      0.2648                 5.1261                 2.9867

                      7                      8                      9
                      A                      A                      A
 Frequencies --    172.2132               245.4946               276.9419
 Red. masses --      1.6500                 1.7427                 1.8676
 Frc consts  --      0.0288                 0.0619                 0.0844
 IR Inten    --      0.0877                 1.8343                 0.9472

                     10                     11                     12
                      A                      A                      A
 Frequencies --    316.7818               364.5699               394.7811
 Red. masses --      2.0100                 2.2212                 1.8989
 Frc consts  --      0.1188                 0.1739                 0.1744
 IR Inten    --      0.2931                 3.9087                 2.5516

                     13                     14                     15
                      A                      A                      A
 Frequencies --    465.4346               481.1863               536.5340
 Red. masses --      2.0642                 2.5063                 2.2218
 Frc consts  --      0.2635                 0.3419                 0.3768
 IR Inten    --      2.1734                 2.4011                 0.4678

                     16                     17                     18
                      A                      A                      A
 Frequencies --    595.2668               713.5283               728.6119
 Red. masses --      2.8111                 1.2399                 1.2338
 Frc consts  --      0.5869                 0.3719                 0.3859
 IR Inten    --      4.6365                 1.2978                19.2098

                     19                     20                     21
                      A                      A                      A
 Frequencies --    752.3791               791.9457               840.8482
 Red. masses --      1.4744                 1.6726                 1.8933
 Frc consts  --      0.4918                 0.6181                 0.7887
 IR Inten    --     12.2049                 8.6514                 0.4140

                     22                     23                     24
                      A                      A                      A
 Frequencies --    902.1259               907.7356               980.9471
 Red. masses --      2.0189                 1.6623                 2.2859
 Frc consts  --      0.9681                 0.8070                 1.2960
 IR Inten    --      2.9921                 0.0673                12.2485

                     25                     26                     27
                      A                      A                      A
 Frequencies --    986.2383              1003.6030              1013.6066
 Red. masses --      2.0823                 1.7835                 1.5405
 Frc consts  --      1.1933                 1.0584                 0.9325
 IR Inten    --      2.6919                 9.1304                 1.3418

                     28                     29                     30
                      A                      A                      A
 Frequencies --   1022.2810              1033.7437              1058.1496
 Red. masses --      1.5067                 1.8373                 1.3660
 Frc consts  --      0.9277                 1.1568                 0.9011
 IR Inten    --      1.6802                 0.5767                15.4098

                     31                     32                     33
                      A                      A                      A
 Frequencies --   1081.1482              1098.5046              1139.1462
 Red. masses --      1.5545                 2.0273                 2.0547
 Frc consts  --      1.0705                 1.4413                 1.5709
 IR Inten    --      0.1580                 0.5689                 2.4179

                     34                     35                     36
                      A                      A                      A
 Frequencies --   1155.0370              1210.8196              1231.7816
 Red. masses --      1.8691                 1.2496                 1.3842
 Frc consts  --      1.4692                 1.0794                 1.2374
 IR Inten    --      0.8758                 2.2622                 4.6734

                     37                     38                     39
                      A                      A                      A
 Frequencies --   1248.9934              1269.0358              1295.3455
 Red. masses --      1.4275                 1.2439                 1.1822
 Frc consts  --      1.3121                 1.1803                 1.1688
 IR Inten    --      1.3234                 9.1329                 1.9323

                     40                     41                     42
                      A                      A                      A
 Frequencies --   1306.5443              1339.2007              1360.8677
 Red. masses --      1.1921                 1.1722                 1.2439
 Frc consts  --      1.1990                 1.2387                 1.3572
 IR Inten    --      1.2338                 0.4196                25.1608

                     43                     44                     45
                      A                      A                      A
 Frequencies --   1373.8504              1383.3542              1411.6515
 Red. masses --      1.3502                 1.3711                 1.4377
 Frc consts  --      1.5015                 1.5460                 1.6880
 IR Inten    --      9.6096                 6.9111                 3.0062

                     46                     47                     48
                      A                      A                      A
 Frequencies --   1413.6286              1443.6799              1453.4225
 Red. masses --      1.3721                 1.2744                 1.4594
 Frc consts  --      1.6155                 1.5650                 1.8164
 IR Inten    --      1.5558                 5.3422                 0.3287

                     49                     50                     51
                      A                      A                      A
 Frequencies --   1503.6432              1511.1909              1519.7480
 Red. masses --      1.0895                 1.0751                 1.1068
 Frc consts  --      1.4513                 1.4466                 1.5062
 IR Inten    --      2.0533                 0.1775                 2.0479

                     52                     53                     54
                      A                      A                      A
 Frequencies --   1522.6228              1524.0027              1533.3311
 Red. masses --      1.1178                 1.0915                 1.0639
 Frc consts  --      1.5269                 1.4937                 1.4737
 IR Inten    --     10.9215                 5.0955                14.0524

                     55                     56                     57
                      A                      A                      A
 Frequencies --   1536.0761              1543.8360              1743.8435
 Red. masses --      1.0665                 1.0844                 6.4847
 Frc consts  --      1.4826                 1.5228                11.6186
 IR Inten    --      0.3724                 4.2981                 3.2284

                     58                     59                     60
                      A                      A                      A
 Frequencies --   1759.3162              2994.9712              3012.9095
 Red. masses --      6.1757                 1.0591                 1.0657
 Frc consts  --     11.2623                 5.5971                 5.6997
 IR Inten    --     20.2751                32.0835                54.1173

                     61                     62                     63
                      A                      A                      A
 Frequencies --   3029.0025              3034.6714              3035.8580
 Red. masses --      1.0639                 1.0620                 1.0972
 Frc consts  --      5.7513                 5.7623                 5.9582
 IR Inten    --     17.7142                33.0316                13.7649

                     64                     65                     66
                      A                      A                      A
 Frequencies --   3039.5995              3045.4732              3047.5850
 Red. masses --      1.0599                 1.0413                 1.0651
 Frc consts  --      5.7698                 5.6906                 5.8285
 IR Inten    --     28.4888                21.1336                13.8549

                     67                     68                     69
                      A                      A                      A
 Frequencies --   3063.3794              3068.6929              3080.2921
 Red. masses --      1.0970                 1.0996                 1.0997
 Frc consts  --      6.0654                 6.1009                 6.1479
 IR Inten    --     18.1847                42.3718                76.1571

                     70                     71                     72
                      A                      A                      A
 Frequencies --   3086.8696              3109.2529              3115.5805
 Red. masses --      1.1028                 1.1017                 1.1019
 Frc consts  --      6.1914                 6.2751                 6.3022
 IR Inten    --     61.7691                51.0502                50.8664

                     73                     74                     75
                      A                      A                      A
 Frequencies --   3148.2289              3154.3490              3177.7042
 Red. masses --      1.0850                 1.1031                 1.0934
 Frc consts  --      6.3360                 6.4668                 6.5053
 IR Inten    --     15.5032                43.9708                26.3732

 - Thermochemistry -
 -------------------
 Temperature   298.150 Kelvin.  Pressure   1.00000 Atm.
 Atom     1 has atomic number  6 and mass  12.00000

 Molecular mass:   139.13610 amu.
 Principal axes and moments of inertia in atomic units:
                           1         2         3
     Eigenvalues --   472.941034141.080964228.50805
           X            0.99999  -0.00269  -0.00250
           Y            0.00270   0.99999   0.00191
           Z            0.00250  -0.00192   1.00000
 This molecule is an asymmetric top.
 Rotational symmetry number  1.
 Warning -- assumption of classical behavior for rotation
           may cause significant error
 Rotational temperatures (Kelvin)      0.18314     0.02092     0.02048
 Rotational constants (GHZ):           3.81600     0.43581     0.42680
 Zero-point vibrational energy     647087.6 (Joules/Mol)
                                  154.65766 (Kcal/Mol)
 Warning -- explicit consideration of  16 degrees of freedom as
           vibrations may cause significant error
 Vibrational temperatures:     30.28    50.09    76.60   108.39   125.47
          (Kelvin)            244.55   247.78   353.21   398.46   455.78
                              524.53   568.00   669.66   692.32   771.95
                              856.46  1026.61  1048.31  1082.51  1139.43
                             1209.79  1297.96  1306.03  1411.36  1418.98
                             1443.96  1458.35  1470.83  1487.33  1522.44
                             1555.53  1580.50  1638.98  1661.84  1742.10
                             1772.26  1797.02  1825.86  1863.71  1879.83
                             1926.81  1957.99  1976.66  1990.34  2031.05
                             2033.90  2077.13  2091.15  2163.41  2174.27
                             2186.58  2190.71  2192.70  2206.12  2210.07
                             2221.24  2509.00  2531.26  4309.10  4334.90
                             4358.06  4366.22  4367.92  4373.31  4381.76
                             4384.80  4407.52  4415.16  4431.85  4441.32
                             4473.52  4482.63  4529.60  4538.40  4572.01

 Zero-point correction=                           0.246463 (Hartree/Particle)
 Thermal correction to Energy=                    0.258572
 Thermal correction to Enthalpy=                  0.259516
 Thermal correction to Gibbs Free Energy=         0.206055
 Sum of electronic and zero-point Energies=           -407.696027
 Sum of electronic and thermal Energies=              -407.683918
 Sum of electronic and thermal Enthalpies=            -407.682974
 Sum of electronic and thermal Free Energies=         -407.736434

                     E (Thermal)             CV                S
                      KCal/Mol        Cal/Mol-Kelvin    Cal/Mol-Kelvin
 Total                  162.256             43.211            112.518
 Electronic               0.000              0.000              0.000
 Translational            0.889              2.981             40.703
 Rotational               0.889              2.981             30.494
 Vibrational            160.479             37.249             41.321
 Vibration     1          0.593              1.985              6.533
 Vibration     2          0.594              1.983              5.534
 Vibration     3          0.596              1.976              4.693
 Vibration     4          0.599              1.965              4.009
 Vibration     5          0.601              1.958              3.722
 Vibration     6          0.625              1.879              2.436
 Vibration     7          0.626              1.877              2.411
 Vibration     8          0.660              1.770              1.763
 Vibration     9          0.678              1.716              1.552
 Vibration    10          0.704              1.642              1.327
 Vibration    11          0.738              1.545              1.103
 Vibration    12          0.762              1.481              0.982
 Vibration    13          0.823              1.327              0.750
 Vibration    14          0.837              1.292              0.707
 Vibration    15          0.892              1.169              0.573
 Vibration    16          0.953              1.042              0.458

 Optimization completed.
    -- Stationary point found.

 1\1\GINC-NODE128\Freq\RB3LYP\6-31G(d)\C9H17N1\VSC10255\08-Dec-2020\0\\
 #N Geom=AllCheck Guess=TCheck SCRF=Check GenChk RB3LYP/6-31G(d) Freq\\
 CID_147213042_JID_981_neutraal\\0,1\C,1.2974279891,-0.071316997,0.1386
 077565\C,0.8836474654,-0.6739733599,1.4843998666\C,0.895706666,0.32897
 41273,2.6479470203\C,-0.0275682723,1.5437425681,2.4728350773\C,-1.5149
 041507,1.193878746,2.2511698956\C,-2.090921598,0.3276513593,3.34173434
 2\C,-2.7124668692,0.7386734768,4.4517077351\C,-2.9908894679,2.16456516
 73,4.8464621005\N,-4.392771363,2.3049868802,5.2364620077\C,-5.09488147

 Normal termination of Gaussian 16 at Tue Dec  8 13:49:57 2020.

 ----------------------------------------------------------------------
 # B3LYP/6-311++G(d,p) empiricaldispersion=gd3bj scf=xqc pop=npa geom=c
 heck
 ----------------------------------------------------------------------

 --------------------------------------
 CID_147213042_JID_981_Energie_neutraal
 --------------------------------------
 Structure from the checkpoint file:  "JID_981.chk"
 Charge =  0 Multiplicity = 1

 SCF Done:  E(RB3LYP) =  -408.058528795     A.U. after   13 cycles
 Normal termination of Gaussian 16 at Tue Dec  8 13:53:16 2020.

 ----------------------------------------------------------------------
 # B3LYP/6-311++G(d,p) empiricaldispersion=gd3bj scf=xqc pop=npa geom=c
 heck
 ----------------------------------------------------------------------

 ------------------------------------
 CID_147213042_JID_981_Energie_kation
 ------------------------------------
 Structure from the checkpoint file:  "JID_981.chk"
 Charge =  1 Multiplicity = 2

 SCF Done:  E(UB3LYP) =  -407.732901137     A.U. after   24 cycles
 Normal termination of Gaussian 16 at Tue Dec  8 14:02:15 2020.
 Gaussian 16:  ES64L-G16RevA.03 25-Dec-2016

 -----------------------------------
 CID_147213042_JID_981_Energie_anion
 -----------------------------------
 Structure from the checkpoint file:  "JID_981.chk"
 Charge = -1 Multiplicity = 2

                         Standard orientation:
 ---------------------------------------------------------------------
 Center     Atomic      Atomic             Coordinates (Angstroms)
 Number     Number       Type             X           Y           Z
 ---------------------------------------------------------------------
      1          6           0        4.092214    0.785374   -0.403146
      2          6           0        3.276544   -0.510495   -0.371995
      3          6           0        2.307265   -0.609936    0.815650
      4          6           0        1.255245    0.506152    0.895428
      5          6           0        0.357584    0.633714   -0.354229
      6          6           0       -0.352256   -0.647384   -0.709747
      7          6           0       -1.566444   -1.033441   -0.304771
      8          6           0       -2.502276   -0.258758    0.584387
      9          7           0       -3.835494   -0.221319   -0.014128
     10          6           0       -4.332636    0.917647   -0.256787
     11          1           0        3.452691    1.664303   -0.541710
     12          1           0        4.819890    0.775628   -1.222214
     13          1           0        4.645295    0.924198    0.534142
     14          1           0        2.722031   -0.614206   -1.314398
     15          1           0        3.961892   -1.367209   -0.332827
     16          1           0        1.793653   -1.579150    0.775768
     17          1           0        2.888063   -0.607867    1.748506
     18          1           0        0.612999    0.317695    1.765506
     19          1           0        1.745738    1.471484    1.075549
     20          1           0       -0.365714    1.438577   -0.179818
     21          1           0        0.968429    0.951360   -1.208697
     22          1           0        0.207766   -1.340211   -1.337258
     23          1           0       -1.956110   -1.995106   -0.633839
     24          1           0       -2.601191   -0.787795    1.544043
     25          1           0       -2.110819    0.746956    0.805722
     26          1           0       -3.823485    1.869814   -0.038723
     27          1           0       -5.324115    0.983527   -0.709602
 ---------------------------------------------------------------------

 SCF Done:  E(UB3LYP) =  -408.043239868     A.U. after   33 cycles
 SCF Done:  E(UB3LYP) =  -408.043239868     a.u. after    1 cycles

 The electronic state is 2-A.
 Alpha  occ. eigenvalues --  -14.19925 -10.09363 -10.08964 -10.06401 -10.06372
 Alpha  occ. eigenvalues --  -10.06295 -10.05922 -10.05774 -10.05554 -10.05016
 Alpha  occ. eigenvalues --   -0.81327  -0.71138  -0.68103  -0.63931  -0.59696
 Alpha  occ. eigenvalues --   -0.56439  -0.51677  -0.47905  -0.45545  -0.41923
 Alpha  occ. eigenvalues --   -0.39205  -0.36913  -0.35820  -0.35386  -0.33321
 Alpha  occ. eigenvalues --   -0.31571  -0.31190  -0.29598  -0.28804  -0.27334
 Alpha  occ. eigenvalues --   -0.25731  -0.24718  -0.23845  -0.21995  -0.21323
 Alpha  occ. eigenvalues --   -0.21011  -0.19731  -0.15233  -0.14640   0.04818
 Alpha virt. eigenvalues --    0.06450   0.07812   0.08019   0.08251   0.08944
 Alpha virt. eigenvalues --    0.09598   0.10032   0.11074   0.11118   0.11513
 Alpha virt. eigenvalues --    0.11833   0.12105   0.12744   0.13579   0.14434

  Beta  occ. eigenvalues --  -14.19771 -10.09263 -10.08959 -10.06385 -10.06361
  Beta  occ. eigenvalues --  -10.06267 -10.05906 -10.05749 -10.05537 -10.04972
  Beta  occ. eigenvalues --   -0.81064  -0.71093  -0.68045  -0.63865  -0.59614
  Beta  occ. eigenvalues --   -0.56365  -0.51591  -0.47630  -0.45452  -0.41852
  Beta  occ. eigenvalues --   -0.39144  -0.36811  -0.35750  -0.35316  -0.33223
  Beta  occ. eigenvalues --   -0.31458  -0.31115  -0.29519  -0.28745  -0.27271
  Beta  occ. eigenvalues --   -0.25679  -0.24682  -0.23767  -0.21953  -0.21281
  Beta  occ. eigenvalues --   -0.20868  -0.19203  -0.15032  -0.14492
  Beta virt. eigenvalues --    0.07135   0.07748   0.08088   0.08342   0.09054
  Beta virt. eigenvalues --    0.09320   0.09898   0.10630   0.11338   0.11345
  Beta virt. eigenvalues --    0.11820   0.12252   0.12433   0.12922   0.13874

 Mulliken charges and spin densities:
               1          2
     1  C    1.581908  -2.202670
     2  C   -0.944538   0.764316
     3  C   -0.221240  -0.043752
     4  C    1.026289  -1.339757
     5  C   -0.162245   0.134125
     6  C   -0.610471   0.581783
     7  C    0.125601  -0.230410
     8  C    0.210236  -0.993851
     9  N   -0.105326   0.159895
    10  C   -0.078574  -0.023588
    11  H   -0.251890   0.395306
    12  H   -0.444478   0.580637
    13  H   -0.182394   0.319257
    14  H    0.164051  -0.045296
    15  H   -0.479466   0.628108
    16  H    0.103050   0.046583
    17  H   -0.266055   0.421372
    18  H   -0.102138   0.258993
    19  H   -0.278684   0.426645
    20  H    0.276984  -0.111977
    21  H   -0.075703   0.227085
    22  H   -0.008944   0.166374
    23  H    0.126357   0.028949
    24  H   -0.098671   0.294220
    25  H   -0.197511   0.269809
    26  H   -0.141700   0.191199
    27  H    0.035552   0.096645
 Sum of Mulliken charges =  -1.00000   1.00000

 Dipole moment (field-independent basis, Debye):
    X=             -3.0961    Y=             -1.4062    Z=             -2.1571  Tot=              4.0269
 Quadrupole moment (field-independent basis, Debye-Ang):
   XX=           -163.0044   YY=            -92.1455   ZZ=            -94.0120
   XY=             -3.7473   XZ=              5.4700   YZ=             -1.5366

 Summary of Natural Population Analysis:

                                       Natural Population
                Natural  -----------------------------------------------
    Atom  No    Charge         Core      Valence    Rydberg      Total
 -----------------------------------------------------------------------
      C    1   -0.28737      0.99967     2.28240    0.00530     3.28737
      C    2   -0.19223      0.99964     2.18358    0.00900     3.19223
      C    3   -0.19093      0.99963     2.18263    0.00868     3.19093
      C    4   -0.18525      0.99962     2.17710    0.00853     3.18525
      C    5   -0.21282      0.99961     2.20388    0.00934     3.21282
      C    6   -0.09016      0.99952     2.08141    0.00923     3.09016
      C    7   -0.08737      0.99951     2.07703    0.01084     3.08737
      C    8   -0.12187      0.99958     2.10907    0.01321     3.12187
      N    9   -0.20048      0.99970     2.68795    0.01283     3.70048
      C   10   -0.01239      0.99965     2.00024    0.01250     3.01239
      H   11    0.09606      0.00000     0.40265    0.00129     0.40394
      H   12    0.09905      0.00000     0.39951    0.00145     0.40095
      H   13    0.09691      0.00000     0.40158    0.00150     0.40309
      H   14    0.09041      0.00000     0.40830    0.00129     0.40959
      H   15    0.09555      0.00000     0.40328    0.00118     0.40445
      H   16    0.09693      0.00000     0.40194    0.00113     0.40307
      H   17    0.09660      0.00000     0.40224    0.00116     0.40340
      H   18    0.09801      0.00000     0.40053    0.00146     0.40199
      H   19    0.09709      0.00000     0.40148    0.00143     0.40291
      H   20    0.10133      0.00000     0.39722    0.00145     0.39867
      H   21    0.09914      0.00000     0.39966    0.00120     0.40086
      H   22    0.09244      0.00000     0.40647    0.00109     0.40756
      H   23    0.09481      0.00000     0.40409    0.00109     0.40519
      H   24    0.10398      0.00000     0.39402    0.00200     0.39602
      H   25    0.08316      0.00000     0.41367    0.00317     0.41684
      H   26    0.06442      0.00000     0.43369    0.00189     0.43558
      H   27    0.07499      0.00000     0.42388    0.00113     0.42501
 =======================================================================
   * Total *   -0.00000      9.99612    28.87950    0.12438    39.00000

 Normal termination of Gaussian 16 at Tue Dec  8 14:14:48 2020.
