 Gaussian 16, Revision A.03,

 -----------------------------------------------------------
 # opt freq B3LYP/6-31G(d) empiricaldispersion=gd3bj scf=xqc
 -----------------------------------------------------------

 -------------------------------
 CID_103548538_JID_7163_neutraal
 -------------------------------
 Symbolic Z-matrix:
 Charge =  0 Multiplicity = 1

 SCF Done:  E(RB3LYP) =  -799.498806946     A.U. after   14 cycles
 SCF Done:  E(RB3LYP) =  -799.503605759     A.U. after   13 cycles
 SCF Done:  E(RB3LYP) =  -799.503712302     A.U. after   13 cycles
 SCF Done:  E(RB3LYP) =  -799.505081166     A.U. after   12 cycles
 SCF Done:  E(RB3LYP) =  -799.506057787     A.U. after   12 cycles
 SCF Done:  E(RB3LYP) =  -799.506113239     A.U. after   11 cycles
 SCF Done:  E(RB3LYP) =  -799.506153799     A.U. after   11 cycles
 SCF Done:  E(RB3LYP) =  -799.506190901     A.U. after   11 cycles
 SCF Done:  E(RB3LYP) =  -799.506195628     A.U. after    9 cycles
 SCF Done:  E(RB3LYP) =  -799.506202001     A.U. after    9 cycles
 SCF Done:  E(RB3LYP) =  -799.506686429     A.U. after    7 cycles
 SCF Done:  E(RB3LYP) =  -799.506686694     A.U. after    7 cycles
 SCF Done:  E(RB3LYP) =  -799.506686945     A.U. after    7 cycles
 SCF Done:  E(RB3LYP) =  -799.506687067     A.U. after    6 cycles
 SCF Done:  E(RB3LYP) =  -799.506687089     A.U. after    6 cycles
 Optimization completed.
    -- Stationary point found.
 Normal termination of Gaussian 16 at Sun Dec 13 20:26:38 2020.

 --------------------------------------------------------------------
 #N Geom=AllCheck Guess=TCheck SCRF=Check GenChk RB3LYP/6-31G(d) Freq
 --------------------------------------------------------------------

 Structure from the checkpoint file:  "JID_7163.chk"
 -------------------------------
 CID_103548538_JID_7163_neutraal
 -------------------------------
 Charge =  0 Multiplicity = 1

 SCF Done:  E(RB3LYP) =  -799.506687089     A.U. after    1 cycles

  Exact polarizability: 176.029  -0.824 158.906  -4.145   2.473 104.791
 Approx polarizability: 234.948  -3.831 242.056 -12.285  14.020 161.426

                      1                      2                      3
                      A                      A                      A
 Frequencies --     40.4479                48.1564                59.7396
 Red. masses --      4.0632                 3.6327                 4.5671
 Frc consts  --      0.0039                 0.0050                 0.0096
 IR Inten    --      0.0821                 0.3553                 0.6164

                      4                      5                      6
                      A                      A                      A
 Frequencies --     73.4679                81.2797               115.4159
 Red. masses --      1.5295                 2.1052                 1.7085
 Frc consts  --      0.0049                 0.0082                 0.0134
 IR Inten    --      0.6120                 2.3216                 0.9419

                      7                      8                      9
                      A                      A                      A
 Frequencies --    118.6705               139.2053               162.7651
 Red. masses --      1.7715                 3.5190                 4.0014
 Frc consts  --      0.0147                 0.0402                 0.0625
 IR Inten    --      0.5415                 5.2304                 0.7057

                     10                     11                     12
                      A                      A                      A
 Frequencies --    199.5545               212.6401               247.8427
 Red. masses --      3.5646                 4.6751                 2.9484
 Frc consts  --      0.0836                 0.1245                 0.1067
 IR Inten    --      6.3323                 0.3465                 2.7508

                     13                     14                     15
                      A                      A                      A
 Frequencies --    269.8112               291.0189               308.9075
 Red. masses --      2.7622                 2.8963                 4.1016
 Frc consts  --      0.1185                 0.1445                 0.2306
 IR Inten    --      7.4927                 6.4865                 3.1068

                     16                     17                     18
                      A                      A                      A
 Frequencies --    358.8804               370.3264               407.6416
 Red. masses --      2.5083                 2.6147                 4.7420
 Frc consts  --      0.1903                 0.2113                 0.4643
 IR Inten    --      0.2356                 2.5081                 2.3938

                     19                     20                     21
                      A                      A                      A
 Frequencies --    431.3444               453.7132               477.1358
 Red. masses --      2.8932                 4.3882                 3.0821
 Frc consts  --      0.3172                 0.5322                 0.4134
 IR Inten    --      5.1677                 1.3345                 4.2674

                     22                     23                     24
                      A                      A                      A
 Frequencies --    550.3418               578.2595               608.0323
 Red. masses --      2.3860                 3.0016                 2.3514
 Frc consts  --      0.4258                 0.5914                 0.5122
 IR Inten    --      4.2076                18.4908                38.9356

                     25                     26                     27
                      A                      A                      A
 Frequencies --    629.8649               646.8745               675.7413
 Red. masses --      3.3617                 3.8713                 5.0459
 Frc consts  --      0.7858                 0.9544                 1.3575
 IR Inten    --      5.4939                 6.2756                 6.1861

                     28                     29                     30
                      A                      A                      A
 Frequencies --    692.5030               704.2802               777.0568
 Red. masses --      4.5245                 1.9857                 5.7288
 Frc consts  --      1.2784                 0.5803                 2.0381
 IR Inten    --     14.6243                38.6228                32.8967

                     31                     32                     33
                      A                      A                      A
 Frequencies --    799.5244               827.6387               857.2472
 Red. masses --      4.6035                 2.3518                 1.9362
 Frc consts  --      1.7338                 0.9491                 0.8383
 IR Inten    --     13.4525                53.4556                50.2758

                     34                     35                     36
                      A                      A                      A
 Frequencies --    887.3461               906.7061               914.3963
 Red. masses --      2.4303                 1.4435                 1.4703
 Frc consts  --      1.1275                 0.6992                 0.7243
 IR Inten    --     18.6145                19.8661                89.7757

                     37                     38                     39
                      A                      A                      A
 Frequencies --    965.5029               982.2856              1010.7446
 Red. masses --      1.8399                 1.9867                 2.4637
 Frc consts  --      1.0106                 1.1294                 1.4829
 IR Inten    --     14.0525                14.6344                26.8861

                     40                     41                     42
                      A                      A                      A
 Frequencies --   1011.7495              1044.2147              1052.1043
 Red. masses --      1.7430                 3.1433                 1.9204
 Frc consts  --      1.0512                 2.0194                 1.2525
 IR Inten    --      0.7849                36.7352                 3.5135

                     43                     44                     45
                      A                      A                      A
 Frequencies --   1078.7616              1080.5696              1098.4611
 Red. masses --      1.4794                 2.5013                 2.1546
 Frc consts  --      1.0143                 1.7208                 1.5317
 IR Inten    --      2.1453                14.1509                18.5757

                     46                     47                     48
                      A                      A                      A
 Frequencies --   1132.8227              1151.7687              1158.9626
 Red. masses --      3.1304                 5.1784                 1.3092
 Frc consts  --      2.3669                 4.0474                 1.0361
 IR Inten    --     75.0883                54.2560                 0.3866

                     49                     50                     51
                      A                      A                      A
 Frequencies --   1161.3299              1174.0902              1199.2175
 Red. masses --      2.9753                 3.0929                 2.4298
 Frc consts  --      2.3643                 2.5120                 2.0588
 IR Inten    --     14.4857                27.9790                 2.1238

                     52                     53                     54
                      A                      A                      A
 Frequencies --   1225.2029              1242.3710              1292.9925
 Red. masses --      1.4594                 1.1882                 1.2994
 Frc consts  --      1.2907                 1.0806                 1.2799
 IR Inten    --     19.5250                29.2576                55.5592

                     55                     56                     57
                      A                      A                      A
 Frequencies --   1301.3752              1335.5113              1338.3154
 Red. masses --      1.4721                 2.4247                 1.5920
 Frc consts  --      1.4689                 2.5480                 1.6800
 IR Inten    --     47.2971                76.0444                 6.7909

                     58                     59                     60
                      A                      A                      A
 Frequencies --   1350.9214              1370.4902              1376.4717
 Red. masses --      1.2878                 2.2564                 1.3509
 Frc consts  --      1.3847                 2.4970                 1.5081
 IR Inten    --      1.2887               116.9992                 3.4127

                     61                     62                     63
                      A                      A                      A
 Frequencies --   1403.7257              1405.8246              1408.5442
 Red. masses --      1.4790                 2.5243                 1.6913
 Frc consts  --      1.7170                 2.9394                 1.9770
 IR Inten    --      6.0263                20.8222                10.0375

                     64                     65                     66
                      A                      A                      A
 Frequencies --   1420.4516              1435.4246              1442.5962
 Red. masses --      1.4022                 1.2802                 1.3915
 Frc consts  --      1.6669                 1.5542                 1.7062
 IR Inten    --      1.5756                18.0939                 2.8858

                     67                     68                     69
                      A                      A                      A
 Frequencies --   1463.6051              1488.3921              1492.5547
 Red. masses --      1.7991                 2.2273                 1.6821
 Frc consts  --      2.2706                 2.9071                 2.2078
 IR Inten    --     11.0307                67.0159                 2.7612

                     70                     71                     72
                      A                      A                      A
 Frequencies --   1497.4568              1502.9172              1507.4254
 Red. masses --      1.5017                 1.5773                 1.1639
 Frc consts  --      1.9840                 2.0991                 1.5583
 IR Inten    --     74.5333                84.3183                28.2059

                     73                     74                     75
                      A                      A                      A
 Frequencies --   1508.3133              1514.4569              1518.0988
 Red. masses --      1.0877                 1.0441                 1.1110
 Frc consts  --      1.4580                 1.4109                 1.5086
 IR Inten    --     11.7658                 7.3873                 2.6335

                     76                     77                     78
                      A                      A                      A
 Frequencies --   1521.0330              1524.0046              1526.8071
 Red. masses --      1.1895                 1.1077                 1.1534
 Frc consts  --      1.6214                 1.5158                 1.5842
 IR Inten    --     27.5976                 2.8336                17.7251

                     79                     80                     81
                      A                      A                      A
 Frequencies --   1531.3748              1587.0035              1751.8893
 Red. masses --      1.2535                 4.6408                 7.3219
 Frc consts  --      1.7320                 6.8864                13.2400
 IR Inten    --     12.6740                25.6887               320.4477

                     82                     83                     84
                      A                      A                      A
 Frequencies --   2964.1417              2974.5637              3037.7685
 Red. masses --      1.0702                 1.0714                 1.0760
 Frc consts  --      5.5401                 5.5853                 5.8500
 IR Inten    --     28.3343                79.3197                17.3588

                     85                     86                     87
                      A                      A                      A
 Frequencies --   3045.3384              3050.5089              3053.0483
 Red. masses --      1.0799                 1.0380                 1.0617
 Frc consts  --      5.9009                 5.6908                 5.8305
 IR Inten    --     44.0191                27.9115                46.1614

                     88                     89                     90
                      A                      A                      A
 Frequencies --   3092.1669              3093.5921              3100.7867
 Red. masses --      1.0313                 1.0932                 1.1031
 Frc consts  --      5.8098                 6.1641                 6.2491
 IR Inten    --     28.0194                53.3852                26.3043

                     91                     92                     93
                      A                      A                      A
 Frequencies --   3101.2289              3107.5165              3144.7607
 Red. masses --      1.1014                 1.0955                 1.1002
 Frc consts  --      6.2411                 6.2331                 6.4107
 IR Inten    --     28.2766                51.3857                10.9329

                     94                     95                     96
                      A                      A                      A
 Frequencies --   3163.9949              3164.0753              3191.4703
 Red. masses --      1.1056                 1.0917                 1.1066
 Frc consts  --      6.5212                 6.4397                 6.6408
 IR Inten    --      9.9336                 2.8927                 6.1070

                     97                     98                     99
                      A                      A                      A
 Frequencies --   3248.3289              3457.3242              3578.9820
 Red. masses --      1.0996                 1.0729                 1.0750
 Frc consts  --      6.8359                 7.5558                 8.1131
 IR Inten    --     39.5339                 0.3903                23.2452

 - Thermochemistry -
 -------------------
 Temperature   298.150 Kelvin.  Pressure   1.00000 Atm.
 Atom     1 has atomic number  6 and mass  12.00000

 Molecular mass:   238.14298 amu.
 Principal axes and moments of inertia in atomic units:
                           1         2         3
     Eigenvalues --  2166.495537088.303218602.65274
           X            0.99999   0.00104   0.00379
           Y           -0.00100   0.99993  -0.01153
           Z           -0.00381   0.01152   0.99993
 This molecule is an asymmetric top.
 Rotational symmetry number  1.
 Warning -- assumption of classical behavior for rotation
           may cause significant error
 Rotational temperatures (Kelvin)      0.03998     0.01222     0.01007
 Rotational constants (GHZ):           0.83302     0.25461     0.20979
 Zero-point vibrational energy     790022.9 (Joules/Mol)
                                  188.82000 (Kcal/Mol)
 Warning -- explicit consideration of  24 degrees of freedom as
           vibrations may cause significant error
 Vibrational temperatures:     58.20    69.29    85.95   105.70   116.94
          (Kelvin)            166.06   170.74   200.29   234.18   287.11
                              305.94   356.59   388.20   418.71   444.45
                              516.35   532.82   586.51   620.61   652.79
                              686.49   791.82   831.99   874.82   906.24
                              930.71   972.24   996.36  1013.30  1118.01
                             1150.34  1190.79  1233.39  1276.69  1304.55
                             1315.61  1389.14  1413.29  1454.24  1455.68
                             1502.39  1513.74  1552.10  1554.70  1580.44
                             1629.88  1657.14  1667.49  1670.89  1689.25
                             1725.41  1762.79  1787.49  1860.33  1872.39
                             1921.50  1925.54  1943.67  1971.83  1980.44
                             2019.65  2022.67  2026.58  2043.71  2065.26
                             2075.57  2105.80  2141.46  2147.45  2154.51
                             2162.36  2168.85  2170.13  2178.97  2184.21
                             2188.43  2192.70  2196.73  2203.31  2283.34
                             2520.58  4264.74  4279.73  4370.67  4381.56
                             4389.00  4392.66  4448.94  4450.99  4461.34
                             4461.98  4471.02  4524.61  4552.28  4552.40
                             4591.81  4673.62  4974.32  5149.36

 Zero-point correction=                           0.300904 (Hartree/Particle)
 Thermal correction to Energy=                    0.317379
 Thermal correction to Enthalpy=                  0.318323
 Thermal correction to Gibbs Free Energy=         0.255866
 Sum of electronic and zero-point Energies=           -799.205783
 Sum of electronic and thermal Energies=              -799.189308
 Sum of electronic and thermal Enthalpies=            -799.188364
 Sum of electronic and thermal Free Energies=         -799.250821

                     E (Thermal)             CV                S
                      KCal/Mol        Cal/Mol-Kelvin    Cal/Mol-Kelvin
 Total                  199.158             61.651            131.451
 Electronic               0.000              0.000              0.000
 Translational            0.889              2.981             42.304
 Rotational               0.889              2.981             33.246
 Vibrational            197.381             55.689             55.900
 Vibration     1          0.594              1.981              5.237
 Vibration     2          0.595              1.978              4.892
 Vibration     3          0.597              1.973              4.466
 Vibration     4          0.599              1.967              4.058
 Vibration     5          0.600              1.962              3.860
 Vibration     6          0.608              1.937              3.176
 Vibration     7          0.609              1.934              3.122
 Vibration     8          0.615              1.914              2.815
 Vibration     9          0.623              1.888              2.517
 Vibration    10          0.638              1.841              2.137
 Vibration    11          0.644              1.822              2.021
 Vibration    12          0.661              1.766              1.746
 Vibration    13          0.674              1.729              1.597
 Vibration    14          0.687              1.690              1.468
 Vibration    15          0.698              1.657              1.368
 Vibration    16          0.734              1.557              1.127
 Vibration    17          0.742              1.533              1.078
 Vibration    18          0.772              1.454              0.935
 Vibration    19          0.792              1.402              0.854
 Vibration    20          0.812              1.353              0.785
 Vibration    21          0.834              1.301              0.718
 Vibration    22          0.906              1.139              0.543
 Vibration    23          0.935              1.078              0.489
 Vibration    24          0.967              1.015              0.436

 Optimization completed.
    -- Stationary point found.
 Normal termination of Gaussian 16 at Sun Dec 13 20:38:57 2020.

 ----------------------------------------------------------------------
 # B3LYP/6-311++G(d,p) empiricaldispersion=gd3bj scf=xqc pop=npa geom=c
 heck
 ----------------------------------------------------------------------

 ---------------------------------------
 CID_103548538_JID_7163_Energie_neutraal
 ---------------------------------------
 Structure from the checkpoint file:  "JID_7163.chk"
 Charge =  0 Multiplicity = 1

 SCF Done:  E(RB3LYP) =  -799.733449426     A.U. after   15 cycles
 Normal termination of Gaussian 16 at Sun Dec 13 20:45:16 2020.

 ----------------------------------------------------------------------
 # B3LYP/6-311++G(d,p) empiricaldispersion=gd3bj scf=xqc pop=npa geom=c
 heck
 ----------------------------------------------------------------------

 -------------------------------------
 CID_103548538_JID_7163_Energie_kation
 -------------------------------------
 Structure from the checkpoint file:  "JID_7163.chk"
 Charge =  1 Multiplicity = 2

 SCF Done:  E(UB3LYP) =  -799.437736343     A.U. after   29 cycles
 Normal termination of Gaussian 16 at Sun Dec 13 21:03:02 2020.
 Gaussian 16:  ES64L-G16RevA.03 25-Dec-2016

 ----------------------------------------------------------------------
 # B3LYP/6-311++G(d,p) empiricaldispersion=gd3bj scf=xqc pop=npa geom=c
 heck
 ----------------------------------------------------------------------

 ------------------------------------
 CID_103548538_JID_7163_Energie_anion
 ------------------------------------
 Structure from the checkpoint file:  "JID_7163.chk"
 Charge = -1 Multiplicity = 2

                         Standard orientation:
 ---------------------------------------------------------------------
 Center     Atomic      Atomic             Coordinates (Angstroms)
 Number     Number       Type             X           Y           Z
 ---------------------------------------------------------------------
      1          6           0        2.942047    3.139138    0.229636
      2          6           0        2.670213    1.671990    0.103980
      3          7           0        3.683238    0.797922    0.027389
      4          7           0        3.116169   -0.416240   -0.087473
      5          6           0        1.747641   -0.346208   -0.071355
      6          6           0        1.429900    1.004995    0.049892
      7          6           0        0.928680   -1.561374   -0.265877
      8          8           0        1.368538   -2.545203   -0.859880
      9          7           0       -0.372919   -1.559255    0.193239
     10          6           0       -0.941157   -0.785365    1.295918
     11          6           0       -2.191607    0.002394    0.889840
     12          6           0       -3.379354   -0.907855    0.546801
     13          8           0       -4.509653   -0.148918    0.142851
     14          6           0       -4.218868    0.652143   -0.997038
     15          6           0       -3.066477    1.612147   -0.702628
     16          7           0       -1.870402    0.917248   -0.211574
     17          6           0        3.976475   -1.581613   -0.227261
     18          1           0        4.020605    3.316192    0.242016
     19          1           0        2.509767    3.698882   -0.608184
     20          1           0        2.513731    3.549465    1.151736
     21          1           0        0.436930    1.434514    0.059947
     22          1           0       -0.805089   -2.456618    0.004345
     23          1           0       -1.194098   -1.464459    2.121530
     24          1           0       -0.179205   -0.096303    1.658877
     25          1           0       -2.489344    0.619055    1.749134
     26          1           0       -3.092129   -1.607921   -0.258597
     27          1           0       -3.697209   -1.492311    1.417071
     28          1           0       -5.141279    1.189733   -1.237894
     29          1           0       -3.959040    0.004972   -1.853842
     30          1           0       -3.383408    2.325167    0.068608
     31          1           0       -2.800052    2.185259   -1.598032
     32          1           0       -1.468225    0.360122   -0.967563
     33          1           0        3.925881   -1.976849   -1.243497
     34          1           0        4.987290   -1.247475    0.005788
     35          1           0        3.666241   -2.368537    0.462266
 ---------------------------------------------------------------------

 SCF Done:  E(UB3LYP) =  -799.726130387     A.U. after   33 cycles
 SCF Done:  E(UB3LYP) =  -799.726130387     a.u. after    1 cycles

 The electronic state is 2-A.
 Alpha  occ. eigenvalues --  -19.03198 -18.96349 -14.26836 -14.22098 -14.20979
 Alpha  occ. eigenvalues --  -14.20348 -10.14961 -10.12180 -10.11721 -10.10438
 Alpha  occ. eigenvalues --  -10.10290 -10.10045 -10.09789 -10.08966 -10.08245
 Alpha  occ. eigenvalues --  -10.07071 -10.04306  -0.94803  -0.93753  -0.91546
 Alpha  occ. eigenvalues --   -0.82439  -0.79740  -0.73270  -0.68756  -0.67537
 Alpha  occ. eigenvalues --   -0.63461  -0.61575  -0.57916  -0.56551  -0.53558
 Alpha  occ. eigenvalues --   -0.52252  -0.49239  -0.47976  -0.42468  -0.40909
 Alpha  occ. eigenvalues --   -0.40302  -0.38937  -0.38255  -0.37447  -0.36889
 Alpha  occ. eigenvalues --   -0.36641  -0.35652  -0.34622  -0.32672  -0.32206
 Alpha  occ. eigenvalues --   -0.31007  -0.30638  -0.30466  -0.29258  -0.28627
 Alpha  occ. eigenvalues --   -0.28027  -0.27899  -0.27212  -0.26867  -0.25662
 Alpha  occ. eigenvalues --   -0.25510  -0.23122  -0.18802  -0.18130  -0.15559
 Alpha  occ. eigenvalues --   -0.14497  -0.13701  -0.13200  -0.12308   0.04443
 Alpha virt. eigenvalues --    0.06302   0.06910   0.07475   0.08006   0.08632
 Alpha virt. eigenvalues --    0.09179   0.09887   0.10080   0.10466   0.11283
 Alpha virt. eigenvalues --    0.11652   0.12309   0.12502   0.12786   0.13137

  Beta  occ. eigenvalues --  -19.03190 -18.96130 -14.26663 -14.22081 -14.20852
  Beta  occ. eigenvalues --  -14.20336 -10.14769 -10.12162 -10.11692 -10.10414
  Beta  occ. eigenvalues --  -10.10284 -10.10029 -10.09796 -10.08933 -10.08290
  Beta  occ. eigenvalues --  -10.07066 -10.04218  -0.94782  -0.93491  -0.91189
  Beta  occ. eigenvalues --   -0.82369  -0.79635  -0.73116  -0.68692  -0.67341
  Beta  occ. eigenvalues --   -0.63444  -0.61509  -0.57863  -0.56450  -0.53378
  Beta  occ. eigenvalues --   -0.51982  -0.49168  -0.47884  -0.42382  -0.40836
  Beta  occ. eigenvalues --   -0.40214  -0.38861  -0.38186  -0.37362  -0.36814
  Beta  occ. eigenvalues --   -0.36294  -0.35531  -0.34539  -0.32590  -0.32197
  Beta  occ. eigenvalues --   -0.30861  -0.30459  -0.30343  -0.29062  -0.28407
  Beta  occ. eigenvalues --   -0.27962  -0.27824  -0.27013  -0.26748  -0.25474
  Beta  occ. eigenvalues --   -0.25199  -0.23093  -0.18734  -0.17973  -0.15152
  Beta  occ. eigenvalues --   -0.14199  -0.12999  -0.12673  -0.12190
  Beta virt. eigenvalues --    0.06705   0.07461   0.07743   0.08098   0.08618
  Beta virt. eigenvalues --    0.08814   0.09495   0.10104   0.10460   0.10725
  Beta virt. eigenvalues --    0.11289   0.11745   0.12316   0.12459   0.12767

 Mulliken charges and spin densities:
               1          2
     1  C   -0.531790  -0.035123
     2  C   -0.642047  -0.026805
     3  N   -0.063959   0.077173
     4  N    0.048268   0.053668
     5  C    0.296105  -0.154809
     6  C    0.275851   0.052964
     7  C   -0.039784  -0.060559
     8  O   -0.387067   0.078251
     9  N   -0.159894  -0.066192
    10  C    0.793953  -1.055165
    11  C   -1.315142   1.262977
    12  C    0.719302  -1.366311
    13  O   -0.180745   0.058504
    14  C    0.552565  -0.881863
    15  C   -0.148182  -0.002982
    16  N    0.080838  -0.112885
    17  C   -0.285844  -0.038897
    18  H    0.135246   0.005152
    19  H    0.107654   0.035607
    20  H    0.117983   0.023322
    21  H    0.072470   0.133233
    22  H    0.150140   0.151657
    23  H   -0.862944   1.072393
    24  H    0.253062  -0.055986
    25  H   -0.144637   0.342266
    26  H    0.086710   0.066799
    27  H   -0.188161   0.367379
    28  H   -0.177203   0.364283
    29  H   -0.072725   0.178220
    30  H    0.039647   0.113378
    31  H   -0.316269   0.468161
    32  H    0.363063  -0.110407
    33  H    0.181329   0.003618
    34  H    0.126316   0.000461
    35  H    0.115887   0.058516
 Sum of Mulliken charges =  -1.00000   1.00000

 Dipole moment (field-independent basis, Debye):
    X=              2.5008    Y=              2.0333    Z=             -0.7464  Tot=              3.3084
 Quadrupole moment (field-independent basis, Debye-Ang):
   XX=           -175.2474   YY=           -138.2019   ZZ=           -134.0323
   XY=             -0.6312   XZ=              4.6437   YZ=              5.2981

 Summary of Natural Population Analysis:

                                       Natural Population
                Natural  -----------------------------------------------
    Atom  No    Charge         Core      Valence    Rydberg      Total
 -----------------------------------------------------------------------
      C    1   -0.29528      0.99963     2.29100    0.00465     3.29528
      C    2    0.05215      0.99961     1.93488    0.01337     2.94785
      N    3   -0.14421      0.99970     2.63287    0.01165     3.64421
      N    4   -0.07561      0.99963     2.56397    0.01201     3.57561
      C    5    0.04081      0.99949     1.94857    0.01114     2.95919
      C    6   -0.14244      0.99947     2.13562    0.00735     3.14244
      C    7    0.35022      0.99962     1.62956    0.02060     2.64978
      O    8   -0.30972      0.99988     3.30434    0.00549     4.30972
      N    9   -0.32767      0.99968     2.81776    0.01023     3.82767
      C   10   -0.09298      0.99958     2.08130    0.01210     3.09298
      C   11   -0.02788      0.99958     2.01506    0.01324     3.02788
      C   12   -0.01818      0.99954     2.00540    0.01324     3.01818
      O   13   -0.30007      0.99989     3.29009    0.01009     4.30007
      C   14   -0.01856      0.99958     2.00699    0.01198     3.01856
      C   15   -0.10078      0.99963     2.09001    0.01114     3.10078
      N   16   -0.34311      0.99975     2.83085    0.01250     3.84311
      C   17   -0.17308      0.99965     2.16691    0.00652     3.17308
      H   18    0.10453      0.00000     0.39440    0.00106     0.39547
      H   19    0.09997      0.00000     0.39880    0.00123     0.40003
      H   20    0.09904      0.00000     0.39974    0.00122     0.40096
      H   21    0.12007      0.00000     0.37829    0.00165     0.37993
      H   22    0.19056      0.00000     0.30668    0.00276     0.30944
      H   23    0.09795      0.00000     0.39926    0.00279     0.40205
      H   24    0.11126      0.00000     0.38730    0.00145     0.38874
      H   25    0.09551      0.00000     0.40306    0.00143     0.40449
      H   26    0.07643      0.00000     0.42175    0.00182     0.42357
      H   27    0.09507      0.00000     0.40309    0.00184     0.40493
      H   28    0.09125      0.00000     0.40738    0.00137     0.40875
      H   29    0.07567      0.00000     0.42278    0.00154     0.42433
      H   30    0.09115      0.00000     0.40765    0.00120     0.40885
      H   31    0.09708      0.00000     0.40172    0.00120     0.40292
      H   32    0.17678      0.00000     0.32031    0.00290     0.32322
      H   33    0.10264      0.00000     0.39625    0.00111     0.39736
      H   34    0.09939      0.00000     0.39959    0.00102     0.40061
      H   35    0.10203      0.00000     0.39671    0.00127     0.39797
 =======================================================================
   * Total *   -0.00000     16.99393    46.78994    0.21613    64.00000

 Normal termination of Gaussian 16 at Sun Dec 13 21:23:18 2020.
