 Gaussian 16, Revision A.03,

 -----------------------------------------------------------
 # opt freq B3LYP/6-31G(d) empiricaldispersion=gd3bj scf=xqc
 -----------------------------------------------------------

 ------------------------------
 CID_62278893_JID_7511_neutraal
 ------------------------------
 Symbolic Z-matrix:
 Charge =  0 Multiplicity = 1

 SCF Done:  E(RB3LYP) =  -712.851975320     A.U. after   14 cycles
 SCF Done:  E(RB3LYP) =  -712.857683473     A.U. after   11 cycles
 SCF Done:  E(RB3LYP) =  -712.858894635     A.U. after   11 cycles
 SCF Done:  E(RB3LYP) =  -712.860287666     A.U. after   12 cycles
 SCF Done:  E(RB3LYP) =  -712.860450034     A.U. after   12 cycles
 SCF Done:  E(RB3LYP) =  -712.862102034     A.U. after   12 cycles
 SCF Done:  E(RB3LYP) =  -712.865360270     A.U. after   14 cycles
 SCF Done:  E(RB3LYP) =  -712.866714315     A.U. after   12 cycles
 SCF Done:  E(RB3LYP) =  -712.867765695     A.U. after   12 cycles
 SCF Done:  E(RB3LYP) =  -712.869762024     A.U. after   14 cycles
 SCF Done:  E(RB3LYP) =  -712.879206019     A.U. after    8 cycles
 SCF Done:  E(RB3LYP) =  -712.879208874     A.U. after    9 cycles
 SCF Done:  E(RB3LYP) =  -712.879209339     A.U. after    9 cycles
 SCF Done:  E(RB3LYP) =  -712.879209395     A.U. after    7 cycles
 SCF Done:  E(RB3LYP) =  -712.879209394     A.U. after    6 cycles
 Optimization completed.
    -- Stationary point found.
 Normal termination of Gaussian 16 at Mon Dec 14 17:39:00 2020.

 --------------------------------------------------------------------
 #N Geom=AllCheck Guess=TCheck SCRF=Check GenChk RB3LYP/6-31G(d) Freq
 --------------------------------------------------------------------

 Structure from the checkpoint file:  "JID_7511.chk"
 ------------------------------
 CID_62278893_JID_7511_neutraal
 ------------------------------
 Charge =  0 Multiplicity = 1

 SCF Done:  E(RB3LYP) =  -712.879209394     A.U. after    1 cycles

  Exact polarizability: 200.778   2.952 181.037   8.565  20.625 126.233
 Approx polarizability: 281.111  10.669 256.605  16.184  42.286 192.553

                      1                      2                      3
                      A                      A                      A
 Frequencies --     24.5772                31.6394                42.3242
 Red. masses --      3.0730                 3.0959                 3.5424
 Frc consts  --      0.0011                 0.0018                 0.0037
 IR Inten    --      0.4470                 0.5307                 1.1782

                      4                      5                      6
                      A                      A                      A
 Frequencies --     55.3747                58.4884                82.0861
 Red. masses --      2.6146                 3.7953                 3.0194
 Frc consts  --      0.0047                 0.0076                 0.0120
 IR Inten    --      0.3695                 0.3347                 0.3077

                      7                      8                      9
                      A                      A                      A
 Frequencies --    113.3774               125.9799               141.4274
 Red. masses --      2.3651                 2.6882                 2.0450
 Frc consts  --      0.0179                 0.0251                 0.0241
 IR Inten    --      0.4616                 2.8265                 1.9471

                     10                     11                     12
                      A                      A                      A
 Frequencies --    160.3283               164.3584               191.5960
 Red. masses --      1.8794                 2.1608                 1.6862
 Frc consts  --      0.0285                 0.0344                 0.0365
 IR Inten    --      1.0775                 1.6266                 1.0338

                     13                     14                     15
                      A                      A                      A
 Frequencies --    210.6972               230.2690               254.1442
 Red. masses --      2.2442                 1.9451                 1.7075
 Frc consts  --      0.0587                 0.0608                 0.0650
 IR Inten    --      1.2927                 0.9482                 0.1935

                     16                     17                     18
                      A                      A                      A
 Frequencies --    276.5016               295.0638               309.8794
 Red. masses --      1.9512                 1.8183                 2.2800
 Frc consts  --      0.0879                 0.0933                 0.1290
 IR Inten    --      1.9787                 3.6644                 5.4414

                     19                     20                     21
                      A                      A                      A
 Frequencies --    333.2339               369.7788               400.3842
 Red. masses --      2.2149                 2.8487                 2.9182
 Frc consts  --      0.1449                 0.2295                 0.2756
 IR Inten    --      0.2381                 0.5692                 1.3399

                     22                     23                     24
                      A                      A                      A
 Frequencies --    415.0169               446.4918               458.7630
 Red. masses --      2.0883                 2.5915                 3.7682
 Frc consts  --      0.2119                 0.3044                 0.4673
 IR Inten    --      3.9986                 4.3926                 0.6911

                     25                     26                     27
                      A                      A                      A
 Frequencies --    497.3807               524.4660               598.6173
 Red. masses --      2.6621                 2.9842                 3.6853
 Frc consts  --      0.3880                 0.4836                 0.7781
 IR Inten    --      3.8104                 3.0442                 3.4544

                     28                     29                     30
                      A                      A                      A
 Frequencies --    601.4609               659.1255               714.1606
 Red. masses --      3.5737                 4.9845                 2.0797
 Frc consts  --      0.7617                 1.2759                 0.6249
 IR Inten    --      2.7428                 1.3210                11.1750

                     31                     32                     33
                      A                      A                      A
 Frequencies --    743.4857               748.3944               776.7985
 Red. masses --      1.8521                 1.7205                 1.2043
 Frc consts  --      0.6032                 0.5678                 0.4282
 IR Inten    --      2.0495                 9.4897                50.5415

                     34                     35                     36
                      A                      A                      A
 Frequencies --    781.0529               789.3212               815.9143
 Red. masses --      1.8661                 2.3846                 1.4992
 Frc consts  --      0.6707                 0.8753                 0.5880
 IR Inten    --      0.8269                46.8642                73.5289

                     37                     38                     39
                      A                      A                      A
 Frequencies --    845.3034               851.4281               894.6104
 Red. masses --      1.7530                 1.4174                 2.0939
 Frc consts  --      0.7380                 0.6054                 0.9873
 IR Inten    --      3.0431                 0.6503                 2.6260

                     40                     41                     42
                      A                      A                      A
 Frequencies --    899.0978               915.2653               961.3801
 Red. masses --      2.1350                 1.8326                 1.9968
 Frc consts  --      1.0169                 0.9045                 1.0873
 IR Inten    --      6.7989                14.0486                 1.2116

                     43                     44                     45
                      A                      A                      A
 Frequencies --    982.5433              1000.0305              1009.1075
 Red. masses --      1.2777                 3.3002                 2.1691
 Frc consts  --      0.7267                 1.9445                 1.3014
 IR Inten    --      0.0744                 5.7939                22.5231

                     46                     47                     48
                      A                      A                      A
 Frequencies --   1016.8887              1023.9619              1026.3779
 Red. masses --      1.9459                 1.7473                 2.1564
 Frc consts  --      1.1856                 1.0794                 1.3384
 IR Inten    --      2.9907                 4.3869                 4.0847

                     49                     50                     51
                      A                      A                      A
 Frequencies --   1055.6238              1096.3420              1098.3533
 Red. masses --      1.8157                 2.0773                 2.0903
 Frc consts  --      1.1921                 1.4711                 1.4857
 IR Inten    --     18.9990                10.2644                10.1540

                     52                     53                     54
                      A                      A                      A
 Frequencies --   1125.2979              1131.8679              1145.7469
 Red. masses --      1.6213                 1.6151                 1.9952
 Frc consts  --      1.2097                 1.2191                 1.5431
 IR Inten    --      0.7559                12.2804                 1.6911

                     55                     56                     57
                      A                      A                      A
 Frequencies --   1157.2313              1173.9735              1185.6157
 Red. masses --      1.3425                 1.7217                 1.8044
 Frc consts  --      1.0592                 1.3980                 1.4944
 IR Inten    --      7.2626                18.5106                 3.3949

                     58                     59                     60
                      A                      A                      A
 Frequencies --   1193.1079              1210.3237              1232.0069
 Red. masses --      2.2272                 1.2677                 1.7730
 Frc consts  --      1.8680                 1.0941                 1.5855
 IR Inten    --     38.1041                 3.9222                53.4767

                     61                     62                     63
                      A                      A                      A
 Frequencies --   1249.6227              1264.5833              1280.1280
 Red. masses --      1.6032                 1.4011                 1.5078
 Frc consts  --      1.4750                 1.3201                 1.4558
 IR Inten    --      0.2728                25.8546                10.2733

                     64                     65                     66
                      A                      A                      A
 Frequencies --   1298.6847              1324.6646              1330.8923
 Red. masses --      2.3509                 1.4038                 1.5999
 Frc consts  --      2.3361                 1.4513                 1.6696
 IR Inten    --     26.0852                36.9833                 5.8934

                     67                     68                     69
                      A                      A                      A
 Frequencies --   1344.7168              1349.4802              1390.1064
 Red. masses --      1.2094                 2.0040                 1.3190
 Frc consts  --      1.2885                 2.1502                 1.5017
 IR Inten    --      0.9730                 3.5019                12.6062

                     70                     71                     72
                      A                      A                      A
 Frequencies --   1395.2953              1399.2925              1412.3694
 Red. masses --      1.4268                 1.3372                 1.4802
 Frc consts  --      1.6367                 1.5427                 1.7396
 IR Inten    --      9.3646                17.9945                 3.9807

                     73                     74                     75
                      A                      A                      A
 Frequencies --   1420.4236              1423.5100              1433.6773
 Red. masses --      1.3463                 1.4051                 1.2494
 Frc consts  --      1.6004                 1.6775                 1.5131
 IR Inten    --     21.1044                 0.4059                15.3211

                     76                     77                     78
                      A                      A                      A
 Frequencies --   1440.0060              1442.7250              1483.2372
 Red. masses --      1.4943                 1.6722                 1.3616
 Frc consts  --      1.8257                 2.0507                 1.7649
 IR Inten    --     15.1581                25.5222               102.3294

                     79                     80                     81
                      A                      A                      A
 Frequencies --   1492.6785              1502.7561              1507.3193
 Red. masses --      3.3754                 1.1384                 1.0737
 Frc consts  --      4.4311                 1.5147                 1.4373
 IR Inten    --      8.7081                24.4741                 2.2464

                     82                     83                     84
                      A                      A                      A
 Frequencies --   1513.1377              1515.3533              1518.2040
 Red. masses --      1.1555                 1.1358                 1.0960
 Frc consts  --      1.5588                 1.5367                 1.4884
 IR Inten    --     46.1602                28.0439                 8.6003

                     85                     86                     87
                      A                      A                      A
 Frequencies --   1524.2560              1526.4703              1527.4396
 Red. masses --      1.0712                 1.0735                 1.0904
 Frc consts  --      1.4663                 1.4737                 1.4988
 IR Inten    --     12.2290                10.7897                24.4588

                     88                     89                     90
                      A                      A                      A
 Frequencies --   1530.9636              1536.7356              1539.4374
 Red. masses --      1.0885                 1.1601                 1.1657
 Frc consts  --      1.5032                 1.6141                 1.6277
 IR Inten    --      2.9684                24.7118                12.1521

                     91                     92                     93
                      A                      A                      A
 Frequencies --   1541.4572              1545.0488              1558.2060
 Red. masses --      1.0940                 1.1011                 1.4372
 Frc consts  --      1.5315                 1.5487                 2.0560
 IR Inten    --      6.3293                12.1624               140.9532

                     94                     95                     96
                      A                      A                      A
 Frequencies --   1632.1847              1657.0144              2927.2099
 Red. masses --      5.9115                 5.8141                 1.0728
 Frc consts  --      9.2787                 9.4056                 5.4158
 IR Inten    --     78.3102               287.5659                63.4085

                     97                     98                     99
                      A                      A                      A
 Frequencies --   3007.9057              3020.8057              3024.4131
 Red. masses --      1.0500                 1.0672                 1.0672
 Frc consts  --      5.5973                 5.7380                 5.7512
 IR Inten    --     60.7436                 6.8591                47.8470

                    100                    101                    102
                      A                      A                      A
 Frequencies --   3035.1586              3035.7492              3040.3665
 Red. masses --      1.0604                 1.0477                 1.0554
 Frc consts  --      5.7552                 5.6888                 5.7478
 IR Inten    --     45.1623                37.2198                74.6738

                    103                    104                    105
                      A                      A                      A
 Frequencies --   3043.1384              3048.2939              3056.2866
 Red. masses --      1.0366                 1.0717                 1.1014
 Frc consts  --      5.6559                 5.8672                 6.0616
 IR Inten    --     25.5087                33.7382                21.2266

                    106                    107                    108
                      A                      A                      A
 Frequencies --   3058.7694              3069.2094              3072.7373
 Red. masses --      1.0857                 1.1038                 1.0991
 Frc consts  --      5.9846                 6.1263                 6.1140
 IR Inten    --     32.5631                19.3368                84.4887

                    109                    110                    111
                      A                      A                      A
 Frequencies --   3076.1372              3092.7883              3107.6036
 Red. masses --      1.0909                 1.0984                 1.1021
 Frc consts  --      6.0820                 6.1902                 6.2711
 IR Inten    --     31.2373                42.1289                53.2707

                    112                    113                    114
                      A                      A                      A
 Frequencies --   3111.9038              3119.3693              3132.6853
 Red. masses --      1.1010                 1.1018                 1.0924
 Frc consts  --      6.2816                 6.3168                 6.3163
 IR Inten    --     33.6052                48.2617                16.1264

                    115                    116                    117
                      A                      A                      A
 Frequencies --   3140.4451              3175.3422              3187.9125
 Red. masses --      1.0982                 1.0887                 1.0882
 Frc consts  --      6.3811                 6.4677                 6.5157
 IR Inten    --     19.4429                 6.1636                15.3178

                    118                    119                    120
                      A                      A                      A
 Frequencies --   3214.2253              3237.8563              3511.7394
 Red. masses --      1.0936                 1.0920                 1.0730
 Frc consts  --      6.6568                 6.7453                 7.7965
 IR Inten    --     16.4226                12.3070                 8.8831

 - Thermochemistry -
 -------------------
 Temperature   298.150 Kelvin.  Pressure   1.00000 Atm.
 Atom     1 has atomic number  6 and mass  12.00000

 Molecular mass:   235.20485 amu.
 Principal axes and moments of inertia in atomic units:
                           1         2         3
     Eigenvalues --  3528.061304927.636867139.99925
           X            0.99997  -0.00135  -0.00697
           Y            0.00134   1.00000  -0.00062
           Z            0.00697   0.00061   0.99998
 This molecule is an asymmetric top.
 Rotational symmetry number  1.
 Warning -- assumption of classical behavior for rotation
           may cause significant error
 Rotational temperatures (Kelvin)      0.02455     0.01758     0.01213
 Rotational constants (GHZ):           0.51154     0.36625     0.25276
 Zero-point vibrational energy     999321.9 (Joules/Mol)
                                  238.84367 (Kcal/Mol)
 Warning -- explicit consideration of  28 degrees of freedom as
           vibrations may cause significant error
 Vibrational temperatures:     35.36    45.52    60.90    79.67    84.15
          (Kelvin)            118.10   163.12   181.26   203.48   230.68
                              236.48   275.66   303.15   331.31   365.66
                              397.82   424.53   445.85   479.45   532.03
                              576.06   597.12   642.40   660.06   715.62
                              754.59   861.28   865.37   948.33  1027.52
                             1069.71  1076.77  1117.64  1123.76  1135.66
                             1173.92  1216.20  1225.02  1287.14  1293.60
                             1316.86  1383.21  1413.66  1438.82  1451.88
                             1463.08  1473.25  1476.73  1518.81  1577.39
                             1580.29  1619.05  1628.51  1648.47  1665.00
                             1689.09  1705.84  1716.62  1741.39  1772.58
                             1797.93  1819.45  1841.82  1868.52  1905.90
                             1914.86  1934.75  1941.60  2000.05  2007.52
                             2013.27  2032.08  2043.67  2048.11  2062.74
                             2071.85  2075.76  2134.05  2147.63  2162.13
                             2168.70  2177.07  2180.26  2184.36  2193.06
                             2196.25  2197.64  2202.72  2211.02  2214.91
                             2217.81  2222.98  2241.91  2348.35  2384.07
                             4211.60  4327.71  4346.27  4351.46  4366.92
                             4367.77  4374.41  4378.40  4385.81  4397.31
                             4400.89  4415.91  4420.98  4425.88  4449.83
                             4471.15  4477.34  4488.08  4507.24  4518.40
                             4568.61  4586.70  4624.55  4658.55  5052.61

 Zero-point correction=                           0.380622 (Hartree/Particle)
 Thermal correction to Energy=                    0.399553
 Thermal correction to Enthalpy=                  0.400498
 Thermal correction to Gibbs Free Energy=         0.331944
 Sum of electronic and zero-point Energies=           -712.498588
 Sum of electronic and thermal Energies=              -712.479656
 Sum of electronic and thermal Enthalpies=            -712.478712
 Sum of electronic and thermal Free Energies=         -712.547266

                     E (Thermal)             CV                S
                      KCal/Mol        Cal/Mol-Kelvin    Cal/Mol-Kelvin
 Total                  250.724             70.234            144.284
 Electronic               0.000              0.000              0.000
 Translational            0.889              2.981             42.267
 Rotational               0.889              2.981             33.184
 Vibrational            248.946             64.272             68.833
 Vibration     1          0.593              1.985              6.225
 Vibration     2          0.594              1.983              5.724
 Vibration     3          0.595              1.980              5.147
 Vibration     4          0.596              1.975              4.616
 Vibration     5          0.596              1.974              4.508
 Vibration     6          0.600              1.961              3.840
 Vibration     7          0.607              1.938              3.210
 Vibration     8          0.611              1.927              3.007
 Vibration     9          0.615              1.912              2.784
 Vibration    10          0.622              1.891              2.546
 Vibration    11          0.623              1.886              2.499
 Vibration    12          0.634              1.851              2.212
 Vibration    13          0.643              1.825              2.038
 Vibration    14          0.652              1.795              1.877
 Vibration    15          0.665              1.756              1.702
 Vibration    16          0.678              1.717              1.555
 Vibration    17          0.689              1.683              1.445
 Vibration    18          0.699              1.655              1.363
 Vibration    19          0.715              1.609              1.244
 Vibration    20          0.742              1.534              1.081
 Vibration    21          0.766              1.469              0.961
 Vibration    22          0.778              1.438              0.909
 Vibration    23          0.806              1.369              0.806
 Vibration    24          0.817              1.342              0.770
 Vibration    25          0.853              1.256              0.665
 Vibration    26          0.879              1.196              0.600
 Vibration    27          0.957              1.035              0.452
 Vibration    28          0.960              1.029              0.447

 Optimization completed.
    -- Stationary point found.
 Normal termination of Gaussian 16 at Mon Dec 14 17:59:23 2020.

 ----------------------------------------------------------------------
 # B3LYP/6-311++G(d,p) empiricaldispersion=gd3bj scf=xqc pop=npa geom=c
 heck
 ----------------------------------------------------------------------

 --------------------------------------
 CID_62278893_JID_7511_Energie_neutraal
 --------------------------------------
 Structure from the checkpoint file:  "JID_7511.chk"
 Charge =  0 Multiplicity = 1

 SCF Done:  E(RB3LYP) =  -713.073479283     A.U. after   14 cycles
 Normal termination of Gaussian 16 at Mon Dec 14 18:08:23 2020.

 ----------------------------------------------------------------------
 # B3LYP/6-311++G(d,p) empiricaldispersion=gd3bj scf=xqc pop=npa geom=c
 heck
 ----------------------------------------------------------------------

 ------------------------------------
 CID_62278893_JID_7511_Energie_kation
 ------------------------------------
 Structure from the checkpoint file:  "JID_7511.chk"
 Charge =  1 Multiplicity = 2

 SCF Done:  E(UB3LYP) =  -712.813219234     A.U. after   21 cycles
 Normal termination of Gaussian 16 at Mon Dec 14 18:27:25 2020.
 Gaussian 16:  ES64L-G16RevA.03 25-Dec-2016

 ----------------------------------------------------------------------
 # B3LYP/6-311++G(d,p) empiricaldispersion=gd3bj scf=xqc pop=npa geom=c
 heck
 ----------------------------------------------------------------------

 -----------------------------------
 CID_62278893_JID_7511_Energie_anion
 -----------------------------------
 Structure from the checkpoint file:  "JID_7511.chk"
 Charge = -1 Multiplicity = 2

                         Standard orientation:
 ---------------------------------------------------------------------
 Center     Atomic      Atomic             Coordinates (Angstroms)
 Number     Number       Type             X           Y           Z
 ---------------------------------------------------------------------
      1          6           0       -0.431269    3.166159   -0.888992
      2          6           0        0.423239    2.021692   -1.439791
      3          6           0        1.911609    2.096983   -1.065502
      4          6           0        2.223955    2.213915    0.433105
      5          6           0        1.685100    1.070952    1.308116
      6          7           0        2.129472   -0.255479    0.889903
      7          6           0        3.550478   -0.531301    0.931255
      8          6           0        1.265383   -1.158783    0.311773
      9          6           0        1.733662   -2.348673   -0.297435
     10          6           0        0.802745   -3.212378   -0.853716
     11          6           0       -0.558117   -2.900591   -0.818826
     12          6           0       -0.931665   -1.707616   -0.202415
     13          7           0       -0.048805   -0.871589    0.354475
     14          6           0       -2.382838   -1.288530   -0.090249
     15          7           0       -2.521284    0.145983   -0.306244
     16          6           0       -3.842948    0.692705   -0.015575
     17          6           0       -4.292154    0.647240    1.453062
     18          1           0       -0.462338    3.159214    0.207459
     19          1           0       -1.463517    3.078409   -1.245229
     20          1           0       -0.047386    4.146405   -1.199776
     21          1           0       -0.000098    1.071089   -1.105326
     22          1           0        0.348156    2.015443   -2.535185
     23          1           0        2.416738    1.207558   -1.465763
     24          1           0        2.367898    2.960301   -1.570264
     25          1           0        3.313035    2.286208    0.558089
     26          1           0        1.816572    3.151765    0.832993
     27          1           0        2.003298    1.234418    2.347588
     28          1           0        0.596863    1.056502    1.298177
     29          1           0        3.744363   -1.528981    1.341894
     30          1           0        4.029761   -0.466814   -0.057500
     31          1           0        4.029956    0.198835    1.587258
     32          1           0        2.790385   -2.575713   -0.353535
     33          1           0        1.142142   -4.126352   -1.334300
     34          1           0       -1.301871   -3.551347   -1.266067
     35          1           0       -2.978884   -1.822737   -0.840958
     36          1           0       -2.752553   -1.625910    0.897853
     37          1           0       -1.810310    0.610740    0.254662
     38          1           0       -3.846419    1.734867   -0.359524
     39          1           0       -4.571095    0.159564   -0.641622
     40          1           0       -3.586138    1.194128    2.090273
     41          1           0       -5.279890    1.108319    1.572610
     42          1           0       -4.357426   -0.378958    1.830400
 ---------------------------------------------------------------------

 SCF Done:  E(UB3LYP) =  -713.060221827     A.U. after   33 cycles
 SCF Done:  E(UB3LYP) =  -713.060221827     a.u. after    1 cycles

 The electronic state is 2-A.
 Alpha  occ. eigenvalues --  -14.23653 -14.20158 -14.19894 -10.14861 -10.11693
 Alpha  occ. eigenvalues --  -10.10261 -10.10231 -10.10096 -10.09885 -10.09130
 Alpha  occ. eigenvalues --  -10.07482 -10.07172 -10.07077 -10.06930 -10.06612
 Alpha  occ. eigenvalues --  -10.06285 -10.06043  -0.87974  -0.82866  -0.80352
 Alpha  occ. eigenvalues --   -0.70796  -0.70293  -0.68179  -0.65414  -0.64100
 Alpha  occ. eigenvalues --   -0.60911  -0.59198  -0.57539  -0.53758  -0.51795
 Alpha  occ. eigenvalues --   -0.50228  -0.49432  -0.45915  -0.43500  -0.40504
 Alpha  occ. eigenvalues --   -0.38940  -0.38893  -0.38401  -0.37319  -0.36313
 Alpha  occ. eigenvalues --   -0.35217  -0.34675  -0.33614  -0.32990  -0.31830
 Alpha  occ. eigenvalues --   -0.31659  -0.31185  -0.30221  -0.30150  -0.29327
 Alpha  occ. eigenvalues --   -0.28307  -0.28168  -0.27923  -0.26972  -0.26564
 Alpha  occ. eigenvalues --   -0.26098  -0.25275  -0.22994  -0.22655  -0.22242
 Alpha  occ. eigenvalues --   -0.19992  -0.18012  -0.16675  -0.13073  -0.10746
 Alpha  occ. eigenvalues --    0.04090
 Alpha virt. eigenvalues --    0.05619   0.06178   0.06729   0.07142   0.07625
 Alpha virt. eigenvalues --    0.07733   0.08422   0.08960   0.09350   0.09612
 Alpha virt. eigenvalues --    0.09793   0.09898   0.10799   0.11103   0.11497

  Beta  occ. eigenvalues --  -14.23651 -14.20151 -14.19891 -10.14862 -10.11681
  Beta  occ. eigenvalues --  -10.10251 -10.10224 -10.10047 -10.09870 -10.09113
  Beta  occ. eigenvalues --  -10.07461 -10.07171 -10.07053 -10.06914 -10.06602
  Beta  occ. eigenvalues --  -10.06270 -10.06040  -0.87962  -0.82850  -0.80339
  Beta  occ. eigenvalues --   -0.70769  -0.70267  -0.68154  -0.65388  -0.64064
  Beta  occ. eigenvalues --   -0.60862  -0.59162  -0.57507  -0.53724  -0.51750
  Beta  occ. eigenvalues --   -0.50190  -0.49395  -0.45881  -0.43461  -0.40483
  Beta  occ. eigenvalues --   -0.38911  -0.38862  -0.38377  -0.37288  -0.36283
  Beta  occ. eigenvalues --   -0.35190  -0.34653  -0.33587  -0.32952  -0.31797
  Beta  occ. eigenvalues --   -0.31627  -0.31158  -0.30191  -0.30124  -0.29293
  Beta  occ. eigenvalues --   -0.28279  -0.28133  -0.27897  -0.26949  -0.26542
  Beta  occ. eigenvalues --   -0.26070  -0.25257  -0.22977  -0.22634  -0.22219
  Beta  occ. eigenvalues --   -0.19962  -0.17955  -0.16662  -0.13063  -0.10712
  Beta virt. eigenvalues --    0.05877   0.06542   0.06686   0.06872   0.07480
  Beta virt. eigenvalues --    0.08089   0.08181   0.08600   0.09314   0.09406
  Beta virt. eigenvalues --    0.09846   0.10206   0.10282   0.11085   0.11194

 Mulliken charges and spin densities:
               1          2
     1  C   -0.127893  -0.512366
     2  C   -0.302003   0.089073
     3  C   -0.242867   0.065058
     4  C    0.128531  -0.406958
     5  C   -0.067961  -0.247910
     6  N    0.028753   0.132402
     7  C    1.261708  -1.584610
     8  C   -0.568644   0.411165
     9  C    0.259539  -0.451497
    10  C    0.747294  -0.924105
    11  C   -0.793040   0.506044
    12  C    0.406757   0.196667
    13  N   -0.092542   0.046082
    14  C   -0.156784  -1.009570
    15  N   -0.081880   0.020324
    16  C   -0.535227   0.381632
    17  C    0.348202  -0.802730
    18  H    0.011381   0.136888
    19  H    0.104611   0.027058
    20  H    0.010559   0.116030
    21  H    0.396864  -0.217227
    22  H    0.049372   0.096086
    23  H    0.031471   0.098513
    24  H    0.004471   0.154738
    25  H   -0.101795   0.262615
    26  H   -0.084147   0.233989
    27  H   -0.234528   0.427062
    28  H    0.102913   0.125653
    29  H   -0.265811   0.426329
    30  H   -0.305327   0.498021
    31  H   -0.448447   0.597490
    32  H   -0.215288   0.363132
    33  H   -0.448911   0.638779
    34  H   -0.088408   0.228476
    35  H    0.110048   0.091713
    36  H    0.036633   0.086172
    37  H    0.453670  -0.281463
    38  H   -0.013238   0.157931
    39  H    0.021668   0.076388
    40  H   -0.048721   0.179442
    41  H   -0.267847   0.408534
    42  H   -0.023136   0.158949
 Sum of Mulliken charges =  -1.00000   1.00000

 Dipole moment (field-independent basis, Debye):
    X=             -3.9936    Y=              0.5093    Z=             -1.7861  Tot=              4.4044
 Quadrupole moment (field-independent basis, Debye-Ang):
   XX=           -194.0245   YY=           -161.5414   ZZ=           -145.4282
   XY=              7.6606   XZ=             -0.4266   YZ=             -3.7125

 Summary of Natural Population Analysis:

                                       Natural Population
                Natural  -----------------------------------------------
    Atom  No    Charge         Core      Valence    Rydberg      Total
 -----------------------------------------------------------------------
      C    1   -0.28670      0.99967     2.28282    0.00421     3.28670
      C    2   -0.20048      0.99963     2.19347    0.00738     3.20048
      C    3   -0.19009      0.99963     2.18192    0.00854     3.19009
      C    4   -0.19703      0.99962     2.18895    0.00846     3.19703
      C    5   -0.08492      0.99959     2.07390    0.01142     3.08492
      N    6   -0.24754      0.99965     2.73550    0.01239     3.74754
      C    7   -0.17860      0.99964     2.17014    0.00882     3.17860
      C    8    0.21696      0.99951     1.76903    0.01451     2.78304
      C    9   -0.14909      0.99952     2.14090    0.00866     3.14909
      C   10   -0.06906      0.99957     2.05930    0.01019     3.06906
      C   11   -0.15273      0.99950     2.14413    0.00910     3.15273
      C   12    0.12381      0.99954     1.86287    0.01379     2.87619
      N   13   -0.28036      0.99963     2.77058    0.01014     3.78036
      C   14   -0.09694      0.99959     2.08626    0.01110     3.09694
      N   15   -0.34081      0.99975     2.83032    0.01074     3.84081
      C   16   -0.08619      0.99965     2.07555    0.01100     3.08619
      C   17   -0.29626      0.99967     2.29256    0.00403     3.29626
      H   18    0.09413      0.00000     0.40476    0.00111     0.40587
      H   19    0.10018      0.00000     0.39882    0.00100     0.39982
      H   20    0.09257      0.00000     0.40650    0.00093     0.40743
      H   21    0.10801      0.00000     0.38893    0.00306     0.39199
      H   22    0.09208      0.00000     0.40686    0.00106     0.40792
      H   23    0.09842      0.00000     0.40018    0.00140     0.40158
      H   24    0.09350      0.00000     0.40557    0.00092     0.40650
      H   25    0.09799      0.00000     0.40074    0.00127     0.40201
      H   26    0.09743      0.00000     0.40141    0.00116     0.40257
      H   27    0.09351      0.00000     0.40541    0.00109     0.40649
      H   28    0.11227      0.00000     0.38547    0.00226     0.38773
      H   29    0.09869      0.00000     0.39974    0.00158     0.40131
      H   30    0.09434      0.00000     0.40376    0.00190     0.40566
      H   31    0.10289      0.00000     0.39555    0.00156     0.39711
      H   32    0.10888      0.00000     0.38959    0.00152     0.39112
      H   33    0.10080      0.00000     0.39821    0.00099     0.39920
      H   34    0.10194      0.00000     0.39714    0.00092     0.39806
      H   35    0.09229      0.00000     0.40636    0.00135     0.40771
      H   36    0.08666      0.00000     0.41186    0.00147     0.41334
      H   37    0.18043      0.00000     0.31520    0.00437     0.31957
      H   38    0.09129      0.00000     0.40764    0.00106     0.40871
      H   39    0.08638      0.00000     0.41257    0.00104     0.41362
      H   40    0.09718      0.00000     0.40142    0.00140     0.40282
      H   41    0.09795      0.00000     0.40074    0.00131     0.40205
      H   42    0.09623      0.00000     0.40267    0.00110     0.40377
 =======================================================================
   * Total *   -0.00000     16.99334    47.80532    0.20134    65.00000

 Normal termination of Gaussian 16 at Mon Dec 14 18:59:17 2020.
