 Gaussian 16, Revision A.03,

 -----------------------------------------------------------
 # opt freq B3LYP/6-31G(d) empiricaldispersion=gd3bj scf=xqc
 -----------------------------------------------------------

 -------------------------------
 CID_136072582_JID_2230_neutraal
 -------------------------------
 Symbolic Z-matrix:
 Charge =  0 Multiplicity = 1

 SCF Done:  E(RB3LYP) =  -586.911926702     A.U. after   15 cycles
 SCF Done:  E(RB3LYP) =  -586.920544429     A.U. after   13 cycles
 SCF Done:  E(RB3LYP) =  -586.921882337     A.U. after   12 cycles
 SCF Done:  E(RB3LYP) =  -586.922311464     A.U. after   11 cycles
 SCF Done:  E(RB3LYP) =  -586.922443390     A.U. after   10 cycles
 SCF Done:  E(RB3LYP) =  -586.922512768     A.U. after   11 cycles
 SCF Done:  E(RB3LYP) =  -586.922604745     A.U. after   10 cycles
 SCF Done:  E(RB3LYP) =  -586.922652752     A.U. after   10 cycles
 SCF Done:  E(RB3LYP) =  -586.922658338     A.U. after    9 cycles
 SCF Done:  E(RB3LYP) =  -586.922660120     A.U. after    8 cycles
 SCF Done:  E(RB3LYP) =  -586.922661368     A.U. after    8 cycles
 SCF Done:  E(RB3LYP) =  -586.922661848     A.U. after    8 cycles
 Optimization completed.
    -- Stationary point found.
 Normal termination of Gaussian 16 at Wed Dec  9 16:54:09 2020.

 --------------------------------------------------------------------
 #N Geom=AllCheck Guess=TCheck SCRF=Check GenChk RB3LYP/6-31G(d) Freq
 --------------------------------------------------------------------

 Structure from the checkpoint file:  "JID_2230.chk"
 -------------------------------
 CID_136072582_JID_2230_neutraal
 -------------------------------
 Charge =  0 Multiplicity = 1

 SCF Done:  E(RB3LYP) =  -586.922661848     A.U. after    1 cycles

  Exact polarizability: 126.011  -0.949 109.893  -0.148  -0.172  52.275
 Approx polarizability: 171.537  -1.589 189.718  -2.271   1.512  79.607

                      1                      2                      3
                      A                      A                      A
 Frequencies --     88.9479               116.7861               154.3736
 Red. masses --      3.9348                 2.0986                 2.1286
 Frc consts  --      0.0183                 0.0169                 0.0299
 IR Inten    --      0.8132                 5.7709                 4.1259

                      4                      5                      6
                      A                      A                      A
 Frequencies --    165.8031               188.5547               226.8745
 Red. masses --      1.6437                 4.1596                 3.2743
 Frc consts  --      0.0266                 0.0871                 0.0993
 IR Inten    --      0.2724                11.9066                 4.4048

                      7                      8                      9
                      A                      A                      A
 Frequencies --    227.8531               271.1858               337.6115
 Red. masses --      3.6679                 4.6363                 5.8163
 Frc consts  --      0.1122                 0.2009                 0.3906
 IR Inten    --      0.8494                 4.2266                10.0477

                     10                     11                     12
                      A                      A                      A
 Frequencies --    395.0166               460.5230               475.2505
 Red. masses --      4.2335                 1.1209                 7.5568
 Frc consts  --      0.3892                 0.1401                 1.0056
 IR Inten    --     10.4014                96.1740                 7.3013

                     13                     14                     15
                      A                      A                      A
 Frequencies --    529.2419               613.9016               632.6411
 Red. masses --      5.7136                 7.8308                 4.0793
 Frc consts  --      0.9429                 1.7388                 0.9620
 IR Inten    --      4.9125                 0.4666                12.7516

                     16                     17                     18
                      A                      A                      A
 Frequencies --    678.0818               691.8683               708.1142
 Red. masses --      2.6980                 4.5538                 6.0180
 Frc consts  --      0.7309                 1.2843                 1.7779
 IR Inten    --     12.7462                 1.3353                 4.5684

                     19                     20                     21
                      A                      A                      A
 Frequencies --    747.3548               778.4559               811.8957
 Red. masses --      4.3246                 2.7112                 3.2220
 Frc consts  --      1.4231                 0.9680                 1.2513
 IR Inten    --      6.6480                66.3018                 5.2362

                     22                     23                     24
                      A                      A                      A
 Frequencies --    862.2169               977.2223               994.2058
 Red. masses --      1.8572                 2.5810                 3.0971
 Frc consts  --      0.8135                 1.4522                 1.8037
 IR Inten    --      5.3898                 3.9764                 3.7086

                     25                     26                     27
                      A                      A                      A
 Frequencies --   1051.1075              1075.7102              1129.2876
 Red. masses --      3.4638                 2.4059                 1.5339
 Frc consts  --      2.2547                 1.6403                 1.1526
 IR Inten    --      1.8722                83.9398                 4.1944

                     28                     29                     30
                      A                      A                      A
 Frequencies --   1169.9140              1181.7679              1201.6141
 Red. masses --      1.4580                 2.6207                 1.5778
 Frc consts  --      1.1757                 2.1564                 1.3423
 IR Inten    --     36.9902                28.3981                12.2333

                     31                     32                     33
                      A                      A                      A
 Frequencies --   1225.9784              1235.0637              1273.5754
 Red. masses --      1.3926                 1.4092                 2.2169
 Frc consts  --      1.2332                 1.2665                 2.1186
 IR Inten    --      4.0870                20.5305               241.1228

                     34                     35                     36
                      A                      A                      A
 Frequencies --   1279.5227              1305.4720              1319.6083
 Red. masses --      2.2553                 3.9946                 2.1699
 Frc consts  --      2.1754                 4.0111                 2.2263
 IR Inten    --     92.3269                22.3241                55.8779

                     37                     38                     39
                      A                      A                      A
 Frequencies --   1335.8312              1417.3018              1468.0177
 Red. masses --      1.6636                 1.9939                 1.2571
 Frc consts  --      1.7491                 2.3599                 1.5962
 IR Inten    --     37.3094                32.2937                47.9539

                     40                     41                     42
                      A                      A                      A
 Frequencies --   1492.1909              1518.5843              1522.6025
 Red. masses --      2.8354                 1.1597                 1.6448
 Frc consts  --      3.7197                 1.5758                 2.2466
 IR Inten    --    123.6949                27.1089                67.0774

                     43                     44                     45
                      A                      A                      A
 Frequencies --   1536.2641              1553.9038              1559.6846
 Red. masses --      1.1257                 1.1352                 1.6870
 Frc consts  --      1.5653                 1.6150                 2.4179
 IR Inten    --     14.8422                17.2696                54.4397

                     46                     47                     48
                      A                      A                      A
 Frequencies --   1625.7514              1674.6974              1788.3111
 Red. masses --      5.3527                 7.5557                11.5347
 Frc consts  --      8.3356                12.4853                21.7341
 IR Inten    --    546.1276               571.7787               499.0666

                     49                     50                     51
                      A                      A                      A
 Frequencies --   3007.8982              3019.8048              3077.4535
 Red. masses --      1.0724                 1.0512                 1.0694
 Frc consts  --      5.7164                 5.6478                 5.9671
 IR Inten    --     50.3473                83.2661                17.7851

                     52                     53                     54
                      A                      A                      A
 Frequencies --   3102.5239              3109.0237              3154.1156
 Red. masses --      1.0891                 1.0920                 1.0995
 Frc consts  --      6.1766                 6.2190                 6.4445
 IR Inten    --     34.9691                34.3145                 9.0561

                     55                     56                     57
                      A                      A                      A
 Frequencies --   3176.3666              3223.7219              3752.2300
 Red. masses --      1.0997                 1.0919                 1.0654
 Frc consts  --      6.5373                 6.6857                 8.8376
 IR Inten    --      1.1250                 4.2651                54.0214

 - Thermochemistry -
 -------------------
 Temperature   298.150 Kelvin.  Pressure   1.00000 Atm.
 Atom     1 has atomic number  6 and mass  12.00000

 Molecular mass:   167.06948 amu.
 Principal axes and moments of inertia in atomic units:
                           1         2         3
     Eigenvalues --  1340.335981907.393833205.48520
           X            0.99990  -0.01379   0.00269
           Y            0.01380   0.99990  -0.00309
           Z           -0.00265   0.00313   0.99999
 This molecule is an asymmetric top.
 Rotational symmetry number  1.
 Warning -- assumption of classical behavior for rotation
           may cause significant error
 Rotational temperatures (Kelvin)      0.06462     0.04541     0.02702
 Rotational constants (GHZ):           1.34648     0.94618     0.56302
 Zero-point vibrational energy     440817.2 (Joules/Mol)
                                  105.35784 (Kcal/Mol)
 Warning -- explicit consideration of  14 degrees of freedom as
           vibrations may cause significant error
 Vibrational temperatures:    127.98   168.03   222.11   238.55   271.29
          (Kelvin)            326.42   327.83   390.18   485.75   568.34
                              662.59   683.78   761.46   883.27   910.23
                              975.61   995.44  1018.82  1075.28  1120.02
                             1168.14  1240.54  1406.00  1430.44  1512.31
                             1547.71  1624.79  1683.25  1700.30  1728.85
                             1763.91  1776.98  1832.39  1840.95  1878.28
                             1898.62  1921.96  2039.18  2112.15  2146.93
                             2184.90  2190.69  2210.34  2235.72  2244.04
                             2339.09  2409.52  2572.98  4327.69  4344.83
                             4427.77  4463.84  4473.19  4538.07  4570.08
                             4638.22  5398.62

 Zero-point correction=                           0.167898 (Hartree/Particle)
 Thermal correction to Energy=                    0.178209
 Thermal correction to Enthalpy=                  0.179153
 Thermal correction to Gibbs Free Energy=         0.132098
 Sum of electronic and zero-point Energies=           -586.754763
 Sum of electronic and thermal Energies=              -586.744453
 Sum of electronic and thermal Enthalpies=            -586.743509
 Sum of electronic and thermal Free Energies=         -586.790564

                     E (Thermal)             CV                S
                      KCal/Mol        Cal/Mol-Kelvin    Cal/Mol-Kelvin
 Total                  111.828             38.961             99.036
 Electronic               0.000              0.000              0.000
 Translational            0.889              2.981             41.248
 Rotational               0.889              2.981             30.484
 Vibrational            110.050             32.999             27.304
 Vibration     1          0.602              1.957              3.683
 Vibration     2          0.608              1.935              3.153
 Vibration     3          0.620              1.898              2.618
 Vibration     4          0.624              1.884              2.483
 Vibration     5          0.633              1.856              2.242
 Vibration     6          0.651              1.800              1.904
 Vibration     7          0.651              1.799              1.896
 Vibration     8          0.675              1.726              1.589
 Vibration     9          0.718              1.600              1.223
 Vibration    10          0.762              1.481              0.981
 Vibration    11          0.818              1.338              0.765
 Vibration    12          0.832              1.305              0.723
 Vibration    13          0.884              1.185              0.589
 Vibration    14          0.973              1.002              0.426

 Optimization completed.
    -- Stationary point found.
 Normal termination of Gaussian 16 at Wed Dec  9 16:58:54 2020.

 ----------------------------------------------------------------------
 # B3LYP/6-311++G(d,p) empiricaldispersion=gd3bj scf=xqc pop=npa geom=c
 heck
 ----------------------------------------------------------------------

 ---------------------------------------
 CID_136072582_JID_2230_Energie_neutraal
 ---------------------------------------
 Structure from the checkpoint file:  "JID_2230.chk"
 Charge =  0 Multiplicity = 1

 SCF Done:  E(RB3LYP) =  -587.094241802     A.U. after   14 cycles
 Normal termination of Gaussian 16 at Wed Dec  9 17:00:44 2020.

 ----------------------------------------------------------------------
 # B3LYP/6-311++G(d,p) empiricaldispersion=gd3bj scf=xqc pop=npa geom=c
 heck
 ----------------------------------------------------------------------

 -------------------------------------
 CID_136072582_JID_2230_Energie_kation
 -------------------------------------
 Structure from the checkpoint file:  "JID_2230.chk"
 Charge =  1 Multiplicity = 2

 SCF Done:  E(UB3LYP) =  -586.799667719     A.U. after   23 cycles
 Normal termination of Gaussian 16 at Wed Dec  9 17:05:13 2020.
 Gaussian 16:  ES64L-G16RevA.03 25-Dec-2016

 ----------------------------------------------------------------------
 # B3LYP/6-311++G(d,p) empiricaldispersion=gd3bj scf=xqc pop=npa geom=c
 heck
 ----------------------------------------------------------------------

 ------------------------------------
 CID_136072582_JID_2230_Energie_anion
 ------------------------------------
 Structure from the checkpoint file:  "JID_2230.chk"
 Charge = -1 Multiplicity = 2

                         Standard orientation:
 ---------------------------------------------------------------------
 Center     Atomic      Atomic             Coordinates (Angstroms)
 Number     Number       Type             X           Y           Z
 ---------------------------------------------------------------------
      1          6           0        2.427942   -1.904242    0.070814
      2          7           0        1.801989   -0.623032   -0.178670
      3          6           0        2.485565    0.634177    0.131637
      4          6           0        1.387323    1.694775   -0.101767
      5          7           0        0.175987    0.887646    0.003933
      6          6           0        0.450906   -0.445572   -0.072504
      7          7           0       -0.439040   -1.403966   -0.059896
      8          6           0       -1.726956   -0.968859   -0.001828
      9          6           0       -2.122831    0.351999    0.041552
     10          6           0       -1.143629    1.405255    0.025376
     11          8           0       -1.316509    2.619511    0.034417
     12          8           0       -2.610524   -1.993428    0.009802
     13          1           0        3.310822   -2.016738   -0.566289
     14          1           0        1.706231   -2.687462   -0.164599
     15          1           0        2.734571   -2.005744    1.122752
     16          1           0        2.831741    0.634450    1.177058
     17          1           0        3.354088    0.777836   -0.517305
     18          1           0        1.381385    2.493782    0.640570
     19          1           0        1.448330    2.147621   -1.097280
     20          1           0       -3.166578    0.641949    0.079277
     21          1           0       -3.506793   -1.624090    0.054821
 ---------------------------------------------------------------------

 SCF Done:  E(UB3LYP) =  -587.085313858     A.U. after   32 cycles

 The electronic state is 2-A.
 Alpha  occ. eigenvalues --  -19.06577 -18.98462 -14.26751 -14.25477 -14.20530
 Alpha  occ. eigenvalues --  -10.19261 -10.18172 -10.17634 -10.12641 -10.12115
 Alpha  occ. eigenvalues --  -10.10431 -10.06497  -0.98690  -0.95598  -0.91843
 Alpha  occ. eigenvalues --   -0.83634  -0.81759  -0.68122  -0.67083  -0.62454
 Alpha  occ. eigenvalues --   -0.56240  -0.55669  -0.51982  -0.45537  -0.44187
 Alpha  occ. eigenvalues --   -0.42395  -0.40443  -0.39294  -0.36213  -0.35301
 Alpha  occ. eigenvalues --   -0.34495  -0.32912  -0.32689  -0.31212  -0.30551
 Alpha  occ. eigenvalues --   -0.29510  -0.28450  -0.28252  -0.27000  -0.19669
 Alpha  occ. eigenvalues --   -0.18330  -0.16519  -0.15826  -0.12139   0.04102
 Alpha virt. eigenvalues --    0.05525   0.07405   0.07769   0.08838   0.09738
 Alpha virt. eigenvalues --    0.10429   0.10795   0.11138   0.11713   0.12648
 Alpha virt. eigenvalues --    0.13392   0.14935   0.15276   0.15520   0.16476

  Beta  occ. eigenvalues --  -19.06535 -18.98461 -14.26741 -14.25482 -14.20517
  Beta  occ. eigenvalues --  -10.19247 -10.18170 -10.17633 -10.12625 -10.12055
  Beta  occ. eigenvalues --  -10.10386 -10.06476  -0.98618  -0.95577  -0.91834
  Beta  occ. eigenvalues --   -0.83614  -0.81738  -0.68091  -0.67026  -0.62397
  Beta  occ. eigenvalues --   -0.56160  -0.55604  -0.51930  -0.45495  -0.44120
  Beta  occ. eigenvalues --   -0.42351  -0.40401  -0.39248  -0.36139  -0.35259
  Beta  occ. eigenvalues --   -0.34450  -0.32868  -0.32663  -0.31154  -0.30497
  Beta  occ. eigenvalues --   -0.29467  -0.28400  -0.28209  -0.26966  -0.19641
  Beta  occ. eigenvalues --   -0.18284  -0.16508  -0.15803  -0.12106
  Beta virt. eigenvalues --    0.06813   0.07217   0.07758   0.08417   0.09720
  Beta virt. eigenvalues --    0.10389   0.10818   0.10971   0.11567   0.12024
  Beta virt. eigenvalues --    0.12931   0.13773   0.15109   0.15385   0.15760

 Mulliken charges and spin densities:
               1          2
     1  C    1.068405  -1.365847
     2  N   -0.190260   0.225928
     3  C    2.291900  -2.571266
     4  C   -0.658886   0.457697
     5  N   -0.302461   0.157032
     6  C    0.113565  -0.101849
     7  N   -0.331730   0.024321
     8  C   -0.003295  -0.309679
     9  C    0.010243   0.398355
    10  C   -0.042418  -0.063608
    11  O   -0.400134   0.014804
    12  O   -0.185385   0.007049
    13  H   -0.422883   0.584864
    14  H    0.061616   0.112467
    15  H   -0.292899   0.457892
    16  H   -0.427412   0.625830
    17  H   -0.752961   0.938268
    18  H    0.001465   0.191755
    19  H    0.086034   0.123112
    20  H   -0.293710   0.473674
    21  H   -0.328794   0.619201
 Sum of Mulliken charges =  -1.00000   1.00000

 Dipole moment (field-independent basis, Debye):
    X=             -2.2343    Y=              0.1999    Z=             -0.7443  Tot=              2.3635
 Quadrupole moment (field-independent basis, Debye-Ang):
   XX=           -145.2423   YY=           -113.6049   ZZ=            -94.8382
   XY=              0.3040   XZ=              0.0612   YZ=             -0.5131

 Summary of Natural Population Analysis:

                                       Natural Population
                Natural  -----------------------------------------------
    Atom  No    Charge         Core      Valence    Rydberg      Total
 -----------------------------------------------------------------------
      C    1   -0.17638      0.99964     2.16807    0.00868     3.17638
      N    2   -0.24112      0.99964     2.73018    0.01130     3.74112
      C    3   -0.07962      0.99963     2.06963    0.01036     3.07962
      C    4   -0.08259      0.99963     2.07151    0.01144     3.08259
      N    5   -0.23984      0.99959     2.73169    0.00857     3.73984
      C    6    0.34083      0.99956     1.64449    0.01512     2.65917
      N    7   -0.29534      0.99961     2.78548    0.01025     3.79534
      C    8    0.28161      0.99946     1.70122    0.01771     2.71839
      C    9   -0.23719      0.99948     2.22807    0.00965     3.23719
      C   10    0.32403      0.99962     1.65447    0.02188     2.67597
      O   11   -0.33053      0.99988     3.32499    0.00566     4.33053
      O   12   -0.32723      0.99987     3.32021    0.00715     4.32723
      H   13    0.10002      0.00000     0.39811    0.00187     0.39998
      H   14    0.11156      0.00000     0.38653    0.00191     0.38844
      H   15    0.09355      0.00000     0.40464    0.00181     0.40645
      H   16    0.09481      0.00000     0.40115    0.00404     0.40519
      H   17    0.10613      0.00000     0.38882    0.00505     0.39387
      H   18    0.10984      0.00000     0.38908    0.00109     0.39016
      H   19    0.09924      0.00000     0.39968    0.00108     0.40076
      H   20    0.10957      0.00000     0.38912    0.00130     0.39043
      H   21    0.23867      0.00000     0.25266    0.00868     0.26133
 =======================================================================
   * Total *    0.00000     11.99561    31.83979    0.16460    44.00000

 Normal termination of Gaussian 16 at Wed Dec  9 17:11:08 2020.
