 Gaussian 16, Revision A.03,

 -----------------------------------------------------------
 # opt freq B3LYP/6-31G(d) empiricaldispersion=gd3bj scf=xqc
 -----------------------------------------------------------

 ------------------------------
 CID_79935108_JID_5877_neutraal
 ------------------------------
 Symbolic Z-matrix:
 Charge =  0 Multiplicity = 1

 SCF Done:  E(RB3LYP) =  -656.502127883     A.U. after   13 cycles
 SCF Done:  E(RB3LYP) =  -656.510709253     A.U. after   11 cycles
 SCF Done:  E(RB3LYP) =  -656.514176129     A.U. after   11 cycles
 SCF Done:  E(RB3LYP) =  -656.515704728     A.U. after   11 cycles
 SCF Done:  E(RB3LYP) =  -656.516294968     A.U. after   11 cycles
 SCF Done:  E(RB3LYP) =  -656.516762485     A.U. after   11 cycles
 SCF Done:  E(RB3LYP) =  -656.516992021     A.U. after   11 cycles
 SCF Done:  E(RB3LYP) =  -656.517206990     A.U. after   10 cycles
 SCF Done:  E(RB3LYP) =  -656.517394764     A.U. after   11 cycles
 SCF Done:  E(RB3LYP) =  -656.517530912     A.U. after   11 cycles
 SCF Done:  E(RB3LYP) =  -656.516548980     A.U. after   11 cycles
 SCF Done:  E(RB3LYP) =  -656.517590541     A.U. after   10 cycles
 SCF Done:  E(RB3LYP) =  -656.517687781     A.U. after   10 cycles
 SCF Done:  E(RB3LYP) =  -656.517696731     A.U. after    9 cycles
 SCF Done:  E(RB3LYP) =  -656.517697492     A.U. after    7 cycles
 SCF Done:  E(RB3LYP) =  -656.517697528     A.U. after    6 cycles
 Optimization completed.
    -- Stationary point found.
 Normal termination of Gaussian 16 at Thu Dec 10 17:40:36 2020.

 --------------------------------------------------------------------
 #N Geom=AllCheck Guess=TCheck SCRF=Check GenChk RB3LYP/6-31G(d) Freq
 --------------------------------------------------------------------

 Structure from the checkpoint file:  "JID_5877.chk"
 ------------------------------
 CID_79935108_JID_5877_neutraal
 ------------------------------
 Charge =  0 Multiplicity = 1

 SCF Done:  E(RB3LYP) =  -656.517697528     A.U. after    1 cycles

  Exact polarizability: 164.771   1.271 139.585   2.581   0.297 118.585
 Approx polarizability: 197.216   0.987 192.043  -0.987   2.497 190.676

                      1                      2                      3
                      A                      A                      A
 Frequencies --     33.2499                54.4071                56.3593
 Red. masses --      3.4129                 3.4074                 3.9714
 Frc consts  --      0.0022                 0.0059                 0.0074
 IR Inten    --      0.8145                 0.2812                 1.0535

                      4                      5                      6
                      A                      A                      A
 Frequencies --    126.2758               136.1406               151.2677
 Red. masses --      2.2985                 2.9612                 2.5205
 Frc consts  --      0.0216                 0.0323                 0.0340
 IR Inten    --      0.2627                 0.8123                 0.7919

                      7                      8                      9
                      A                      A                      A
 Frequencies --    195.3735               226.2903               247.6560
 Red. masses --      2.0031                 1.8569                 2.0379
 Frc consts  --      0.0450                 0.0560                 0.0736
 IR Inten    --      0.3484                 1.4901                 0.6297

                     10                     11                     12
                      A                      A                      A
 Frequencies --    255.8989               294.9623               324.2339
 Red. masses --      2.1287                 2.4687                 2.0557
 Frc consts  --      0.0821                 0.1265                 0.1273
 IR Inten    --      0.4698                 0.2808                 2.5071

                     13                     14                     15
                      A                      A                      A
 Frequencies --    341.1940               366.5188               383.1168
 Red. masses --      1.9383                 2.9555                 3.2349
 Frc consts  --      0.1329                 0.2339                 0.2798
 IR Inten    --      2.0388                 0.3719                 0.4513

                     16                     17                     18
                      A                      A                      A
 Frequencies --    405.5026               430.2301               442.4540
 Red. masses --      2.7139                 2.1363                 3.1727
 Frc consts  --      0.2629                 0.2330                 0.3659
 IR Inten    --      2.8375                 5.5977                 1.0296

                     19                     20                     21
                      A                      A                      A
 Frequencies --    463.9875               488.9282               518.7362
 Red. masses --      3.4210                 2.7748                 2.3268
 Frc consts  --      0.4339                 0.3908                 0.3689
 IR Inten    --      5.5314                 0.5514                 0.9683

                     22                     23                     24
                      A                      A                      A
 Frequencies --    546.1754               595.7341               613.6200
 Red. masses --      2.0537                 1.3617                 1.5139
 Frc consts  --      0.3610                 0.2847                 0.3359
 IR Inten    --      5.5566                57.4730                45.7282

                     25                     26                     27
                      A                      A                      A
 Frequencies --    665.7911               766.4908               790.5079
 Red. masses --      2.2914                 2.9570                 1.9870
 Frc consts  --      0.5984                 1.0236                 0.7316
 IR Inten    --      0.5520                 8.7665                11.1424

                     28                     29                     30
                      A                      A                      A
 Frequencies --    820.4734               847.9585               865.8459
 Red. masses --      1.7009                 1.5205                 1.9934
 Frc consts  --      0.6746                 0.6441                 0.8805
 IR Inten    --      7.3808                 1.2390                 3.3378

                     31                     32                     33
                      A                      A                      A
 Frequencies --    878.1772               895.6718               922.0804
 Red. masses --      1.8575                 2.4485                 2.0195
 Frc consts  --      0.8440                 1.1573                 1.0117
 IR Inten    --      1.7746                 6.2104                 1.8632

                     34                     35                     36
                      A                      A                      A
 Frequencies --    924.8933               945.9470               971.7063
 Red. masses --      1.5029                 2.2351                 1.8972
 Frc consts  --      0.7575                 1.1784                 1.0554
 IR Inten    --      0.9267                 9.0252                 8.7667

                     37                     38                     39
                      A                      A                      A
 Frequencies --   1006.6075              1013.9138              1033.6369
 Red. masses --      1.8109                 1.7184                 2.0262
 Frc consts  --      1.0811                 1.0408                 1.2755
 IR Inten    --      2.1630                 3.2781                 4.7990

                     40                     41                     42
                      A                      A                      A
 Frequencies --   1057.7086              1067.2390              1081.3963
 Red. masses --      2.7316                 2.2705                 1.7703
 Frc consts  --      1.8005                 1.5237                 1.2197
 IR Inten    --     15.5824                42.6476                23.9914

                     43                     44                     45
                      A                      A                      A
 Frequencies --   1095.4905              1106.9112              1110.8172
 Red. masses --      2.4224                 1.9326                 1.9021
 Frc consts  --      1.7128                 1.3952                 1.3829
 IR Inten    --     36.5093                 5.1265                 4.7942

                     46                     47                     48
                      A                      A                      A
 Frequencies --   1131.2337              1141.2528              1155.3109
 Red. masses --      2.1215                 1.7790                 2.8626
 Frc consts  --      1.5995                 1.3652                 2.2512
 IR Inten    --     18.3590                16.7347                10.1213

                     49                     50                     51
                      A                      A                      A
 Frequencies --   1167.3425              1175.4543              1185.3679
 Red. masses --      1.7508                 2.3606                 2.3529
 Frc consts  --      1.4057                 1.9217                 1.9479
 IR Inten    --     29.7684                14.2479                31.5178

                     52                     53                     54
                      A                      A                      A
 Frequencies --   1208.9664              1225.5443              1255.0324
 Red. masses --      2.0993                 1.6610                 1.3071
 Frc consts  --      1.8078                 1.4699                 1.2130
 IR Inten    --      1.5540                27.8099                 2.4515

                     55                     56                     57
                      A                      A                      A
 Frequencies --   1262.9360              1273.4482              1289.7634
 Red. masses --      1.3567                 1.4565                 1.2783
 Frc consts  --      1.2750                 1.3916                 1.2528
 IR Inten    --      7.5606                28.2641                 1.1462

                     58                     59                     60
                      A                      A                      A
 Frequencies --   1292.5693              1314.9826              1322.5581
 Red. masses --      1.2928                 1.1978                 1.3647
 Frc consts  --      1.2726                 1.2203                 1.4064
 IR Inten    --      2.7096                 5.6479                 3.4003

                     61                     62                     63
                      A                      A                      A
 Frequencies --   1342.8382              1348.2778              1359.9625
 Red. masses --      1.3954                 1.3170                 1.4477
 Frc consts  --      1.4825                 1.4105                 1.5776
 IR Inten    --     12.6588                 6.5493                31.6345

                     64                     65                     66
                      A                      A                      A
 Frequencies --   1366.0517              1382.0220              1390.5603
 Red. masses --      1.3389                 1.2997                 1.4072
 Frc consts  --      1.4721                 1.4626                 1.6032
 IR Inten    --      1.0975                 3.8984                20.3780

                     67                     68                     69
                      A                      A                      A
 Frequencies --   1400.6406              1404.9719              1406.3892
 Red. masses --      1.3898                 1.3879                 1.4558
 Frc consts  --      1.6064                 1.6142                 1.6965
 IR Inten    --      6.6166                 8.8130                33.7918

                     70                     71                     72
                      A                      A                      A
 Frequencies --   1412.4079              1419.8717              1425.8747
 Red. masses --      1.3613                 1.5847                 1.4357
 Frc consts  --      1.6001                 1.8824                 1.7198
 IR Inten    --     13.4838                16.4603                 4.5717

                     73                     74                     75
                      A                      A                      A
 Frequencies --   1442.7136              1446.2882              1457.4045
 Red. masses --      1.2405                 1.5530                 1.5214
 Frc consts  --      1.5213                 1.9139                 1.9039
 IR Inten    --      6.5643                 2.0640                 0.3848

                     76                     77                     78
                      A                      A                      A
 Frequencies --   1461.4156              1504.1896              1511.2625
 Red. masses --      1.2622                 1.0941                 1.0882
 Frc consts  --      1.5883                 1.4586                 1.4643
 IR Inten    --     80.8477                 1.6925                 1.0875

                     79                     80                     81
                      A                      A                      A
 Frequencies --   1513.1340              1515.1536              1517.5776
 Red. masses --      1.0813                 1.0868                 1.0897
 Frc consts  --      1.4586                 1.4700                 1.4787
 IR Inten    --      4.8513                 7.2538                 4.3935

                     82                     83                     84
                      A                      A                      A
 Frequencies --   1525.7144              1527.1169              1533.4404
 Red. masses --      1.0692                 1.1001                 1.0913
 Frc consts  --      1.4664                 1.5116                 1.5119
 IR Inten    --      4.3552                 0.9634                12.0281

                     85                     86                     87
                      A                      A                      A
 Frequencies --   1534.3069              1538.8410              1542.5115
 Red. masses --      1.0517                 1.0962                 1.0878
 Frc consts  --      1.4587                 1.5295                 1.5249
 IR Inten    --      6.8916                 2.6052                 2.9904

                     88                     89                     90
                      A                      A                      A
 Frequencies --   2894.5036              2905.6777              2925.9966
 Red. masses --      1.0795                 1.0737                 1.0728
 Frc consts  --      5.3286                 5.3409                 5.4113
 IR Inten    --     20.7417                51.7323                83.1901

                     91                     92                     93
                      A                      A                      A
 Frequencies --   2946.5428              2958.5640              3022.8674
 Red. masses --      1.0732                 1.0711                 1.0664
 Frc consts  --      5.4897                 5.5240                 5.7413
 IR Inten    --     38.1592               102.0953                34.4107

                     94                     95                     96
                      A                      A                      A
 Frequencies --   3030.4745              3039.6420              3042.7496
 Red. masses --      1.0666                 1.0601                 1.0660
 Frc consts  --      5.7711                 5.7710                 5.8147
 IR Inten    --     26.2221                26.1841                 9.0691

                     97                     98                     99
                      A                      A                      A
 Frequencies --   3045.0902              3045.9001              3052.6837
 Red. masses --      1.0480                 1.0622                 1.0701
 Frc consts  --      5.7254                 5.8063                 5.8756
 IR Inten    --     10.7462                18.9112                84.5582

                    100                    101                    102
                      A                      A                      A
 Frequencies --   3069.8708              3076.9766              3079.4321
 Red. masses --      1.0872                 1.0885                 1.0952
 Frc consts  --      6.0366                 6.0721                 6.1189
 IR Inten    --     20.5227                85.1155                30.8139

                    103                    104                    105
                      A                      A                      A
 Frequencies --   3082.9723              3084.1030              3090.7254
 Red. masses --      1.1003                 1.1025                 1.0956
 Frc consts  --      6.1617                 6.1785                 6.1663
 IR Inten    --     12.9401                46.6670                 3.7048

                    106                    107                    108
                      A                      A                      A
 Frequencies --   3092.7991              3100.1878              3109.0405
 Red. masses --      1.1055                 1.0917                 1.1011
 Frc consts  --      6.2304                 6.1822                 6.2707
 IR Inten    --     60.9342                47.1971                78.5416

                    109                    110                    111
                      A                      A                      A
 Frequencies --   3115.1633              3117.4004              3606.7244
 Red. masses --      1.0976                 1.0930                 1.0641
 Frc consts  --      6.2754                 6.2583                 8.1557
 IR Inten    --     64.3431                 6.6419                89.2387

 - Thermochemistry -
 -------------------
 Temperature   298.150 Kelvin.  Pressure   1.00000 Atm.
 Atom     1 has atomic number  6 and mass  12.00000

 Molecular mass:   212.18886 amu.
 Principal axes and moments of inertia in atomic units:
                           1         2         3
     Eigenvalues --  1643.037025518.098656489.16664
           X            0.99989   0.01171   0.00876
           Y           -0.01168   0.99993  -0.00355
           Z           -0.00880   0.00344   0.99996
 This molecule is an asymmetric top.
 Rotational symmetry number  1.
 Warning -- assumption of classical behavior for rotation
           may cause significant error
 Rotational temperatures (Kelvin)      0.05272     0.01570     0.01335
 Rotational constants (GHZ):           1.09842     0.32706     0.27812
 Zero-point vibrational energy     949454.3 (Joules/Mol)
                                  226.92503 (Kcal/Mol)
 Warning -- explicit consideration of  24 degrees of freedom as
           vibrations may cause significant error
 Vibrational temperatures:     47.84    78.28    81.09   181.68   195.88
          (Kelvin)            217.64   281.10   325.58   356.32   368.18
                              424.38   466.50   490.90   527.34   551.22
                              583.43   619.01   636.59   667.57   703.46
                              746.35   785.82   857.13   882.86   957.92
                             1102.81  1137.36  1180.48  1220.02  1245.76
                             1263.50  1288.67  1326.67  1330.72  1361.01
                             1398.07  1448.28  1458.80  1487.17  1521.81
                             1535.52  1555.89  1576.17  1592.60  1598.22
                             1627.59  1642.01  1662.23  1679.55  1691.22
                             1705.48  1739.43  1763.28  1805.71  1817.08
                             1832.21  1855.68  1859.72  1891.97  1902.87
                             1932.04  1939.87  1956.68  1965.44  1988.42
                             2000.71  2015.21  2021.44  2023.48  2032.14
                             2042.88  2051.52  2075.74  2080.89  2096.88
                             2102.65  2164.19  2174.37  2177.06  2179.97
                             2183.46  2195.16  2197.18  2206.28  2207.53
                             2214.05  2219.33  4164.55  4180.62  4209.86
                             4239.42  4256.71  4349.23  4360.18  4373.37
                             4377.84  4381.21  4382.37  4392.13  4416.86
                             4427.08  4430.62  4435.71  4437.34  4446.86
                             4449.85  4460.48  4473.22  4482.03  4485.24
                             5189.27

 Zero-point correction=                           0.361628 (Hartree/Particle)
 Thermal correction to Energy=                    0.376402
 Thermal correction to Enthalpy=                  0.377346
 Thermal correction to Gibbs Free Energy=         0.319762
 Sum of electronic and zero-point Energies=           -656.156069
 Sum of electronic and thermal Energies=              -656.141296
 Sum of electronic and thermal Enthalpies=            -656.140352
 Sum of electronic and thermal Free Energies=         -656.197935

                     E (Thermal)             CV                S
                      KCal/Mol        Cal/Mol-Kelvin    Cal/Mol-Kelvin
 Total                  236.196             58.979            121.195
 Electronic               0.000              0.000              0.000
 Translational            0.889              2.981             41.960
 Rotational               0.889              2.981             32.442
 Vibrational            234.418             53.017             46.792
 Vibration     1          0.594              1.983              5.625
 Vibration     2          0.596              1.976              4.650
 Vibration     3          0.596              1.975              4.581
 Vibration     4          0.611              1.927              3.002
 Vibration     5          0.614              1.917              2.857
 Vibration     6          0.619              1.901              2.656
 Vibration     7          0.636              1.846              2.176
 Vibration     8          0.650              1.801              1.908
 Vibration     9          0.661              1.767              1.747
 Vibration    10          0.666              1.753              1.690
 Vibration    11          0.689              1.683              1.445
 Vibration    12          0.709              1.627              1.289
 Vibration    13          0.721              1.593              1.207
 Vibration    14          0.739              1.541              1.094
 Vibration    15          0.752              1.506              1.027
 Vibration    16          0.770              1.458              0.943
 Vibration    17          0.791              1.404              0.858
 Vibration    18          0.802              1.378              0.819
 Vibration    19          0.822              1.330              0.755
 Vibration    20          0.845              1.275              0.686
 Vibration    21          0.874              1.208              0.613
 Vibration    22          0.901              1.148              0.552
 Vibration    23          0.954              1.041              0.457
 Vibration    24          0.973              1.003              0.427

 Optimization completed.
    -- Stationary point found.
 Normal termination of Gaussian 16 at Thu Dec 10 17:56:20 2020.

 ----------------------------------------------------------------------
 # B3LYP/6-311++G(d,p) empiricaldispersion=gd3bj scf=xqc pop=npa geom=c
 heck
 ----------------------------------------------------------------------

 --------------------------------------
 CID_79935108_JID_5877_Energie_neutraal
 --------------------------------------
 Structure from the checkpoint file:  "JID_5877.chk"
 Charge =  0 Multiplicity = 1

 SCF Done:  E(RB3LYP) =  -656.706663794     A.U. after   13 cycles
 Normal termination of Gaussian 16 at Thu Dec 10 18:03:38 2020.

 ----------------------------------------------------------------------
 # B3LYP/6-311++G(d,p) empiricaldispersion=gd3bj scf=xqc pop=npa geom=c
 heck
 ----------------------------------------------------------------------

 ------------------------------------
 CID_79935108_JID_5877_Energie_kation
 ------------------------------------
 Structure from the checkpoint file:  "JID_5877.chk"
 Charge =  1 Multiplicity = 2

 SCF Done:  E(UB3LYP) =  -656.413955787     A.U. after   24 cycles
 Normal termination of Gaussian 16 at Thu Dec 10 18:22:13 2020.
 Gaussian 16:  ES64L-G16RevA.03 25-Dec-2016

 ----------------------------------------------------------------------
 # B3LYP/6-311++G(d,p) empiricaldispersion=gd3bj scf=xqc pop=npa geom=c
 heck
 ----------------------------------------------------------------------

 -----------------------------------
 CID_79935108_JID_5877_Energie_anion
 -----------------------------------
 Structure from the checkpoint file:  "JID_5877.chk"
 Charge = -1 Multiplicity = 2

                         Standard orientation:
 ---------------------------------------------------------------------
 Center     Atomic      Atomic             Coordinates (Angstroms)
 Number     Number       Type             X           Y           Z
 ---------------------------------------------------------------------
      1          6           0        3.615445    2.152268    0.335380
      2          6           0        3.244252    1.106851   -0.719582
      3          6           0        3.270502   -0.344197   -0.218308
      4          6           0        2.262033   -0.666209    0.900923
      5          7           0        0.899829   -0.705860    0.351150
      6          6           0        0.147707   -1.907817    0.708655
      7          6           0       -1.167311   -1.934656   -0.058546
      8          7           0       -1.966027   -0.747165    0.225438
      9          6           0       -3.251719   -0.806730   -0.468074
     10          6           0       -4.138247    0.382539   -0.102820
     11          6           0       -3.418318    1.697468   -0.415310
     12          6           0       -2.049271    1.715277    0.269626
     13          6           0       -1.221693    0.477676   -0.092759
     14          6           0        0.106386    0.480628    0.662854
     15          8           0        3.030737   -1.241016   -1.295359
     16          1           0        2.879601    2.198485    1.146503
     17          1           0        3.678651    3.152261   -0.107118
     18          1           0        4.589460    1.928418    0.787910
     19          1           0        2.251119    1.318998   -1.137088
     20          1           0        3.943518    1.162724   -1.562019
     21          1           0        4.279412   -0.566133    0.153715
     22          1           0        2.509570   -1.658719    1.291132
     23          1           0        2.339876    0.038362    1.741778
     24          1           0        0.744822   -2.785587    0.441712
     25          1           0       -0.061509   -1.949724    1.793667
     26          1           0       -0.944734   -2.024535   -1.140833
     27          1           0       -1.744625   -2.819470    0.234311
     28          1           0       -3.108517   -0.832471   -1.568796
     29          1           0       -3.741431   -1.747333   -0.189282
     30          1           0       -5.086325    0.315291   -0.649751
     31          1           0       -4.371141    0.334344    0.968534
     32          1           0       -3.283266    1.788154   -1.502568
     33          1           0       -4.019093    2.557503   -0.096629
     34          1           0       -1.487141    2.615842   -0.007371
     35          1           0       -2.185422    1.735718    1.359000
     36          1           0       -0.989794    0.510083   -1.178306
     37          1           0       -0.102839    0.542114    1.747783
     38          1           0        0.670459    1.374096    0.382766
     39          1           0        2.058237   -1.207700   -1.394522
 ---------------------------------------------------------------------

 SCF Done:  E(UB3LYP) =  -656.690679231     A.U. after   31 cycles

 The electronic state is 2-A.
 Alpha  occ. eigenvalues --  -19.01987 -14.22395 -14.21412 -10.12479 -10.10692
 Alpha  occ. eigenvalues --  -10.10611 -10.10466 -10.10384 -10.10189 -10.09828
 Alpha  occ. eigenvalues --  -10.07156 -10.07137 -10.07108 -10.06995 -10.06703
 Alpha  occ. eigenvalues --   -0.92839  -0.86201  -0.82218  -0.71334  -0.69348
 Alpha  occ. eigenvalues --   -0.68097  -0.65295  -0.62427  -0.57405  -0.55382
 Alpha  occ. eigenvalues --   -0.53749  -0.53134  -0.49063  -0.46990  -0.46513
 Alpha  occ. eigenvalues --   -0.41157  -0.40490  -0.39746  -0.38698  -0.37558
 Alpha  occ. eigenvalues --   -0.36440  -0.36102  -0.34999  -0.34297  -0.33289
 Alpha  occ. eigenvalues --   -0.32421  -0.31761  -0.31029  -0.29788  -0.29042
 Alpha  occ. eigenvalues --   -0.28379  -0.27746  -0.27239  -0.25829  -0.25652
 Alpha  occ. eigenvalues --   -0.25285  -0.24692  -0.23620  -0.23257  -0.22100
 Alpha  occ. eigenvalues --   -0.21200  -0.17985  -0.14140  -0.13402   0.04321
 Alpha virt. eigenvalues --    0.05771   0.06417   0.07223   0.07593   0.07915
 Alpha virt. eigenvalues --    0.08651   0.09285   0.09664   0.09754   0.10133
 Alpha virt. eigenvalues --    0.10939   0.11238   0.11331   0.12236   0.12462

  Beta  occ. eigenvalues --  -19.01986 -14.22389 -14.21401 -10.12473 -10.10684
  Beta  occ. eigenvalues --  -10.10609 -10.10455 -10.10373 -10.10177 -10.09814
  Beta  occ. eigenvalues --  -10.07147 -10.07120 -10.07090 -10.06975 -10.06664
  Beta  occ. eigenvalues --   -0.92833  -0.86184  -0.82201  -0.71306  -0.69325
  Beta  occ. eigenvalues --   -0.68069  -0.65268  -0.62394  -0.57365  -0.55348
  Beta  occ. eigenvalues --   -0.53703  -0.53089  -0.49025  -0.46952  -0.46468
  Beta  occ. eigenvalues --   -0.41118  -0.40472  -0.39717  -0.38679  -0.37534
  Beta  occ. eigenvalues --   -0.36417  -0.36069  -0.34967  -0.34274  -0.33263
  Beta  occ. eigenvalues --   -0.32390  -0.31728  -0.30993  -0.29757  -0.29008
  Beta  occ. eigenvalues --   -0.28348  -0.27710  -0.27218  -0.25793  -0.25626
  Beta  occ. eigenvalues --   -0.25255  -0.24672  -0.23589  -0.23233  -0.22062
  Beta  occ. eigenvalues --   -0.21172  -0.17975  -0.14101  -0.13348
  Beta virt. eigenvalues --    0.06345   0.06753   0.07081   0.07460   0.08244
  Beta virt. eigenvalues --    0.08422   0.08981   0.09564   0.09840   0.10246
  Beta virt. eigenvalues --    0.10596   0.11121   0.11531   0.11671   0.12503

 Mulliken charges and spin densities:
               1          2
     1  C    0.898382  -1.515121
     2  C   -0.295521   0.375722
     3  C   -0.350029  -0.123822
     4  C    0.055449  -0.334872
     5  N    0.097387   0.097067
     6  C   -0.376641   0.025093
     7  C    0.428763  -0.517424
     8  N    0.127305   0.134151
     9  C    0.233361  -0.339103
    10  C    0.660233  -1.175206
    11  C   -0.709789   0.378963
    12  C    0.249338  -0.396107
    13  C   -0.065718  -0.259172
    14  C   -0.647944  -0.228915
    15  O   -0.169256   0.000141
    16  H   -0.466134   0.595386
    17  H   -0.241132   0.386746
    18  H   -0.315949   0.455430
    19  H   -0.109073   0.252839
    20  H   -0.069058   0.256070
    21  H   -0.079636   0.266029
    22  H    0.034357   0.151511
    23  H    0.081087   0.057102
    24  H    0.001201   0.188702
    25  H    0.076946   0.056191
    26  H    0.088320  -0.000658
    27  H   -0.174921   0.346667
    28  H    0.053052   0.054766
    29  H   -0.200826   0.359484
    30  H   -0.497262   0.676208
    31  H    0.078732   0.052551
    32  H    0.071610   0.041968
    33  H   -0.462936   0.645368
    34  H   -0.367210   0.533836
    35  H    0.024385   0.111048
    36  H    0.111833   0.035435
    37  H   -0.091184   0.256397
    38  H    1.013634  -0.866389
    39  H    0.304846  -0.034083
 Sum of Mulliken charges =  -1.00000   1.00000

 Dipole moment (field-independent basis, Debye):
    X=              0.8665    Y=             -3.5753    Z=             -0.2326  Tot=              3.6861
 Quadrupole moment (field-independent basis, Debye-Ang):
   XX=           -201.5831   YY=           -151.7041   ZZ=           -127.7858
   XY=             -4.9244   XZ=             -0.6807   YZ=             -2.3277

 Summary of Natural Population Analysis:

                                       Natural Population
                Natural  -----------------------------------------------
    Atom  No    Charge         Core      Valence    Rydberg      Total
 -----------------------------------------------------------------------
      C    1   -0.28929      0.99966     2.28426    0.00537     3.28929
      C    2   -0.20363      0.99962     2.19439    0.00962     3.20363
      C    3    0.06009      0.99955     1.92490    0.01546     2.93991
      C    4   -0.09346      0.99959     2.08323    0.01064     3.09346
      N    5   -0.29699      0.99970     2.78451    0.01277     3.79699
      C    6   -0.08439      0.99961     2.07389    0.01090     3.08439
      C    7   -0.08605      0.99961     2.07489    0.01155     3.08605
      N    8   -0.28210      0.99968     2.77153    0.01089     3.78210
      C    9   -0.08132      0.99961     2.07002    0.01168     3.08132
      C   10   -0.19321      0.99962     2.18450    0.00908     3.19321
      C   11   -0.18762      0.99963     2.17961    0.00839     3.18762
      C   12   -0.19241      0.99960     2.18293    0.00987     3.19241
      C   13   -0.00728      0.99957     1.99544    0.01227     3.00728
      C   14   -0.08329      0.99958     2.07224    0.01148     3.08329
      O   15   -0.37803      0.99990     3.37171    0.00642     4.37803
      H   16    0.09650      0.00000     0.40209    0.00141     0.40350
      H   17    0.10262      0.00000     0.39617    0.00120     0.39738
      H   18    0.09714      0.00000     0.40136    0.00150     0.40286
      H   19    0.09526      0.00000     0.40323    0.00151     0.40474
      H   20    0.10065      0.00000     0.39820    0.00115     0.39935
      H   21    0.08427      0.00000     0.41454    0.00119     0.41573
      H   22    0.09783      0.00000     0.40104    0.00112     0.40217
      H   23    0.09479      0.00000     0.40404    0.00117     0.40521
      H   24    0.09875      0.00000     0.40026    0.00099     0.40125
      H   25    0.08463      0.00000     0.41388    0.00149     0.41537
      H   26    0.08047      0.00000     0.41795    0.00158     0.41953
      H   27    0.09887      0.00000     0.39996    0.00117     0.40113
      H   28    0.07753      0.00000     0.42095    0.00151     0.42247
      H   29    0.09759      0.00000     0.40096    0.00145     0.40241
      H   30    0.10105      0.00000     0.39746    0.00149     0.39895
      H   31    0.09684      0.00000     0.40159    0.00157     0.40316
      H   32    0.09289      0.00000     0.40581    0.00131     0.40711
      H   33    0.10139      0.00000     0.39725    0.00135     0.39861
      H   34    0.10217      0.00000     0.39680    0.00103     0.39783
      H   35    0.09794      0.00000     0.40045    0.00162     0.40206
      H   36    0.08054      0.00000     0.41711    0.00235     0.41946
      H   37    0.08503      0.00000     0.41317    0.00180     0.41497
      H   38    0.10173      0.00000     0.39654    0.00172     0.39827
      H   39    0.23251      0.00000     0.26414    0.00335     0.26749
 =======================================================================
   * Total *    0.00000     14.99455    43.81300    0.19245    59.00000

 Normal termination of Gaussian 16 at Thu Dec 10 18:45:37 2020.
