 Gaussian 16, Revision A.03,

 -----------------------------------------------------------
 # opt freq B3LYP/6-31G(d) empiricaldispersion=gd3bj scf=xqc
 -----------------------------------------------------------

 ------------------------------
 CID_12446959_JID_9795_neutraal
 ------------------------------
 Symbolic Z-matrix:
 Charge =  0 Multiplicity = 1

 SCF Done:  E(RB3LYP) =  -822.808057973     A.U. after   15 cycles
 SCF Done:  E(RB3LYP) =  -822.814658105     A.U. after   13 cycles
 SCF Done:  E(RB3LYP) =  -822.815714819     A.U. after   14 cycles
 SCF Done:  E(RB3LYP) =  -822.815830585     A.U. after   11 cycles
 SCF Done:  E(RB3LYP) =  -822.815985387     A.U. after   11 cycles
 SCF Done:  E(RB3LYP) =  -822.816052732     A.U. after   11 cycles
 SCF Done:  E(RB3LYP) =  -822.816103652     A.U. after   11 cycles
 SCF Done:  E(RB3LYP) =  -822.816116501     A.U. after   10 cycles
 SCF Done:  E(RB3LYP) =  -822.816125839     A.U. after   10 cycles
 SCF Done:  E(RB3LYP) =  -822.816129548     A.U. after    9 cycles
 SCF Done:  E(RB3LYP) =  -822.816130485     A.U. after    8 cycles
 SCF Done:  E(RB3LYP) =  -822.816132510     A.U. after    9 cycles
 SCF Done:  E(RB3LYP) =  -822.816134211     A.U. after   10 cycles
 SCF Done:  E(RB3LYP) =  -822.816134684     A.U. after    8 cycles
 SCF Done:  E(RB3LYP) =  -822.816134716     A.U. after    7 cycles
 Optimization completed.
    -- Stationary point found.
 Normal termination of Gaussian 16 at Sat Dec 12 10:05:29 2020.

 --------------------------------------------------------------------
 #N Geom=AllCheck Guess=TCheck SCRF=Check GenChk RB3LYP/6-31G(d) Freq
 --------------------------------------------------------------------

 Structure from the checkpoint file:  "JID_9795.chk"
 ------------------------------
 CID_12446959_JID_9795_neutraal
 ------------------------------
 Charge =  0 Multiplicity = 1

 SCF Done:  E(RB3LYP) =  -822.816134716     A.U. after    1 cycles

  Exact polarizability: 276.988   7.057 163.639  -1.767  10.208 101.692
 Approx polarizability: 405.204  -3.166 287.476  -2.591  23.635 176.052

                      1                      2                      3
                      A                      A                      A
 Frequencies --     30.9481                44.4437                76.5434
 Red. masses --      5.0479                 4.3956                 4.9647
 Frc consts  --      0.0028                 0.0051                 0.0171
 IR Inten    --      0.5488                 0.7387                 0.5815

                      4                      5                      6
                      A                      A                      A
 Frequencies --     93.9645               132.3493               153.1869
 Red. masses --      4.7656                 4.6058                 3.2172
 Frc consts  --      0.0248                 0.0475                 0.0445
 IR Inten    --      2.8830                 0.8071                 2.3203

                      7                      8                      9
                      A                      A                      A
 Frequencies --    163.5052               179.8327               221.2936
 Red. masses --      1.1924                 1.2689                 5.1375
 Frc consts  --      0.0188                 0.0242                 0.1482
 IR Inten    --     64.4133                22.3818                 1.7787

                     10                     11                     12
                      A                      A                      A
 Frequencies --    239.6625               268.6543               290.7073
 Red. masses --      5.5263                 5.4886                 4.3072
 Frc consts  --      0.1870                 0.2334                 0.2145
 IR Inten    --      1.0781                 2.9909                 8.0019

                     13                     14                     15
                      A                      A                      A
 Frequencies --    348.6964               377.5513               394.4841
 Red. masses --      4.8084                 6.2459                 2.2879
 Frc consts  --      0.3445                 0.5246                 0.2098
 IR Inten    --      2.1133                 7.6929                11.6542

                     16                     17                     18
                      A                      A                      A
 Frequencies --    422.0756               427.8392               441.8014
 Red. masses --      3.0206                 5.7099                 6.0005
 Frc consts  --      0.3171                 0.6158                 0.6901
 IR Inten    --      0.3397                 0.9358                 0.6164

                     19                     20                     21
                      A                      A                      A
 Frequencies --    456.3141               495.1975               511.6498
 Red. masses --      3.9024                 8.6655                 4.5259
 Frc consts  --      0.4787                 1.2520                 0.6981
 IR Inten    --      0.3445                 0.5711                 2.8763

                     22                     23                     24
                      A                      A                      A
 Frequencies --    530.2085               559.5572               628.4217
 Red. masses --      3.7869                 6.5149                 4.7735
 Frc consts  --      0.6272                 1.2018                 1.1107
 IR Inten    --      8.2894                 2.6936                 2.1941

                     25                     26                     27
                      A                      A                      A
 Frequencies --    637.6337               654.7733               679.6626
 Red. masses --      5.7861                 6.3180                 5.3204
 Frc consts  --      1.3860                 1.5959                 1.4480
 IR Inten    --      1.8370                23.6620                 4.1751

                     28                     29                     30
                      A                      A                      A
 Frequencies --    691.8410               704.4347               712.5074
 Red. masses --      5.6680                 4.0572                 1.7750
 Frc consts  --      1.5984                 1.1862                 0.5309
 IR Inten    --      0.4769                21.5092                23.1833

                     31                     32                     33
                      A                      A                      A
 Frequencies --    775.6099               782.0044               799.3844
 Red. masses --      2.1135                 2.2880                 2.1951
 Frc consts  --      0.7491                 0.8244                 0.8264
 IR Inten    --     24.9533                31.7264                 6.8225

                     34                     35                     36
                      A                      A                      A
 Frequencies --    836.6898               850.8861               879.3777
 Red. masses --      3.9746                 1.2541                 4.0154
 Frc consts  --      1.6393                 0.5350                 1.8295
 IR Inten    --      2.0277                 0.2767                 1.9591

                     37                     38                     39
                      A                      A                      A
 Frequencies --    897.2299               929.7380               964.5309
 Red. masses --      1.4270                 1.5301                 1.3442
 Frc consts  --      0.6768                 0.7793                 0.7368
 IR Inten    --      0.5770                 2.4005                 0.1441

                     40                     41                     42
                      A                      A                      A
 Frequencies --    976.8158               982.7224               993.8928
 Red. masses --      1.3506                 4.5162                 1.2697
 Frc consts  --      0.7593                 2.5697                 0.7389
 IR Inten    --      1.5345                31.9586                 0.6875

                     43                     44                     45
                      A                      A                      A
 Frequencies --   1001.2235              1025.8608              1044.9220
 Red. masses --      1.2790                 6.2180                 2.4919
 Frc consts  --      0.7554                 3.8555                 1.6030
 IR Inten    --      0.0094                 2.8550                 2.7666

                     46                     47                     48
                      A                      A                      A
 Frequencies --   1060.9574              1064.1537              1071.0455
 Red. masses --      1.9383                 2.0458                 1.4350
 Frc consts  --      1.2855                 1.3650                 0.9699
 IR Inten    --      7.7246                 4.5904                 1.3260

                     49                     50                     51
                      A                      A                      A
 Frequencies --   1109.3280              1122.1075              1146.5556
 Red. masses --      1.5397                 2.2926                 3.4731
 Frc consts  --      1.1164                 1.7008                 2.6901
 IR Inten    --      4.5486                25.4135                35.7351

                     52                     53                     54
                      A                      A                      A
 Frequencies --   1185.8997              1193.9320              1197.2362
 Red. masses --      1.2799                 1.1000                 1.9311
 Frc consts  --      1.0605                 0.9239                 1.6308
 IR Inten    --      0.1285                 0.0019                60.6382

                     55                     56                     57
                      A                      A                      A
 Frequencies --   1207.0823              1236.4722              1253.0488
 Red. masses --      1.2084                 1.7562                 2.4798
 Frc consts  --      1.0373                 1.5819                 2.2941
 IR Inten    --      3.1183                98.0506                29.3461

                     58                     59                     60
                      A                      A                      A
 Frequencies --   1294.0654              1320.9356              1345.2562
 Red. masses --      2.4531                 2.0986                 2.3240
 Frc consts  --      2.4203                 2.1574                 2.4780
 IR Inten    --      1.4235                 0.9777                 7.0183

                     61                     62                     63
                      A                      A                      A
 Frequencies --   1362.5823              1366.2886              1384.3388
 Red. masses --      2.3713                 6.4694                 9.1768
 Frc consts  --      2.5940                 7.1153                10.3616
 IR Inten    --     31.8955               187.4473                33.8596

                     64                     65                     66
                      A                      A                      A
 Frequencies --   1433.0234              1461.2625              1496.0920
 Red. masses --      1.6976                 1.7085                 2.1631
 Frc consts  --      2.0540                 2.1495                 2.8526
 IR Inten    --     11.7074                26.5826                 0.9974

                     67                     68                     69
                      A                      A                      A
 Frequencies --   1502.0218              1515.5308              1524.3060
 Red. masses --      2.2932                 1.1591                 1.1012
 Frc consts  --      3.0482                 1.5685                 1.5075
 IR Inten    --      4.2143                 4.4180                12.8643

                     70                     71                     72
                      A                      A                      A
 Frequencies --   1543.6774              1547.6958              1615.4204
 Red. masses --      2.8982                 2.3461                 6.2339
 Frc consts  --      4.0690                 3.3110                 9.5848
 IR Inten    --     33.5014                34.1910                19.4842

                     73                     74                     75
                      A                      A                      A
 Frequencies --   1650.9010              1660.7961              1665.6716
 Red. masses --      5.9821                 5.8223                 5.9558
 Frc consts  --      9.6060                 9.4619                 9.7357
 IR Inten    --      3.1970                26.1955                57.6216

                     76                     77                     78
                      A                      A                      A
 Frequencies --   1691.8037              1756.1176              3050.6533
 Red. masses --      7.8759                12.1268                 1.0411
 Frc consts  --     13.2815                22.0346                 5.7088
 IR Inten    --    135.1326               244.8616                34.5871

                     79                     80                     81
                      A                      A                      A
 Frequencies --   3110.7622              3137.7362              3188.2961
 Red. masses --      1.0964                 1.1005                 1.0853
 Frc consts  --      6.2508                 6.3837                 6.4999
 IR Inten    --     17.1325                11.3666                 0.8853

                     82                     83                     84
                      A                      A                      A
 Frequencies --   3189.2161              3197.3952              3205.9993
 Red. masses --      1.0869                 1.0887                 1.0922
 Frc consts  --      6.5135                 6.5576                 6.6141
 IR Inten    --      8.7440                 6.9337                28.4507

                     85                     86                     87
                      A                      A                      A
 Frequencies --   3206.3444              3214.6032              3226.0873
 Red. masses --      1.0927                 1.0966                 1.0951
 Frc consts  --      6.6184                 6.6764                 6.7154
 IR Inten    --     25.0157                22.2671                 4.1289

                     88                     89                     90
                      A                      A                      A
 Frequencies --   3230.3754              3234.8956              3785.2659
 Red. masses --      1.0928                 1.0929                 1.0660
 Frc consts  --      6.7189                 6.7382                 8.9987
 IR Inten    --      5.8135                 7.8334                37.0548

 - Thermochemistry -
 -------------------
 Temperature   298.150 Kelvin.  Pressure   1.00000 Atm.
 Atom     1 has atomic number  6 and mass  12.00000

 Molecular mass:   251.09463 amu.
 Principal axes and moments of inertia in atomic units:
                           1         2         3
     Eigenvalues --  2165.622457048.774418629.70596
           X            0.99997   0.00750  -0.00078
           Y           -0.00749   0.99996   0.00576
           Z            0.00082  -0.00576   0.99998
 This molecule is an asymmetric top.
 Rotational symmetry number  1.
 Warning -- assumption of classical behavior for rotation
           may cause significant error
 Rotational temperatures (Kelvin)      0.03999     0.01229     0.01004
 Rotational constants (GHZ):           0.83336     0.25604     0.20913
 Zero-point vibrational energy     665565.5 (Joules/Mol)
                                  159.07398 (Kcal/Mol)
 Warning -- explicit consideration of  23 degrees of freedom as
           vibrations may cause significant error
 Vibrational temperatures:     44.53    63.94   110.13   135.19   190.42
          (Kelvin)            220.40   235.25   258.74   318.39   344.82
                              386.53   418.26   501.70   543.21   567.57
                              607.27   615.57   635.65   656.53   712.48
                              736.15   762.85   805.08   904.16   917.41
                              942.07   977.88   995.40  1013.52  1025.14
                             1115.93  1125.13  1150.14  1203.81  1224.24
                             1265.23  1290.91  1337.69  1387.74  1405.42
                             1413.92  1429.99  1440.54  1475.98  1503.41
                             1526.48  1531.08  1541.00  1596.08  1614.46
                             1649.64  1706.25  1717.80  1722.56  1736.72
                             1779.01  1802.86  1861.87  1900.53  1935.52
                             1960.45  1965.78  1991.75  2061.80  2102.43
                             2152.54  2161.07  2180.51  2193.14  2221.01
                             2226.79  2324.23  2375.28  2389.52  2396.53
                             2434.13  2526.66  4389.21  4475.69  4514.50
                             4587.25  4588.57  4600.34  4612.72  4613.21
                             4625.10  4641.62  4647.79  4654.29  5446.15

 Zero-point correction=                           0.253501 (Hartree/Particle)
 Thermal correction to Energy=                    0.269005
 Thermal correction to Enthalpy=                  0.269950
 Thermal correction to Gibbs Free Energy=         0.210263
 Sum of electronic and zero-point Energies=           -822.562634
 Sum of electronic and thermal Energies=              -822.547129
 Sum of electronic and thermal Enthalpies=            -822.546185
 Sum of electronic and thermal Free Energies=         -822.605872

                     E (Thermal)             CV                S
                      KCal/Mol        Cal/Mol-Kelvin    Cal/Mol-Kelvin
 Total                  168.803             61.376            125.621
 Electronic               0.000              0.000              0.000
 Translational            0.889              2.981             42.462
 Rotational               0.889              2.981             33.243
 Vibrational            167.026             55.415             49.916
 Vibration     1          0.594              1.984              5.768
 Vibration     2          0.595              1.980              5.050
 Vibration     3          0.599              1.965              3.978
 Vibration     4          0.603              1.954              3.576
 Vibration     5          0.612              1.921              2.912
 Vibration     6          0.619              1.899              2.632
 Vibration     7          0.623              1.887              2.509
 Vibration     8          0.629              1.867              2.330
 Vibration     9          0.648              1.809              1.948
 Vibration    10          0.657              1.780              1.805
 Vibration    11          0.673              1.731              1.605
 Vibration    12          0.687              1.691              1.470
 Vibration    13          0.726              1.578              1.172
 Vibration    14          0.748              1.518              1.049
 Vibration    15          0.761              1.482              0.983
 Vibration    16          0.784              1.422              0.885
 Vibration    17          0.789              1.410              0.866
 Vibration    18          0.802              1.379              0.821
 Vibration    19          0.815              1.347              0.777
 Vibration    20          0.851              1.261              0.670
 Vibration    21          0.867              1.224              0.630
 Vibration    22          0.885              1.183              0.587
 Vibration    23          0.915              1.119              0.525

 Optimization completed.
    -- Stationary point found.
 Normal termination of Gaussian 16 at Sat Dec 12 10:20:32 2020.

 ----------------------------------------------------------------------
 # B3LYP/6-311++G(d,p) empiricaldispersion=gd3bj scf=xqc pop=npa geom=c
 heck
 ----------------------------------------------------------------------

 --------------------------------------
 CID_12446959_JID_9795_Energie_neutraal
 --------------------------------------
 Structure from the checkpoint file:  "JID_9795.chk"
 Charge =  0 Multiplicity = 1

 SCF Done:  E(RB3LYP) =  -823.037541698     A.U. after   17 cycles
 Normal termination of Gaussian 16 at Sat Dec 12 10:27:25 2020.

 ----------------------------------------------------------------------
 # B3LYP/6-311++G(d,p) empiricaldispersion=gd3bj scf=xqc pop=npa geom=c
 heck
 ----------------------------------------------------------------------

 ------------------------------------
 CID_12446959_JID_9795_Energie_kation
 ------------------------------------
 Structure from the checkpoint file:  "JID_9795.chk"
 Charge =  1 Multiplicity = 2

 SCF Done:  E(UB3LYP) =  -822.773189642     A.U. after   24 cycles
 Normal termination of Gaussian 16 at Sat Dec 12 10:41:05 2020.
 Gaussian 16:  ES64L-G16RevA.03 25-Dec-2016

 ----------------------------------------------------------------------
 # B3LYP/6-311++G(d,p) empiricaldispersion=gd3bj scf=xqc pop=npa geom=c
 heck
 ----------------------------------------------------------------------

 -----------------------------------
 CID_12446959_JID_9795_Energie_anion
 -----------------------------------
 Structure from the checkpoint file:  "JID_9795.chk"
 Charge = -1 Multiplicity = 2

                         Standard orientation:
 ---------------------------------------------------------------------
 Center     Atomic      Atomic             Coordinates (Angstroms)
 Number     Number       Type             X           Y           Z
 ---------------------------------------------------------------------
      1          6           0        0.984885    2.478818   -0.370758
      2          6           0        0.012104    1.352836   -0.153823
      3          6           0       -1.332672    1.549418   -0.080961
      4          6           0       -2.245532    0.439764    0.005936
      5          6           0       -3.642466    0.615824    0.064928
      6          6           0       -4.478499   -0.487537    0.129275
      7          6           0       -3.949330   -1.789167    0.140409
      8          6           0       -2.577091   -1.975212    0.087180
      9          6           0       -1.716434   -0.869579    0.017931
     10          6           0       -0.267082   -1.110987   -0.016090
     11          8           0        0.245053   -2.226562    0.017627
     12          7           0        0.528000    0.046798   -0.070549
     13          6           0        1.950965   -0.149308    0.003539
     14          6           0        2.636538    0.217278    1.161248
     15          6           0        4.020137    0.053555    1.227730
     16          6           0        4.712017   -0.488021    0.144020
     17          6           0        4.017269   -0.868939   -1.006134
     18          6           0        2.636085   -0.699988   -1.079570
     19          8           0       -1.920322    2.796923   -0.149491
     20          1           0        1.769308    2.182326   -1.072373
     21          1           0        1.487807    2.796731    0.550831
     22          1           0        0.471417    3.343595   -0.801726
     23          1           0       -4.045739    1.621543    0.057184
     24          1           0       -5.554491   -0.342618    0.173395
     25          1           0       -4.614619   -2.645857    0.193098
     26          1           0       -2.131401   -2.963800    0.099116
     27          1           0        2.081545    0.620341    2.002934
     28          1           0        4.554084    0.341322    2.128671
     29          1           0        5.788883   -0.619070    0.197005
     30          1           0        4.551506   -1.299648   -1.847855
     31          1           0        2.081205   -0.997788   -1.962391
     32          1           0       -1.298707    3.459918    0.181698
 ---------------------------------------------------------------------

 SCF Done:  E(UB3LYP) =  -823.037314977     A.U. after   33 cycles
 SCF Done:  E(UB3LYP) =  -823.037314977     a.u. after    1 cycles

 The electronic state is 2-A.
 Alpha  occ. eigenvalues --  -19.03183 -18.94777 -14.23457 -10.13384 -10.10414
 Alpha  occ. eigenvalues --  -10.10172 -10.09503 -10.07625 -10.07543 -10.07195
 Alpha  occ. eigenvalues --  -10.07131 -10.06994 -10.06877 -10.05604 -10.05072
 Alpha  occ. eigenvalues --  -10.05061 -10.04890 -10.04875 -10.04425  -0.94051
 Alpha  occ. eigenvalues --   -0.90793  -0.83384  -0.75356  -0.73614  -0.67657
 Alpha  occ. eigenvalues --   -0.65239  -0.64788  -0.63762  -0.62514  -0.57519
 Alpha  occ. eigenvalues --   -0.53537  -0.51370  -0.50375  -0.48772  -0.47098
 Alpha  occ. eigenvalues --   -0.44411  -0.43288  -0.40652  -0.38230  -0.37152
 Alpha  occ. eigenvalues --   -0.36619  -0.34272  -0.33271  -0.32722  -0.32246
 Alpha  occ. eigenvalues --   -0.31931  -0.31149  -0.30880  -0.29694  -0.29412
 Alpha  occ. eigenvalues --   -0.28301  -0.28050  -0.26527  -0.26166  -0.25523
 Alpha  occ. eigenvalues --   -0.24933  -0.23605  -0.22548  -0.22374  -0.19027
 Alpha  occ. eigenvalues --   -0.15769  -0.15735  -0.14450  -0.13507  -0.12804
 Alpha  occ. eigenvalues --   -0.07653   0.04330
 Alpha virt. eigenvalues --    0.06383   0.06911   0.08227   0.08347   0.08386
 Alpha virt. eigenvalues --    0.08500   0.08935   0.09527   0.09936   0.10405
 Alpha virt. eigenvalues --    0.11046   0.11824   0.12384   0.12846   0.13278

  Beta  occ. eigenvalues --  -19.03143 -18.94676 -14.23361 -10.13297 -10.10468
  Beta  occ. eigenvalues --  -10.10094 -10.09380 -10.07626 -10.07543 -10.07099
  Beta  occ. eigenvalues --  -10.07095 -10.06955 -10.06859 -10.05448 -10.05134
  Beta  occ. eigenvalues --  -10.05044 -10.04855 -10.04680 -10.04277  -0.93961
  Beta  occ. eigenvalues --   -0.90577  -0.83155  -0.75217  -0.73391  -0.67459
  Beta  occ. eigenvalues --   -0.65033  -0.64657  -0.63562  -0.62290  -0.57414
  Beta  occ. eigenvalues --   -0.53214  -0.51300  -0.50265  -0.48543  -0.46990
  Beta  occ. eigenvalues --   -0.44256  -0.43199  -0.40572  -0.38084  -0.36996
  Beta  occ. eigenvalues --   -0.36441  -0.34193  -0.33131  -0.32619  -0.32141
  Beta  occ. eigenvalues --   -0.31801  -0.31038  -0.30828  -0.29506  -0.29117
  Beta  occ. eigenvalues --   -0.28176  -0.27871  -0.26266  -0.26073  -0.25371
  Beta  occ. eigenvalues --   -0.24783  -0.23157  -0.22407  -0.22290  -0.18536
  Beta  occ. eigenvalues --   -0.15531  -0.15172  -0.13812  -0.12735  -0.12642
  Beta  occ. eigenvalues --   -0.07117
  Beta virt. eigenvalues --    0.06547   0.07509   0.08008   0.08260   0.08385
  Beta virt. eigenvalues --    0.08548   0.08875   0.09566   0.09772   0.10060
  Beta virt. eigenvalues --    0.10591   0.11070   0.11935   0.12532   0.12794

 Mulliken charges and spin densities:
               1          2
     1  C    0.549462  -1.435086
     2  C   -1.172510   1.968418
     3  C   -0.027185  -0.568904
     4  C    1.186473  -0.719132
     5  C   -0.376215   0.085903
     6  C   -0.413350   0.099368
     7  C   -0.453053  -0.036429
     8  C   -0.425920   0.072244
     9  C    0.723981  -0.165385
    10  C   -0.301269  -0.036285
    11  O   -0.310163   0.037740
    12  N    0.674104   0.013746
    13  C   -1.400707   0.249840
    14  C    0.093357   0.191303
    15  C   -0.075312  -0.210186
    16  C   -0.186715  -0.056468
    17  C   -0.049247  -0.000406
    18  C    0.617076   0.082482
    19  O   -0.271513  -0.025725
    20  H    0.106205   0.065604
    21  H    0.064112   0.099265
    22  H   -0.220715   0.349759
    23  H    0.128172   0.046644
    24  H    0.106612  -0.005080
    25  H    0.119876  -0.002425
    26  H    0.155146   0.014833
    27  H    0.036436   0.137631
    28  H    0.051371   0.107026
    29  H    0.070087   0.047482
    30  H    0.122672   0.029730
    31  H    0.131726   0.026786
    32  H   -0.252994   0.535704
 Sum of Mulliken charges =  -1.00000   1.00000

 Dipole moment (field-independent basis, Debye):
    X=              2.4984    Y=             -0.2514    Z=             -0.4346  Tot=              2.5484
 Quadrupole moment (field-independent basis, Debye-Ang):
   XX=           -153.0271   YY=           -153.2469   ZZ=           -122.1608
   XY=              5.4914   XZ=             -1.5411   YZ=              2.9461

 Summary of Natural Population Analysis:

                                       Natural Population
                Natural  -----------------------------------------------
    Atom  No    Charge         Core      Valence    Rydberg      Total
 -----------------------------------------------------------------------
      C    1   -0.30793      0.99964     2.30215    0.00614     3.30793
      C    2    0.09301      0.99945     1.89706    0.01048     2.90699
      C    3    0.11721      0.99926     1.87077    0.01275     2.88279
      C    4   -0.00197      0.99947     1.99331    0.00919     3.00197
      C    5   -0.11573      0.99954     2.10696    0.00923     3.11573
      C    6   -0.06274      0.99958     2.05425    0.00891     3.06274
      C    7   -0.11554      0.99958     2.10665    0.00932     3.11554
      C    8   -0.07080      0.99954     2.06238    0.00887     3.07080
      C    9   -0.04247      0.99946     2.03459    0.00842     3.04247
      C   10    0.34608      0.99959     1.63296    0.02137     2.65392
      O   11   -0.32356      0.99988     3.31836    0.00531     4.32356
      N   12   -0.22797      0.99959     2.71845    0.00994     3.72797
      C   13    0.09881      0.99947     1.88748    0.01424     2.90119
      C   14   -0.09930      0.99950     2.08935    0.01045     3.09930
      C   15   -0.10563      0.99957     2.09676    0.00930     3.10563
      C   16   -0.09336      0.99957     2.08369    0.01010     3.09336
      C   17   -0.10604      0.99957     2.09654    0.00994     3.10604
      C   18   -0.08589      0.99950     2.07758    0.00881     3.08589
      O   19   -0.35271      0.99988     3.34600    0.00683     4.35271
      H   20    0.11271      0.00000     0.38638    0.00091     0.38729
      H   21    0.10535      0.00000     0.39353    0.00112     0.39465
      H   22    0.10446      0.00000     0.39417    0.00137     0.39554
      H   23    0.10616      0.00000     0.39277    0.00108     0.39384
      H   24    0.08982      0.00000     0.40929    0.00089     0.41018
      H   25    0.09194      0.00000     0.40706    0.00100     0.40806
      H   26    0.10810      0.00000     0.39085    0.00105     0.39190
      H   27    0.10422      0.00000     0.39482    0.00096     0.39578
      H   28    0.09748      0.00000     0.40170    0.00083     0.40252
      H   29    0.09517      0.00000     0.40403    0.00080     0.40483
      H   30    0.09677      0.00000     0.40241    0.00082     0.40323
      H   31    0.10643      0.00000     0.39257    0.00099     0.39357
      H   32    0.23795      0.00000     0.25604    0.00601     0.26205
 =======================================================================
   * Total *   -0.00000     18.99163    46.80093    0.20744    66.00000

 Normal termination of Gaussian 16 at Sat Dec 12 11:00:30 2020.
