 Gaussian 16, Revision A.03,

 -----------------------------------------------------------
 # opt freq B3LYP/6-31G(d) empiricaldispersion=gd3bj scf=xqc
 -----------------------------------------------------------

 -------------------------------
 CID_145673186_JID_1389_neutraal
 -------------------------------
 Symbolic Z-matrix:
 Charge =  0 Multiplicity = 1

 SCF Done:  E(RB3LYP) =  -824.844099765     A.U. after   15 cycles
 SCF Done:  E(RB3LYP) =  -824.846778840     A.U. after   13 cycles
 SCF Done:  E(RB3LYP) =  -824.846922343     A.U. after   12 cycles
 SCF Done:  E(RB3LYP) =  -824.846981070     A.U. after   11 cycles
 SCF Done:  E(RB3LYP) =  -824.847150161     A.U. after   12 cycles
 SCF Done:  E(RB3LYP) =  -824.847155259     A.U. after   10 cycles
 SCF Done:  E(RB3LYP) =  -824.847157013     A.U. after    9 cycles
 SCF Done:  E(RB3LYP) =  -824.847157366     A.U. after    8 cycles
 SCF Done:  E(RB3LYP) =  -824.847157492     A.U. after    7 cycles
 Optimization completed.
    -- Stationary point found.
 Normal termination of Gaussian 16 at Tue Dec  8 19:54:34 2020.

 --------------------------------------------------------------------
 #N Geom=AllCheck Guess=TCheck SCRF=Check GenChk RB3LYP/6-31G(d) Freq
 --------------------------------------------------------------------

 Structure from the checkpoint file:  "JID_1389.chk"
 -------------------------------
 CID_145673186_JID_1389_neutraal
 -------------------------------
 Charge =  0 Multiplicity = 1

 SCF Done:  E(RB3LYP) =  -824.847157492     A.U. after    1 cycles

  Exact polarizability: 129.564 -11.439 113.080  -1.224   4.787  89.521
 Approx polarizability: 180.100 -37.558 178.742  -8.347  16.639 142.053

                      1                      2                      3
                      A                      A                      A
 Frequencies --     60.2312                64.4274               105.3476
 Red. masses --      5.1353                 3.8363                 4.2967
 Frc consts  --      0.0110                 0.0094                 0.0281
 IR Inten    --      3.0836                 0.3104                 2.3799

                      4                      5                      6
                      A                      A                      A
 Frequencies --    182.4285               214.8953               225.8200
 Red. masses --      3.3014                 2.9582                 1.1772
 Frc consts  --      0.0647                 0.0805                 0.0354
 IR Inten    --      0.3157                 3.1920                 0.5850

                      7                      8                      9
                      A                      A                      A
 Frequencies --    233.2815               255.1267               290.7805
 Red. masses --      1.3504                 1.3194                 1.3980
 Frc consts  --      0.0433                 0.0506                 0.0696
 IR Inten    --     15.7674                 7.5637                 3.1193

                     10                     11                     12
                      A                      A                      A
 Frequencies --    307.6271               336.6428               358.7005
 Red. masses --      2.1551                 2.3589                 2.7698
 Frc consts  --      0.1202                 0.1575                 0.2100
 IR Inten    --      2.2032                 0.1157                 2.8737

                     13                     14                     15
                      A                      A                      A
 Frequencies --    409.8126               464.2473               474.0823
 Red. masses --      2.0174                 3.6145                 4.6673
 Frc consts  --      0.1996                 0.4590                 0.6181
 IR Inten    --      0.2813                 0.4723                 1.7950

                     16                     17                     18
                      A                      A                      A
 Frequencies --    513.7191               528.9335               577.6509
 Red. masses --      3.0970                 3.4378                 2.6860
 Frc consts  --      0.4816                 0.5667                 0.5281
 IR Inten    --      2.5827                 9.0923                 3.2450

                     19                     20                     21
                      A                      A                      A
 Frequencies --    622.6036               693.1604               793.4967
 Red. masses --      3.8916                 3.6499                 1.7171
 Frc consts  --      0.8888                 1.0332                 0.6370
 IR Inten    --      2.4951                11.6169                 0.3714

                     22                     23                     24
                      A                      A                      A
 Frequencies --    818.3925               863.2881               891.8884
 Red. masses --      1.9827                 2.2065                 2.6763
 Frc consts  --      0.7824                 0.9689                 1.2543
 IR Inten    --      0.2517                 5.3977                 2.3336

                     25                     26                     27
                      A                      A                      A
 Frequencies --    906.6497               936.9131               939.9481
 Red. masses --      1.9777                 1.5779                 2.2617
 Frc consts  --      0.9579                 0.8161                 1.1773
 IR Inten    --      1.8656                 6.1075                 5.4176

                     28                     29                     30
                      A                      A                      A
 Frequencies --    963.6322               965.2514              1024.2398
 Red. masses --      1.4568                 1.8187                 1.9392
 Frc consts  --      0.7970                 0.9984                 1.1986
 IR Inten    --      0.4499                 0.1931                 6.4734

                     31                     32                     33
                      A                      A                      A
 Frequencies --   1027.0233              1052.4553              1151.0159
 Red. masses --      1.4550                 1.4138                 2.2440
 Frc consts  --      0.9042                 0.9226                 1.7516
 IR Inten    --      6.1406                 1.7255                 8.1982

                     34                     35                     36
                      A                      A                      A
 Frequencies --   1156.6348              1181.2036              1202.4154
 Red. masses --      1.5818                 1.5385                 1.0980
 Frc consts  --      1.2468                 1.2647                 0.9353
 IR Inten    --      6.7851                 6.7516                 5.7897

                     37                     38                     39
                      A                      A                      A
 Frequencies --   1225.0597              1273.0477              1294.1203
 Red. masses --      1.9743                 1.7577                 1.3089
 Frc consts  --      1.7457                 1.6784                 1.2915
 IR Inten    --      4.1280                64.2166                 6.4455

                     40                     41                     42
                      A                      A                      A
 Frequencies --   1303.3392              1318.9896              1340.2000
 Red. masses --      2.4996                 1.6812                 1.7881
 Frc consts  --      2.5017                 1.7233                 1.8922
 IR Inten    --     19.7802                19.1000                12.5941

                     43                     44                     45
                      A                      A                      A
 Frequencies --   1368.1454              1412.7835              1431.1329
 Red. masses --      1.7349                 2.2223                 1.2442
 Frc consts  --      1.9133                 2.6134                 1.5014
 IR Inten    --      7.7223                29.8382                 7.1691

                     46                     47                     48
                      A                      A                      A
 Frequencies --   1451.4208              1484.5800              1497.6403
 Red. masses --      1.2252                 1.0863                 1.0846
 Frc consts  --      1.5207                 1.4106                 1.4333
 IR Inten    --      4.6411                 2.9352                 2.3351

                     49                     50                     51
                      A                      A                      A
 Frequencies --   1502.8372              1516.7243              1523.0302
 Red. masses --      1.1036                 1.0455                 1.0597
 Frc consts  --      1.4685                 1.4170                 1.4482
 IR Inten    --      5.9827                 0.4698                 5.3636

                     52                     53                     54
                      A                      A                      A
 Frequencies --   1534.7384              1540.8390              1699.0208
 Red. masses --      1.0599                 1.0569                 7.2724
 Frc consts  --      1.4708                 1.4784                12.3687
 IR Inten    --      3.9032                 6.9589                37.7050

                     55                     56                     57
                      A                      A                      A
 Frequencies --   1776.9917              2683.3165              3004.7138
 Red. masses --     11.2026                 1.0385                 1.0696
 Frc consts  --     20.8419                 4.4058                 5.6897
 IR Inten    --    257.0300                12.9151                18.4526

                     58                     59                     60
                      A                      A                      A
 Frequencies --   3019.7078              3040.3859              3052.8786
 Red. masses --      1.0683                 1.0353                 1.0364
 Frc consts  --      5.7393                 5.6384                 5.6912
 IR Inten    --     16.2949                31.7326                13.8132

                     61                     62                     63
                      A                      A                      A
 Frequencies --   3077.4458              3079.7888              3105.1652
 Red. masses --      1.0645                 1.0866                 1.0957
 Frc consts  --      5.9397                 6.0724                 6.2248
 IR Inten    --     13.3995                 9.6765                 8.8736

                     64                     65                     66
                      A                      A                      A
 Frequencies --   3107.6707              3111.5711              3118.9755
 Red. masses --      1.1004                 1.1021                 1.1019
 Frc consts  --      6.2616                 6.2870                 6.3158
 IR Inten    --     24.2699                17.2526                44.6792

                     67                     68                     69
                      A                      A                      A
 Frequencies --   3127.7759              3139.3944              3186.5708
 Red. masses --      1.1012                 1.1052                 1.0912
 Frc consts  --      6.3473                 6.4179                 6.5285
 IR Inten    --     28.3797                 7.3172                 9.8614

 - Thermochemistry -
 -------------------
 Temperature   298.150 Kelvin.  Pressure   1.00000 Atm.
 Atom     1 has atomic number  6 and mass  12.00000

 Molecular mass:   170.07654 amu.
 Principal axes and moments of inertia in atomic units:
                           1         2         3
     Eigenvalues --  1413.946882678.237253464.76135
           X            0.99773   0.06727  -0.00381
           Y           -0.06729   0.99773  -0.00394
           Z            0.00354   0.00418   0.99998
 This molecule is an asymmetric top.
 Rotational symmetry number  1.
 Warning -- assumption of classical behavior for rotation
           may cause significant error
 Rotational temperatures (Kelvin)      0.06126     0.03234     0.02500
 Rotational constants (GHZ):           1.27639     0.67385     0.52088
 Zero-point vibrational energy     557124.7 (Joules/Mol)
                                  133.15599 (Kcal/Mol)
 Warning -- explicit consideration of  18 degrees of freedom as
           vibrations may cause significant error
 Vibrational temperatures:     86.66    92.70   151.57   262.47   309.19
          (Kelvin)            324.90   335.64   367.07   418.37   442.61
                              484.35   516.09   589.63   667.95   682.10
                              739.13   761.02   831.11   895.79   997.30
                             1141.66  1177.48  1242.08  1283.23  1304.47
                             1348.01  1352.38  1386.45  1388.78  1473.65
                             1477.66  1514.25  1656.06  1664.14  1699.49
                             1730.01  1762.59  1831.63  1861.95  1875.21
                             1897.73  1928.25  1968.46  2032.68  2059.08
                             2088.27  2135.98  2154.77  2162.25  2182.23
                             2191.30  2208.15  2216.92  2444.51  2556.69
                             3860.69  4323.11  4344.69  4374.44  4392.41
                             4427.76  4431.13  4467.64  4471.24  4476.86
                             4487.51  4500.17  4516.89  4584.76

 Zero-point correction=                           0.212198 (Hartree/Particle)
 Thermal correction to Energy=                    0.224039
 Thermal correction to Enthalpy=                  0.224983
 Thermal correction to Gibbs Free Energy=         0.174508
 Sum of electronic and zero-point Energies=           -824.634960
 Sum of electronic and thermal Energies=              -824.623119
 Sum of electronic and thermal Enthalpies=            -824.622175
 Sum of electronic and thermal Free Energies=         -824.672649

                     E (Thermal)             CV                S
                      KCal/Mol        Cal/Mol-Kelvin    Cal/Mol-Kelvin
 Total                  140.586             45.162            106.233
 Electronic               0.000              0.000              0.000
 Translational            0.889              2.981             41.301
 Rotational               0.889              2.981             30.951
 Vibrational            138.809             39.201             33.981
 Vibration     1          0.597              1.973              4.450
 Vibration     2          0.597              1.971              4.317
 Vibration     3          0.605              1.945              3.353
 Vibration     4          0.630              1.864              2.303
 Vibration     5          0.645              1.818              2.002
 Vibration     6          0.650              1.802              1.912
 Vibration     7          0.654              1.790              1.854
 Vibration     8          0.665              1.754              1.695
 Vibration     9          0.687              1.691              1.469
 Vibration    10          0.697              1.659              1.375
 Vibration    11          0.717              1.602              1.228
 Vibration    12          0.734              1.557              1.128
 Vibration    13          0.774              1.449              0.927
 Vibration    14          0.822              1.329              0.754
 Vibration    15          0.831              1.308              0.726
 Vibration    16          0.869              1.220              0.625
 Vibration    17          0.884              1.186              0.590
 Vibration    18          0.934              1.080              0.490

 Optimization completed.
    -- Stationary point found.
 Normal termination of Gaussian 16 at Tue Dec  8 20:00:03 2020.

 ----------------------------------------------------------------------
 # B3LYP/6-311++G(d,p) empiricaldispersion=gd3bj scf=xqc pop=npa geom=c
 heck
 ----------------------------------------------------------------------

 ---------------------------------------
 CID_145673186_JID_1389_Energie_neutraal
 ---------------------------------------
 Structure from the checkpoint file:  "JID_1389.chk"
 Charge =  0 Multiplicity = 1

 SCF Done:  E(RB3LYP) =  -824.997905747     A.U. after   15 cycles
 Normal termination of Gaussian 16 at Tue Dec  8 20:02:17 2020.

 ----------------------------------------------------------------------
 # B3LYP/6-311++G(d,p) empiricaldispersion=gd3bj scf=xqc pop=npa geom=c
 heck
 ----------------------------------------------------------------------

 -------------------------------------
 CID_145673186_JID_1389_Energie_kation
 -------------------------------------
 Structure from the checkpoint file:  "JID_1389.chk"
 Charge =  1 Multiplicity = 2

 SCF Done:  E(UB3LYP) =  -824.679640032     A.U. after   28 cycles
 Normal termination of Gaussian 16 at Tue Dec  8 20:07:31 2020.
 Gaussian 16:  ES64L-G16RevA.03 25-Dec-2016

 ----------------------------------------------------------------------
 # B3LYP/6-311++G(d,p) empiricaldispersion=gd3bj scf=xqc pop=npa geom=c
 heck
 ----------------------------------------------------------------------

 ------------------------------------
 CID_145673186_JID_1389_Energie_anion
 ------------------------------------
 Structure from the checkpoint file:  "JID_1389.chk"
 Charge = -1 Multiplicity = 2

                         Standard orientation:
 ---------------------------------------------------------------------
 Center     Atomic      Atomic             Coordinates (Angstroms)
 Number     Number       Type             X           Y           Z
 ---------------------------------------------------------------------
      1          6           0       -2.034535   -2.251453   -0.490278
      2          6           0       -1.275238   -1.008835   -0.007306
      3          6           0        0.032737   -0.861295   -0.813279
      4          6           0        0.723555    0.464443   -0.614740
      5          6           0        0.050792    1.564816   -0.225969
      6          6           0       -1.397928    1.552028    0.050057
      7          8           0       -1.977798    2.546403    0.463242
      8          6           0       -2.132357    0.251029   -0.242135
      9          6           0        2.202569    0.517278   -0.856853
     10         16           0        3.158430   -0.360572    0.466474
     11          6           0       -0.957656   -1.161064    1.490869
     12          1           0       -1.432457   -3.157037   -0.349045
     13          1           0       -2.968558   -2.379104    0.068836
     14          1           0       -2.286483   -2.175163   -1.554778
     15          1           0       -0.186833   -0.971573   -1.887500
     16          1           0        0.723114   -1.673589   -0.556894
     17          1           0        0.553524    2.518222   -0.080401
     18          1           0       -3.049957    0.234797    0.354658
     19          1           0       -2.438158    0.287123   -1.299369
     20          1           0        2.473158   -0.016548   -1.774431
     21          1           0        2.561628    1.545323   -0.940355
     22          1           0        2.705159    0.396746    1.488038
     23          1           0       -1.882377   -1.249574    2.072069
     24          1           0       -0.356885   -2.059933    1.669089
     25          1           0       -0.398991   -0.303453    1.878352
 ---------------------------------------------------------------------

 SCF Done:  E(UB3LYP) =  -825.004892555     A.U. after   29 cycles

 The electronic state is 2-A.
 Alpha  occ. eigenvalues --  -88.70856 -18.90958 -10.06813 -10.05911 -10.05628
 Alpha  occ. eigenvalues --  -10.04813 -10.03519 -10.03477 -10.02560 -10.01124
 Alpha  occ. eigenvalues --   -9.99262  -7.79582  -5.75950  -5.75604  -5.74980
 Alpha  occ. eigenvalues --   -0.85013  -0.71450  -0.67127  -0.61369  -0.57839
 Alpha  occ. eigenvalues --   -0.56828  -0.54907  -0.51485  -0.42792  -0.41631
 Alpha  occ. eigenvalues --   -0.35963  -0.33981  -0.33832  -0.31146  -0.30770
 Alpha  occ. eigenvalues --   -0.29637  -0.28510  -0.27122  -0.26429  -0.25042
 Alpha  occ. eigenvalues --   -0.24603  -0.24008  -0.23103  -0.21894  -0.21058
 Alpha  occ. eigenvalues --   -0.19294  -0.18682  -0.18159  -0.11623  -0.10411
 Alpha  occ. eigenvalues --   -0.07147   0.05189
 Alpha virt. eigenvalues --    0.08124   0.09321   0.09772   0.10935   0.11276
 Alpha virt. eigenvalues --    0.11479   0.12201   0.12979   0.13226   0.13983
 Alpha virt. eigenvalues --    0.14459   0.14975   0.15409   0.15595   0.17228

  Beta  occ. eigenvalues --  -88.70798 -18.90415 -10.06813 -10.05895 -10.05358
  Beta  occ. eigenvalues --  -10.04814 -10.03520 -10.03513 -10.02584 -10.00610
  Beta  occ. eigenvalues --   -9.99177  -7.79519  -5.75872  -5.75515  -5.74934
  Beta  occ. eigenvalues --   -0.84049  -0.71224  -0.66714  -0.60976  -0.57556
  Beta  occ. eigenvalues --   -0.56800  -0.54741  -0.51175  -0.42617  -0.40823
  Beta  occ. eigenvalues --   -0.35712  -0.33843  -0.33715  -0.30964  -0.30499
  Beta  occ. eigenvalues --   -0.29256  -0.28374  -0.26861  -0.26160  -0.24818
  Beta  occ. eigenvalues --   -0.24278  -0.23573  -0.22992  -0.21362  -0.20699
  Beta  occ. eigenvalues --   -0.19055  -0.18000  -0.17101  -0.11305  -0.08299
  Beta  occ. eigenvalues --   -0.06663
  Beta virt. eigenvalues --    0.08007   0.09182   0.09775   0.10771   0.11200
  Beta virt. eigenvalues --    0.11412   0.11716   0.12441   0.12954   0.13320
  Beta virt. eigenvalues --    0.14364   0.14471   0.15106   0.15350   0.15556

 Mulliken charges and spin densities:
               1          2
     1  C   -0.456746  -0.059026
     2  C    1.114818  -0.037912
     3  C   -0.927274  -0.016932
     4  C    0.504841   0.556495
     5  C    0.086320  -0.036328
     6  C   -0.516349   0.194828
     7  O   -0.405242   0.183157
     8  C   -0.346389  -0.010847
     9  C   -0.757452  -0.017504
    10  S    0.129059  -0.238264
    11  C   -0.821523   0.006033
    12  H    0.112838   0.005931
    13  H    0.126081  -0.001467
    14  H    0.108038   0.015500
    15  H    0.042718   0.136137
    16  H    0.100147  -0.002764
    17  H    0.126495  -0.000962
    18  H    0.147220   0.008456
    19  H    0.135714  -0.000478
    20  H    0.016151   0.151809
    21  H    0.149813   0.048272
    22  H   -0.091592   0.110947
    23  H    0.111953   0.004355
    24  H    0.102647   0.010840
    25  H    0.207715  -0.010278
 Sum of Mulliken charges =  -1.00000   1.00000

 Dipole moment (field-independent basis, Debye):
    X=             -0.3848    Y=             -4.5897    Z=             -1.0328  Tot=              4.7202
 Quadrupole moment (field-independent basis, Debye-Ang):
   XX=           -118.0514   YY=           -105.2002   ZZ=            -86.3843
   XY=             15.7494   XZ=             -0.0525   YZ=             -2.2995

 Summary of Natural Population Analysis:

                                       Natural Population
                Natural  -----------------------------------------------
    Atom  No    Charge         Core      Valence    Rydberg      Total
 -----------------------------------------------------------------------
      C    1   -0.27937      0.99963     2.27422    0.00552     3.27937
      C    2   -0.04121      0.99959     2.03235    0.00927     3.04121
      C    3   -0.20815      0.99957     2.19779    0.01079     3.20815
      C    4    0.08703      0.99949     1.90156    0.01192     2.91297
      C    5   -0.14164      0.99942     2.13290    0.00932     3.14164
      C    6    0.29113      0.99963     1.68830    0.02094     2.70887
      O    7   -0.25998      0.99988     3.25256    0.00755     4.25998
      C    8   -0.22960      0.99957     2.21901    0.01102     3.22960
      C    9   -0.24190      0.99953     2.23144    0.01092     3.24190
      S   10   -0.03000      4.99967     3.01371    0.01661     8.03000
      C   11   -0.28470      0.99963     2.27926    0.00580     3.28470
      H   12    0.09418      0.00000     0.40482    0.00099     0.40582
      H   13    0.09424      0.00000     0.40488    0.00088     0.40576
      H   14    0.09617      0.00000     0.40287    0.00096     0.40383
      H   15    0.10242      0.00000     0.39642    0.00116     0.39758
      H   16    0.10246      0.00000     0.39602    0.00152     0.39754
      H   17    0.09180      0.00000     0.40597    0.00223     0.40820
      H   18    0.10031      0.00000     0.39806    0.00163     0.39969
      H   19    0.10238      0.00000     0.39673    0.00089     0.39762
      H   20    0.10112      0.00000     0.39714    0.00174     0.39888
      H   21    0.10044      0.00000     0.39829    0.00127     0.39956
      H   22    0.05649      0.00000     0.44027    0.00324     0.44351
      H   23    0.09228      0.00000     0.40689    0.00083     0.40772
      H   24    0.09399      0.00000     0.40508    0.00093     0.40601
      H   25    0.11012      0.00000     0.38890    0.00098     0.38988
 =======================================================================
   * Total *    0.00000     14.99562    30.86546    0.13892    46.00000

 Normal termination of Gaussian 16 at Tue Dec  8 20:13:24 2020.
