 Gaussian 16, Revision A.03,

 -----------------------------------------------------------
 # opt freq B3LYP/6-31G(d) empiricaldispersion=gd3bj scf=xqc
 -----------------------------------------------------------

 -------------------------------
 CID_110696075_JID_2463_neutraal
 -------------------------------
 Symbolic Z-matrix:
 Charge =  0 Multiplicity = 1

 SCF Done:  E(RB3LYP) =  -895.045501868     A.U. after   15 cycles
 SCF Done:  E(RB3LYP) =  -895.050986257     A.U. after   13 cycles
 SCF Done:  E(RB3LYP) =  -895.051560507     A.U. after   12 cycles
 SCF Done:  E(RB3LYP) =  -895.051666242     A.U. after   11 cycles
 SCF Done:  E(RB3LYP) =  -895.051707562     A.U. after   11 cycles
 SCF Done:  E(RB3LYP) =  -895.051744622     A.U. after   11 cycles
 SCF Done:  E(RB3LYP) =  -895.051785143     A.U. after   10 cycles
 SCF Done:  E(RB3LYP) =  -895.051837378     A.U. after   12 cycles
 SCF Done:  E(RB3LYP) =  -895.051995090     A.U. after   11 cycles
 SCF Done:  E(RB3LYP) =  -895.027650979     A.U. after   14 cycles
 SCF Done:  E(RB3LYP) =  -895.055346471     A.U. after   11 cycles
 SCF Done:  E(RB3LYP) =  -895.055354806     A.U. after   11 cycles
 SCF Done:  E(RB3LYP) =  -895.055355688     A.U. after    9 cycles
 SCF Done:  E(RB3LYP) =  -895.055356329     A.U. after    9 cycles
 SCF Done:  E(RB3LYP) =  -895.055356476     A.U. after    7 cycles
 SCF Done:  E(RB3LYP) =  -895.055356612     A.U. after    8 cycles
 Optimization completed.
    -- Stationary point found.
 Normal termination of Gaussian 16 at Wed Dec  9 17:30:47 2020.

 --------------------------------------------------------------------
 #N Geom=AllCheck Guess=TCheck SCRF=Check GenChk RB3LYP/6-31G(d) Freq
 --------------------------------------------------------------------

 Structure from the checkpoint file:  "JID_2463.chk"
 -------------------------------
 CID_110696075_JID_2463_neutraal
 -------------------------------
 Charge =  0 Multiplicity = 1

 SCF Done:  E(RB3LYP) =  -895.055356612     A.U. after    1 cycles

  Exact polarizability: 140.972  -0.346 125.823  11.488  -8.877  76.290
 Approx polarizability: 206.094  -5.981 216.180  25.898 -26.614 116.834

                      1                      2                      3
                      A                      A                      A
 Frequencies --     25.2552                49.7297                82.8721
 Red. masses --      5.0649                 3.4047                 4.8796
 Frc consts  --      0.0019                 0.0050                 0.0197
 IR Inten    --      1.0686                 0.2255                 1.2317

                      4                      5                      6
                      A                      A                      A
 Frequencies --    116.0535               119.8638               152.5062
 Red. masses --      1.7387                 1.1892                 3.4143
 Frc consts  --      0.0138                 0.0101                 0.0468
 IR Inten    --      0.4820                 0.2422                 5.2412

                      7                      8                      9
                      A                      A                      A
 Frequencies --    163.0985               242.1047               255.6993
 Red. masses --      5.1675                 1.4739                 2.8267
 Frc consts  --      0.0810                 0.0509                 0.1089
 IR Inten    --      3.5318                 0.6461                 0.2818

                     10                     11                     12
                      A                      A                      A
 Frequencies --    257.2959               317.9897               331.3489
 Red. masses --      3.8999                 3.4924                 2.3469
 Frc consts  --      0.1521                 0.2081                 0.1518
 IR Inten    --      0.8480                 6.2647                 7.3745

                     13                     14                     15
                      A                      A                      A
 Frequencies --    416.6279               462.1999               487.1152
 Red. masses --      4.8810                 2.1709                 4.3950
 Frc consts  --      0.4992                 0.2732                 0.6144
 IR Inten    --      0.3143                 0.4511                 1.0893

                     16                     17                     18
                      A                      A                      A
 Frequencies --    519.8076               564.5473               621.6939
 Red. masses --      5.2358                 6.6232                 1.6268
 Frc consts  --      0.8335                 1.2437                 0.3704
 IR Inten    --      5.9285                 1.1020                63.0932

                     19                     20                     21
                      A                      A                      A
 Frequencies --    625.6566               655.3266               741.5751
 Red. masses --      3.7965                 3.2828                 7.4471
 Frc consts  --      0.8756                 0.8306                 2.4129
 IR Inten    --     32.5978                27.5342                 6.9562

                     22                     23                     24
                      A                      A                      A
 Frequencies --    746.9542               775.0793               799.7118
 Red. masses --      5.1473                 1.3218                 1.2956
 Frc consts  --      1.6921                 0.4679                 0.4882
 IR Inten    --     18.6804                36.9858                13.2266

                     25                     26                     27
                      A                      A                      A
 Frequencies --    860.5845               873.6186               919.9264
 Red. masses --      2.6230                 3.9068                 1.4015
 Frc consts  --      1.1445                 1.7568                 0.6988
 IR Inten    --      8.4887                13.8017                 7.3606

                     28                     29                     30
                      A                      A                      A
 Frequencies --    974.0840              1012.6335              1027.3145
 Red. masses --      3.9000                 2.6896                 1.4534
 Frc consts  --      2.1803                 1.6250                 0.9038
 IR Inten    --      6.7604                40.4422                 1.8050

                     31                     32                     33
                      A                      A                      A
 Frequencies --   1063.7021              1079.7079              1110.5225
 Red. masses --      2.3470                 1.5005                 2.1719
 Frc consts  --      1.5646                 1.0306                 1.5781
 IR Inten    --     48.1187                 3.2054                22.1859

                     34                     35                     36
                      A                      A                      A
 Frequencies --   1142.7091              1192.4733              1196.1808
 Red. masses --      2.3156                 1.6927                 2.3282
 Frc consts  --      1.7815                 1.4182                 1.9628
 IR Inten    --     36.4764                 5.9583                20.3984

                     37                     38                     39
                      A                      A                      A
 Frequencies --   1305.2167              1317.1334              1351.3278
 Red. masses --      1.3241                 1.2269                 4.4846
 Frc consts  --      1.3290                 1.2541                 4.8250
 IR Inten    --     16.2023                 4.8076                 4.7151

                     40                     41                     42
                      A                      A                      A
 Frequencies --   1386.1667              1408.1370              1432.6543
 Red. masses --      1.7119                 1.4284                 1.5875
 Frc consts  --      1.9380                 1.6688                 1.9198
 IR Inten    --     65.3076                 7.6280                28.7139

                     43                     44                     45
                      A                      A                      A
 Frequencies --   1441.0888              1450.4659              1501.7896
 Red. masses --      1.2594                 1.3874                 1.3781
 Frc consts  --      1.5409                 1.7198                 1.8312
 IR Inten    --      2.9004                15.1556                34.7872

                     46                     47                     48
                      A                      A                      A
 Frequencies --   1506.8274              1510.9819              1518.1099
 Red. masses --      1.0442                 1.3993                 1.1036
 Frc consts  --      1.3968                 1.8823                 1.4986
 IR Inten    --      6.7528                 6.7096                 7.0204

                     49                     50                     51
                      A                      A                      A
 Frequencies --   1521.4370              1531.0873              1532.4184
 Red. masses --      1.3214                 1.8268                 1.4532
 Frc consts  --      1.8022                 2.5231                 2.0106
 IR Inten    --     23.5289                62.9253                99.0991

                     52                     53                     54
                      A                      A                      A
 Frequencies --   1539.6827              1584.6062              1746.0405
 Red. masses --      1.0600                 4.7570                 7.3605
 Frc consts  --      1.4805                 7.0376                13.2210
 IR Inten    --      7.0530                45.1234               281.4980

                     55                     56                     57
                      A                      A                      A
 Frequencies --   3029.3760              3054.5786              3056.8021
 Red. masses --      1.0620                 1.0368                 1.0366
 Frc consts  --      5.7420                 5.6994                 5.7071
 IR Inten    --     34.6934                22.5059                30.8889

                     58                     59                     60
                      A                      A                      A
 Frequencies --   3059.5624              3067.0287              3110.5977
 Red. masses --      1.0771                 1.0956                 1.1015
 Frc consts  --      5.9408                 6.0723                 6.2792
 IR Inten    --     40.3215                46.2701                14.7159

                     61                     62                     63
                      A                      A                      A
 Frequencies --   3121.5325              3131.2025              3141.4542
 Red. masses --      1.1021                 1.1028                 1.1018
 Frc consts  --      6.3273                 6.3705                 6.4061
 IR Inten    --     42.8014                29.5844                14.1458

                     64                     65                     66
                      A                      A                      A
 Frequencies --   3180.2050              3270.9324              3576.5200
 Red. masses --      1.0931                 1.0944                 1.0750
 Frc consts  --      6.5135                 6.8985                 8.1020
 IR Inten    --      4.2896                 1.0533                28.6065

 - Thermochemistry -
 -------------------
 Temperature   298.150 Kelvin.  Pressure   1.00000 Atm.
 Atom     1 has atomic number  6 and mass  12.00000

 Molecular mass:   184.06703 amu.
 Principal axes and moments of inertia in atomic units:
                           1         2         3
     Eigenvalues --  1648.557542843.211403942.52866
           X            0.99990   0.01100  -0.00901
           Y           -0.01095   0.99992   0.00636
           Z            0.00908  -0.00626   0.99994
 This molecule is an asymmetric top.
 Rotational symmetry number  1.
 Warning -- assumption of classical behavior for rotation
           may cause significant error
 Rotational temperatures (Kelvin)      0.05254     0.03046     0.02197
 Rotational constants (GHZ):           1.09474     0.63475     0.45776
 Zero-point vibrational energy     516598.6 (Joules/Mol)
                                  123.47002 (Kcal/Mol)
 Warning -- explicit consideration of  17 degrees of freedom as
           vibrations may cause significant error
 Vibrational temperatures:     36.34    71.55   119.23   166.98   172.46
          (Kelvin)            219.42   234.66   348.33   367.89   370.19
                              457.52   476.74   599.43   665.00   700.85
                              747.89   812.26   894.48   900.18   942.87
                             1066.96  1074.70  1115.17  1150.61  1238.19
                             1256.94  1323.57  1401.49  1456.95  1478.08
                             1530.43  1553.46  1597.79  1644.10  1715.70
                             1721.04  1877.92  1895.06  1944.26  1994.38
                             2026.00  2061.27  2073.41  2086.90  2160.74
                             2167.99  2173.97  2184.22  2189.01  2202.89
                             2204.81  2215.26  2279.89  2512.16  4358.60
                             4394.86  4398.06  4402.03  4412.77  4475.46
                             4491.19  4505.10  4519.85  4575.61  4706.14
                             5145.81

 Zero-point correction=                           0.196762 (Hartree/Particle)
 Thermal correction to Energy=                    0.209457
 Thermal correction to Enthalpy=                  0.210401
 Thermal correction to Gibbs Free Energy=         0.156362
 Sum of electronic and zero-point Energies=           -894.858595
 Sum of electronic and thermal Energies=              -894.845900
 Sum of electronic and thermal Enthalpies=            -894.844955
 Sum of electronic and thermal Free Energies=         -894.898995

                     E (Thermal)             CV                S
                      KCal/Mol        Cal/Mol-Kelvin    Cal/Mol-Kelvin
 Total                  131.436             45.927            113.735
 Electronic               0.000              0.000              0.000
 Translational            0.889              2.981             41.537
 Rotational               0.889              2.981             31.292
 Vibrational            129.659             39.966             40.907
 Vibration     1          0.593              1.985              6.171
 Vibration     2          0.595              1.978              4.828
 Vibration     3          0.600              1.961              3.822
 Vibration     4          0.608              1.936              3.165
 Vibration     5          0.609              1.933              3.103
 Vibration     6          0.619              1.900              2.641
 Vibration     7          0.623              1.888              2.514
 Vibration     8          0.658              1.776              1.787
 Vibration     9          0.666              1.753              1.691
 Vibration    10          0.667              1.750              1.680
 Vibration    11          0.704              1.639              1.320
 Vibration    12          0.714              1.613              1.253
 Vibration    13          0.780              1.434              0.903
 Vibration    14          0.820              1.334              0.760
 Vibration    15          0.843              1.279              0.691
 Vibration    16          0.875              1.206              0.610
 Vibration    17          0.920              1.108              0.515

 Optimization completed.
    -- Stationary point found.
 Normal termination of Gaussian 16 at Wed Dec  9 17:36:09 2020.

 ----------------------------------------------------------------------
 # B3LYP/6-311++G(d,p) empiricaldispersion=gd3bj scf=xqc pop=npa geom=c
 heck
 ----------------------------------------------------------------------

 ---------------------------------------
 CID_110696075_JID_2463_Energie_neutraal
 ---------------------------------------
 Structure from the checkpoint file:  "JID_2463.chk"
 Charge =  0 Multiplicity = 1

 SCF Done:  E(RB3LYP) =  -895.222452059     A.U. after   15 cycles
 Normal termination of Gaussian 16 at Wed Dec  9 17:38:31 2020.

 ----------------------------------------------------------------------
 # B3LYP/6-311++G(d,p) empiricaldispersion=gd3bj scf=xqc pop=npa geom=c
 heck
 ----------------------------------------------------------------------

 -------------------------------------
 CID_110696075_JID_2463_Energie_kation
 -------------------------------------
 Structure from the checkpoint file:  "JID_2463.chk"
 Charge =  1 Multiplicity = 2

 SCF Done:  E(UB3LYP) =  -894.901346063     A.U. after   30 cycles
 Normal termination of Gaussian 16 at Wed Dec  9 17:45:58 2020.
 Gaussian 16:  ES64L-G16RevA.03 25-Dec-2016

 ----------------------------------------------------------------------
 # B3LYP/6-311++G(d,p) empiricaldispersion=gd3bj scf=xqc pop=npa geom=c
 heck
 ----------------------------------------------------------------------

 ------------------------------------
 CID_110696075_JID_2463_Energie_anion
 ------------------------------------
 Structure from the checkpoint file:  "JID_2463.chk"
 Charge = -1 Multiplicity = 2

                         Standard orientation:
 ---------------------------------------------------------------------
 Center     Atomic      Atomic             Coordinates (Angstroms)
 Number     Number       Type             X           Y           Z
 ---------------------------------------------------------------------
      1          6           0       -2.220734    1.274649    1.506862
      2          6           0       -3.072856    1.172876    0.240361
      3          6           0       -2.333228    0.539270   -0.946734
      4          7           0       -1.951229   -0.850560   -0.705211
      5          6           0       -0.782166   -1.398567   -0.275089
      6          8           0       -0.696866   -2.593332    0.013082
      7          6           0        0.450180   -0.560233   -0.163528
      8          7           0        0.629294    0.706418   -0.426159
      9          6           0        1.927698    1.099104   -0.187517
     10          6           0        2.742244    0.093048    0.268658
     11         16           0        1.880561   -1.396513    0.408668
     12          6           0        2.321570    2.524359   -0.431425
     13          1           0       -1.904853    0.283957    1.851209
     14          1           0       -2.782920    1.745607    2.320369
     15          1           0       -1.316622    1.864481    1.324758
     16          1           0       -3.985011    0.595980    0.448665
     17          1           0       -3.404460    2.172775   -0.070422
     18          1           0       -2.976294    0.550516   -1.834906
     19          1           0       -1.430483    1.102525   -1.176323
     20          1           0       -2.699173   -1.535153   -0.690073
     21          1           0        3.790924    0.161937    0.523767
     22          1           0        2.151168    2.800622   -1.478144
     23          1           0        1.723327    3.203503    0.186733
     24          1           0        3.377649    2.686063   -0.198922
 ---------------------------------------------------------------------

 SCF Done:  E(UB3LYP) =  -895.228233605     A.U. after   31 cycles

 The electronic state is 2-A.
 Alpha  occ. eigenvalues --  -88.70666 -18.91820 -14.18507 -14.14049 -10.10324
 Alpha  occ. eigenvalues --  -10.07222 -10.05739 -10.05223 -10.05214 -10.04949
 Alpha  occ. eigenvalues --  -10.03823 -10.03337  -7.79329  -5.75609  -5.75254
 Alpha  occ. eigenvalues --   -5.74972  -0.87641  -0.80032  -0.77380  -0.65542
 Alpha  occ. eigenvalues --   -0.63423  -0.63406  -0.56641  -0.54834  -0.48214
 Alpha  occ. eigenvalues --   -0.47328  -0.41459  -0.40037  -0.35819  -0.34547
 Alpha  occ. eigenvalues --   -0.32815  -0.32133  -0.30435  -0.30021  -0.27408
 Alpha  occ. eigenvalues --   -0.27346  -0.26580  -0.25044  -0.24392  -0.23900
 Alpha  occ. eigenvalues --   -0.22893  -0.22275  -0.21552  -0.20256  -0.13163
 Alpha  occ. eigenvalues --   -0.12177  -0.10967  -0.10084  -0.09043   0.05171
 Alpha virt. eigenvalues --    0.07537   0.08474   0.09423   0.10034   0.10804
 Alpha virt. eigenvalues --    0.11463   0.12362   0.12779   0.13686   0.14718
 Alpha virt. eigenvalues --    0.15013   0.15516   0.16237   0.16759   0.17220

  Beta  occ. eigenvalues --  -88.70590 -18.91547 -14.18445 -14.13722 -10.10120
  Beta  occ. eigenvalues --  -10.07227 -10.05844 -10.05191 -10.04942 -10.04883
  Beta  occ. eigenvalues --  -10.03817 -10.03066  -7.79261  -5.75576  -5.75223
  Beta  occ. eigenvalues --   -5.74718  -0.87157  -0.79528  -0.77172  -0.65485
  Beta  occ. eigenvalues --   -0.63280  -0.62898  -0.56516  -0.54382  -0.47908
  Beta  occ. eigenvalues --   -0.47015  -0.41192  -0.39732  -0.35703  -0.34305
  Beta  occ. eigenvalues --   -0.32710  -0.32028  -0.30301  -0.29877  -0.27247
  Beta  occ. eigenvalues --   -0.27096  -0.25669  -0.24838  -0.24052  -0.23506
  Beta  occ. eigenvalues --   -0.22782  -0.22190  -0.20646  -0.19902  -0.11796
  Beta  occ. eigenvalues --   -0.11422  -0.10058  -0.09707  -0.07622
  Beta virt. eigenvalues --    0.07590   0.08405   0.09389   0.10077   0.10773
  Beta virt. eigenvalues --    0.11226   0.11523   0.12252   0.12724   0.13647
  Beta virt. eigenvalues --    0.14632   0.14975   0.15431   0.16257   0.16906

 Mulliken charges and spin densities:
               1          2
     1  C   -0.442052   0.010713
     2  C    0.202174  -0.493030
     3  C   -0.351336   0.112705
     4  N   -0.199075   0.018170
     5  C    0.334203   0.130678
     6  O   -0.424354   0.100880
     7  C   -0.115249   0.185956
     8  N    0.105359   0.159864
     9  C   -0.666574  -0.084766
    10  C    0.318075   0.227336
    11  S   -0.468801   0.135054
    12  C   -0.560761  -0.052467
    13  H    0.133752   0.029520
    14  H    0.026358   0.093633
    15  H    0.180321  -0.028458
    16  H    0.012033   0.088229
    17  H   -0.153234   0.259049
    18  H    0.049745   0.089748
    19  H    0.221097  -0.010414
    20  H    0.272153   0.005893
    21  H    0.174143  -0.008941
    22  H    0.134535  -0.001891
    23  H    0.098641   0.028967
    24  H    0.118846   0.003573
 Sum of Mulliken charges =  -1.00000   1.00000

 Dipole moment (field-independent basis, Debye):
    X=             -0.0845    Y=              3.8947    Z=             -0.2811  Tot=              3.9057
 Quadrupole moment (field-independent basis, Debye-Ang):
   XX=           -102.9107   YY=           -111.2185   ZZ=            -91.1355
   XY=              4.9616   XZ=              1.7924   YZ=              1.3502

 Summary of Natural Population Analysis:

                                       Natural Population
                Natural  -----------------------------------------------
    Atom  No    Charge         Core      Valence    Rydberg      Total
 -----------------------------------------------------------------------
      C    1   -0.29069      0.99966     2.28576    0.00527     3.29069
      C    2   -0.19190      0.99964     2.18445    0.00781     3.19190
      C    3   -0.09728      0.99961     2.08493    0.01274     3.09728
      N    4   -0.31306      0.99967     2.80273    0.01067     3.81306
      C    5    0.34059      0.99959     1.63737    0.02246     2.65941
      O    6   -0.31274      0.99988     3.30750    0.00535     4.31274
      C    7    0.05116      0.99958     1.93225    0.01701     2.94884
      N    8   -0.21969      0.99962     2.70791    0.01217     3.71969
      C    9    0.02729      0.99951     1.95957    0.01362     2.97271
      C   10   -0.17185      0.99947     2.16252    0.00986     3.17185
      S   11    0.22056      4.99944     2.75724    0.02275     7.77944
      C   12   -0.28830      0.99963     2.28420    0.00447     3.28830
      H   13    0.10373      0.00000     0.39472    0.00155     0.39627
      H   14    0.08916      0.00000     0.40994    0.00090     0.41084
      H   15    0.10526      0.00000     0.39335    0.00138     0.39474
      H   16    0.08677      0.00000     0.41188    0.00135     0.41323
      H   17    0.09057      0.00000     0.40772    0.00171     0.40943
      H   18    0.08441      0.00000     0.41466    0.00093     0.41559
      H   19    0.12018      0.00000     0.37798    0.00185     0.37982
      H   20    0.18139      0.00000     0.31550    0.00312     0.31861
      H   21    0.09616      0.00000     0.40293    0.00091     0.40384
      H   22    0.09685      0.00000     0.40154    0.00161     0.40315
      H   23    0.09710      0.00000     0.40126    0.00165     0.40290
      H   24    0.09434      0.00000     0.40486    0.00080     0.40566
 =======================================================================
   * Total *    0.00000     15.99531    32.84276    0.16193    49.00000

 Normal termination of Gaussian 16 at Wed Dec  9 17:53:21 2020.
