 Gaussian 16, Revision A.03,

 -----------------------------------------------------------
 # opt freq B3LYP/6-31G(d) empiricaldispersion=gd3bj scf=xqc
 -----------------------------------------------------------

 -------------------------------
 CID_142560298_JID_1773_neutraal
 -------------------------------
 Symbolic Z-matrix:
 Charge =  0 Multiplicity = 1

 SCF Done:  E(RB3LYP) =  -483.131077498     A.U. after   14 cycles
 SCF Done:  E(RB3LYP) =  -483.134891750     A.U. after   12 cycles
 SCF Done:  E(RB3LYP) =  -483.135437831     A.U. after   12 cycles
 SCF Done:  E(RB3LYP) =  -483.136046835     A.U. after   12 cycles
 SCF Done:  E(RB3LYP) =  -483.136025237     A.U. after   14 cycles
 SCF Done:  E(RB3LYP) =  -483.137598944     A.U. after   12 cycles
 SCF Done:  E(RB3LYP) =  -483.137305809     A.U. after   15 cycles
 SCF Done:  E(RB3LYP) =  -483.141140977     A.U. after   13 cycles
 SCF Done:  E(RB3LYP) =  -483.142344962     A.U. after   12 cycles
 SCF Done:  E(RB3LYP) =  -483.143276195     A.U. after   12 cycles
 SCF Done:  E(RB3LYP) =  -483.144139582     A.U. after   11 cycles
 SCF Done:  E(RB3LYP) =  -483.144156640     A.U. after   10 cycles
 SCF Done:  E(RB3LYP) =  -483.144159355     A.U. after    8 cycles
 SCF Done:  E(RB3LYP) =  -483.144159570     A.U. after    7 cycles
 SCF Done:  E(RB3LYP) =  -483.144159837     A.U. after    7 cycles
 Optimization completed.
    -- Stationary point found.
 Normal termination of Gaussian 16 at Tue Dec  8 21:14:06 2020.

 --------------------------------------------------------------------
 #N Geom=AllCheck Guess=TCheck SCRF=Check GenChk RB3LYP/6-31G(d) Freq
 --------------------------------------------------------------------

 Structure from the checkpoint file:  "JID_1773.chk"
 -------------------------------
 CID_142560298_JID_1773_neutraal
 -------------------------------
 Charge =  0 Multiplicity = 1

 SCF Done:  E(RB3LYP) =  -483.144159837     A.U. after    1 cycles

  Exact polarizability: 116.216   9.142  96.747  -1.524  -3.475  98.114
 Approx polarizability: 155.271  22.655 144.472  -5.868  -7.893 147.644

                      1                      2                      3
                      A                      A                      A
 Frequencies --     59.2681                68.1162               124.5374
 Red. masses --      3.1204                 3.5359                 2.5020
 Frc consts  --      0.0065                 0.0097                 0.0229
 IR Inten    --      0.0376                 0.0635                 0.2208

                      4                      5                      6
                      A                      A                      A
 Frequencies --    145.6707               207.2321               217.4450
 Red. masses --      3.4943                 1.3656                 2.0796
 Frc consts  --      0.0437                 0.0346                 0.0579
 IR Inten    --      0.2263                 0.3484                 0.1623

                      7                      8                      9
                      A                      A                      A
 Frequencies --    228.4034               254.1481               262.4280
 Red. masses --      1.0865                 1.5532                 1.5947
 Frc consts  --      0.0334                 0.0591                 0.0647
 IR Inten    --      0.1777                 0.2211                 0.3116

                     10                     11                     12
                      A                      A                      A
 Frequencies --    274.8177               298.6305               312.0213
 Red. masses --      2.6232                 2.3615                 1.3817
 Frc consts  --      0.1167                 0.1241                 0.0793
 IR Inten    --      1.4066                 0.0391                 0.9440

                     13                     14                     15
                      A                      A                      A
 Frequencies --    334.2967               358.6412               364.9561
 Red. masses --      1.9183                 2.5856                 2.5538
 Frc consts  --      0.1263                 0.1959                 0.2004
 IR Inten    --      2.9696                10.2464                 0.9534

                     16                     17                     18
                      A                      A                      A
 Frequencies --    382.0347               411.8865               439.5778
 Red. masses --      3.5759                 1.6594                 2.0620
 Frc consts  --      0.3075                 0.1659                 0.2348
 IR Inten    --      5.2469                51.4863                36.0905

                     19                     20                     21
                      A                      A                      A
 Frequencies --    496.7962               561.4421               592.0124
 Red. masses --      2.3859                 2.7264                 2.7893
 Frc consts  --      0.3469                 0.5064                 0.5760
 IR Inten    --      6.7258                 5.4393                10.2798

                     22                     23                     24
                      A                      A                      A
 Frequencies --    678.4882               724.0884               743.9567
 Red. masses --      3.5771                 2.9769                 1.1399
 Frc consts  --      0.9702                 0.9196                 0.3717
 IR Inten    --      1.2299                 4.5752                 0.8664

                     25                     26                     27
                      A                      A                      A
 Frequencies --    806.3712               819.8525               924.7657
 Red. masses --      1.6727                 1.7294                 2.4619
 Frc consts  --      0.6408                 0.6849                 1.2405
 IR Inten    --      3.1190                 1.9883                17.9394

                     28                     29                     30
                      A                      A                      A
 Frequencies --    931.4965               956.1765               966.2832
 Red. masses --      1.3809                 1.9285                 2.6979
 Frc consts  --      0.7060                 1.0389                 1.4842
 IR Inten    --     33.4543                32.9078                88.2100

                     31                     32                     33
                      A                      A                      A
 Frequencies --    972.3117               991.2131              1038.4572
 Red. masses --      2.0075                 2.1096                 1.3067
 Frc consts  --      1.1182                 1.2212                 0.8302
 IR Inten    --     15.3117                 4.9520                 1.8529

                     34                     35                     36
                      A                      A                      A
 Frequencies --   1040.0079              1076.9768              1089.2397
 Red. masses --      1.3758                 1.7645                 1.5486
 Frc consts  --      0.8768                 1.2058                 1.0826
 IR Inten    --      1.7092                 5.9588                 0.5267

                     37                     38                     39
                      A                      A                      A
 Frequencies --   1104.0767              1171.1981              1189.6385
 Red. masses --      1.6927                 2.0836                 2.8876
 Frc consts  --      1.2157                 1.6840                 2.4078
 IR Inten    --      9.5407                24.6072                 0.9931

                     40                     41                     42
                      A                      A                      A
 Frequencies --   1202.6494              1274.5906              1307.2035
 Red. masses --      2.2214                 2.3041                 1.5088
 Frc consts  --      1.8930                 2.2054                 1.5190
 IR Inten    --     11.4208                 1.0331                 7.5345

                     43                     44                     45
                      A                      A                      A
 Frequencies --   1318.8650              1370.1336              1413.9878
 Red. masses --      2.1761                 1.4580                 1.4269
 Frc consts  --      2.2302                 1.6127                 1.6809
 IR Inten    --     15.6543                15.1635                43.1916

                     46                     47                     48
                      A                      A                      A
 Frequencies --   1423.7430              1431.3157              1438.4079
 Red. masses --      1.2100                 1.2131                 1.2425
 Frc consts  --      1.4450                 1.4642                 1.5146
 IR Inten    --      3.9999                 3.6615                 6.3523

                     49                     50                     51
                      A                      A                      A
 Frequencies --   1448.6296              1471.0369              1507.8430
 Red. masses --      1.2067                 1.2239                 1.0547
 Frc consts  --      1.4920                 1.5605                 1.4128
 IR Inten    --      2.6988                 1.8124                 2.9427

                     52                     53                     54
                      A                      A                      A
 Frequencies --   1513.5374              1514.8330              1519.3039
 Red. masses --      1.0543                 1.0488                 1.0614
 Frc consts  --      1.4229                 1.4180                 1.4435
 IR Inten    --      2.8197                 3.2737                 1.2775

                     55                     56                     57
                      A                      A                      A
 Frequencies --   1526.5753              1529.0924              1539.5247
 Red. masses --      1.0497                 1.0489                 1.0552
 Frc consts  --      1.4413                 1.4450                 1.4735
 IR Inten    --     14.2028                 3.0197                 6.0501

                     58                     59                     60
                      A                      A                      A
 Frequencies --   1542.6846              1546.5678              1721.9934
 Red. masses --      1.0590                 1.0568                 5.5895
 Frc consts  --      1.4849                 1.4892                 9.7652
 IR Inten    --      3.6012                 9.8707                 9.1768

                     61                     62                     63
                      A                      A                      A
 Frequencies --   1730.0897              3041.4754              3058.9296
 Red. masses --      6.4228                 1.0379                 1.0356
 Frc consts  --     11.3269                 5.6570                 5.7093
 IR Inten    --      4.2098                18.0252                 3.9163

                     64                     65                     66
                      A                      A                      A
 Frequencies --   3061.0736              3064.6408              3072.6740
 Red. masses --      1.0370                 1.0367                 1.0613
 Frc consts  --      5.7251                 5.7366                 5.9037
 IR Inten    --     44.3363                30.0804                 9.5225

                     67                     68                     69
                      A                      A                      A
 Frequencies --   3090.7013              3114.6808              3124.1804
 Red. masses --      1.0991                 1.1014                 1.1021
 Frc consts  --      6.1861                 6.2952                 6.3381
 IR Inten    --     21.3528                 4.8637                34.8083

                     70                     71                     72
                      A                      A                      A
 Frequencies --   3125.5714              3128.7737              3132.0727
 Red. masses --      1.1020                 1.1006                 1.1022
 Frc consts  --      6.3427                 6.3478                 6.3706
 IR Inten    --     17.3133                49.7041                20.5860

                     73                     74                     75
                      A                      A                      A
 Frequencies --   3135.7790              3155.4065              3160.0657
 Red. masses --      1.1017                 1.1015                 1.1010
 Frc consts  --      6.3827                 6.4616                 6.4776
 IR Inten    --     24.6506                18.2263                16.7054

                     76                     77                     78
                      A                      A                      A
 Frequencies --   3165.1255              3243.2298              3763.9908
 Red. masses --      1.0606                 1.1152                 1.0677
 Frc consts  --      6.2599                 6.9111                 8.9124
 IR Inten    --     10.0270                17.1198                65.3476

 - Thermochemistry -
 -------------------
 Temperature   298.150 Kelvin.  Pressure   1.00000 Atm.
 Atom     1 has atomic number  6 and mass  12.00000

 Molecular mass:   155.13101 amu.
 Principal axes and moments of inertia in atomic units:
                           1         2         3
     Eigenvalues --  1172.504292340.169122482.74734
           X            0.99976  -0.02129  -0.00515
           Y            0.02124   0.99973  -0.00968
           Z            0.00535   0.00957   0.99994
 This molecule is an asymmetric top.
 Rotational symmetry number  1.
 Warning -- assumption of classical behavior for rotation
           may cause significant error
 Rotational temperatures (Kelvin)      0.07387     0.03701     0.03489
 Rotational constants (GHZ):           1.53922     0.77120     0.72691
 Zero-point vibrational energy     655254.2 (Joules/Mol)
                                  156.60950 (Kcal/Mol)
 Warning -- explicit consideration of  21 degrees of freedom as
           vibrations may cause significant error
 Vibrational temperatures:     85.27    98.00   179.18   209.59   298.16
          (Kelvin)            312.85   328.62   365.66   377.58   395.40
                              429.66   448.93   480.98   516.00   525.09
                              549.66   592.61   632.45   714.78   807.79
                              851.77   976.19  1041.80  1070.39  1160.19
                             1179.58  1330.53  1340.22  1375.72  1390.27
                             1398.94  1426.13  1494.11  1496.34  1549.53
                             1567.17  1588.52  1685.09  1711.62  1730.34
                             1833.85  1880.77  1897.55  1971.32  2034.41
                             2048.45  2059.34  2069.55  2084.25  2116.49
                             2169.45  2177.64  2179.51  2185.94  2196.40
                             2200.02  2215.03  2219.58  2225.17  2477.56
                             2489.21  4376.00  4401.12  4404.20  4409.33
                             4420.89  4446.83  4481.33  4495.00  4497.00
                             4501.61  4506.35  4511.69  4539.93  4546.63
                             4553.91  4666.28  5415.54

 Zero-point correction=                           0.249573 (Hartree/Particle)
 Thermal correction to Energy=                    0.262786
 Thermal correction to Enthalpy=                  0.263731
 Thermal correction to Gibbs Free Energy=         0.211459
 Sum of electronic and zero-point Energies=           -482.894587
 Sum of electronic and thermal Energies=              -482.881373
 Sum of electronic and thermal Enthalpies=            -482.880429
 Sum of electronic and thermal Free Energies=         -482.932701

                     E (Thermal)             CV                S
                      KCal/Mol        Cal/Mol-Kelvin    Cal/Mol-Kelvin
 Total                  164.901             50.400            110.016
 Electronic               0.000              0.000              0.000
 Translational            0.889              2.981             41.027
 Rotational               0.889              2.981             30.300
 Vibrational            163.124             44.438             38.689
 Vibration     1          0.597              1.974              4.481
 Vibration     2          0.598              1.969              4.207
 Vibration     3          0.610              1.928              3.029
 Vibration     4          0.617              1.907              2.728
 Vibration     5          0.641              1.830              2.068
 Vibration     6          0.646              1.814              1.980
 Vibration     7          0.651              1.798              1.891
 Vibration     8          0.665              1.756              1.702
 Vibration     9          0.670              1.742              1.646
 Vibration    10          0.677              1.720              1.566
 Vibration    11          0.692              1.676              1.425
 Vibration    12          0.700              1.651              1.352
 Vibration    13          0.716              1.607              1.239
 Vibration    14          0.733              1.557              1.128
 Vibration    15          0.738              1.544              1.101
 Vibration    16          0.751              1.508              1.031
 Vibration    17          0.776              1.444              0.920
 Vibration    18          0.800              1.384              0.828
 Vibration    19          0.852              1.257              0.666
 Vibration    20          0.917              1.115              0.521
 Vibration    21          0.949              1.049              0.464

                           ! Non-Optimized Parameters !
 Normal termination of Gaussian 16 at Tue Dec  8 21:21:11 2020.

 ----------------------------------------------------------------------
 # B3LYP/6-311++G(d,p) empiricaldispersion=gd3bj scf=xqc pop=npa geom=c
 heck
 ----------------------------------------------------------------------

 ---------------------------------------
 CID_142560298_JID_1773_Energie_neutraal
 ---------------------------------------
 Structure from the checkpoint file:  "JID_1773.chk"
 Charge =  0 Multiplicity = 1

 SCF Done:  E(RB3LYP) =  -483.289564818     A.U. after   14 cycles
 Normal termination of Gaussian 16 at Tue Dec  8 21:24:46 2020.

 ----------------------------------------------------------------------
 # B3LYP/6-311++G(d,p) empiricaldispersion=gd3bj scf=xqc pop=npa geom=c
 heck
 ----------------------------------------------------------------------

 -------------------------------------
 CID_142560298_JID_1773_Energie_kation
 -------------------------------------
 Structure from the checkpoint file:  "JID_1773.chk"
 Charge =  1 Multiplicity = 2

 SCF Done:  E(UB3LYP) =  -482.969824552     A.U. after   25 cycles
 Normal termination of Gaussian 16 at Tue Dec  8 21:34:33 2020.
 Gaussian 16:  ES64L-G16RevA.03 25-Dec-2016

 ----------------------------------------------------------------------
 # B3LYP/6-311++G(d,p) empiricaldispersion=gd3bj scf=xqc pop=npa geom=c
 heck
 ----------------------------------------------------------------------

 ------------------------------------
 CID_142560298_JID_1773_Energie_anion
 ------------------------------------
 Structure from the checkpoint file:  "JID_1773.chk"
 Charge = -1 Multiplicity = 2

                         Standard orientation:
 ---------------------------------------------------------------------
 Center     Atomic      Atomic             Coordinates (Angstroms)
 Number     Number       Type             X           Y           Z
 ---------------------------------------------------------------------
      1          6           0        2.300399   -1.814164   -0.014144
      2          6           0        1.297975   -0.955621   -0.805427
      3          6           0        0.737352    0.191308    0.005743
      4          7           0        1.400467    1.251053    0.287213
      5          8           0        2.707117    1.215111   -0.259232
      6          6           0       -0.691806    0.114149    0.538475
      7          6           0       -0.808029   -1.165912    1.400844
      8          6           0       -1.037094    1.328477    1.425895
      9          6           0       -1.682582    0.092170   -0.640240
     10          6           0       -1.397000    0.677652   -1.807319
     11          6           0       -3.028829   -0.548868   -0.408587
     12          1           0        3.132766   -1.200048    0.337138
     13          1           0        2.702495   -2.610552   -0.650059
     14          1           0        1.827765   -2.283598    0.854518
     15          1           0        1.805106   -0.536825   -1.681155
     16          1           0        0.473921   -1.572345   -1.174596
     17          1           0        3.058807    2.073240    0.022171
     18          1           0       -0.064517   -1.139776    2.203855
     19          1           0       -1.796505   -1.233615    1.864364
     20          1           0       -0.647457   -2.077039    0.816387
     21          1           0       -0.919058    2.261702    0.872465
     22          1           0       -2.073977    1.253746    1.771064
     23          1           0       -0.383496    1.366834    2.302623
     24          1           0       -2.122022    0.704492   -2.616502
     25          1           0       -0.441227    1.157115   -1.995019
     26          1           0       -2.941738   -1.630758   -0.250321
     27          1           0       -3.524923   -0.139690    0.480691
     28          1           0       -3.688459   -0.386287   -1.265687
 ---------------------------------------------------------------------

 SCF Done:  E(UB3LYP) =  -483.274006049     A.U. after   33 cycles
 SCF Done:  E(UB3LYP) =  -483.274006049     a.u. after    1 cycles

 The electronic state is 2-A.
 Alpha  occ. eigenvalues --  -19.05049 -14.24308 -10.09871 -10.09258 -10.08049
 Alpha  occ. eigenvalues --  -10.06586 -10.05995 -10.05705 -10.05389 -10.05225
 Alpha  occ. eigenvalues --  -10.05190  -0.96785  -0.77593  -0.71473  -0.65770
 Alpha  occ. eigenvalues --   -0.65209  -0.58958  -0.57825  -0.54061  -0.50500
 Alpha  occ. eigenvalues --   -0.46043  -0.39944  -0.39056  -0.37886  -0.36547
 Alpha  occ. eigenvalues --   -0.34543  -0.32683  -0.31851  -0.31013  -0.30721
 Alpha  occ. eigenvalues --   -0.29441  -0.28963  -0.28068  -0.27372  -0.26524
 Alpha  occ. eigenvalues --   -0.26053  -0.24801  -0.23664  -0.22875  -0.22031
 Alpha  occ. eigenvalues --   -0.16600  -0.15068  -0.14556   0.04657
 Alpha virt. eigenvalues --    0.06731   0.07582   0.08011   0.09250   0.09620
 Alpha virt. eigenvalues --    0.09805   0.10161   0.10504   0.11190   0.12011
 Alpha virt. eigenvalues --    0.12242   0.12644   0.12890   0.13491   0.14503

  Beta  occ. eigenvalues --  -19.05008 -14.24246 -10.09862 -10.09255 -10.08045
  Beta  occ. eigenvalues --  -10.06572 -10.05952 -10.05665 -10.05358 -10.05215
  Beta  occ. eigenvalues --  -10.05175  -0.96690  -0.77521  -0.71430  -0.65720
  Beta  occ. eigenvalues --   -0.65174  -0.58900  -0.57774  -0.53984  -0.50447
  Beta  occ. eigenvalues --   -0.45981  -0.39880  -0.38998  -0.37851  -0.36506
  Beta  occ. eigenvalues --   -0.34502  -0.32643  -0.31816  -0.30985  -0.30620
  Beta  occ. eigenvalues --   -0.29403  -0.28914  -0.28024  -0.27330  -0.26459
  Beta  occ. eigenvalues --   -0.26013  -0.24763  -0.23637  -0.22842  -0.22001
  Beta  occ. eigenvalues --   -0.16509  -0.14997  -0.14466
  Beta virt. eigenvalues --    0.06918   0.07819   0.08322   0.08540   0.09655
  Beta virt. eigenvalues --    0.09877   0.10236   0.10508   0.11037   0.11529
  Beta virt. eigenvalues --    0.12264   0.12634   0.13162   0.13302   0.13774

 Mulliken charges and spin densities:
               1          2
     1  C    0.634250  -1.173009
     2  C   -0.975632   0.541244
     3  C   -0.222175   0.041645
     4  N   -0.427510   0.165209
     5  O    0.006795  -0.012622
     6  C    0.378786   0.592102
     7  C    0.872484  -1.623432
     8  C    0.565894  -1.191345
     9  C   -2.000368   2.386403
    10  C   -0.229659  -0.630651
    11  C    2.363686  -2.925717
    12  H   -0.003071   0.169464
    13  H   -0.396454   0.535629
    14  H    0.012390   0.116103
    15  H    0.035871   0.150339
    16  H   -0.006399   0.192760
    17  H   -0.093666   0.366465
    18  H   -0.118842   0.287329
    19  H   -0.188008   0.351713
    20  H   -0.180379   0.352916
    21  H   -0.058179   0.240363
    22  H   -0.019084   0.158143
    23  H    0.099671   0.067143
    24  H   -0.340093   0.466018
    25  H    0.155611   0.035040
    26  H   -0.345888   0.516958
    27  H   -0.317956   0.479277
    28  H   -0.202074   0.344514
 Sum of Mulliken charges =  -1.00000   1.00000

 Dipole moment (field-independent basis, Debye):
    X=              1.3253    Y=              1.8252    Z=             -0.0032  Tot=              2.2556
 Quadrupole moment (field-independent basis, Debye-Ang):
   XX=           -132.3006   YY=           -112.1413   ZZ=           -101.7242
   XY=             -4.9870   XZ=              2.1606   YZ=              0.0153

 Summary of Natural Population Analysis:

                                       Natural Population
                Natural  -----------------------------------------------
    Atom  No    Charge         Core      Valence    Rydberg      Total
 -----------------------------------------------------------------------
      C    1   -0.27949      0.99965     2.27546    0.00438     3.27949
      C    2   -0.22471      0.99958     2.21549    0.00964     3.22471
      C    3    0.13460      0.99955     1.84384    0.02201     2.86540
      N    4   -0.08920      0.99957     2.57579    0.01384     3.58920
      O    5   -0.29287      0.99990     3.28591    0.00706     4.29287
      C    6   -0.06957      0.99948     2.05478    0.01532     3.06957
      C    7   -0.28513      0.99963     2.27730    0.00820     3.28513
      C    8   -0.27739      0.99963     2.27126    0.00650     3.27739
      C    9    0.01153      0.99949     1.97474    0.01424     2.98847
      C   10   -0.19964      0.99947     2.19268    0.00749     3.19964
      C   11   -0.30290      0.99961     2.29582    0.00747     3.30290
      H   12    0.10477      0.00000     0.39364    0.00160     0.39523
      H   13    0.09698      0.00000     0.40181    0.00120     0.40302
      H   14    0.09584      0.00000     0.40287    0.00130     0.40416
      H   15    0.11147      0.00000     0.38687    0.00166     0.38853
      H   16    0.10615      0.00000     0.39221    0.00163     0.39385
      H   17    0.23525      0.00000     0.25851    0.00624     0.26475
      H   18    0.10255      0.00000     0.39633    0.00112     0.39745
      H   19    0.10541      0.00000     0.39317    0.00142     0.39459
      H   20    0.10333      0.00000     0.39520    0.00147     0.39667
      H   21    0.10771      0.00000     0.39090    0.00139     0.39229
      H   22    0.09725      0.00000     0.40162    0.00113     0.40275
      H   23    0.10278      0.00000     0.39604    0.00119     0.39722
      H   24    0.09268      0.00000     0.40636    0.00096     0.40732
      H   25    0.09876      0.00000     0.39990    0.00134     0.40124
      H   26    0.10698      0.00000     0.39130    0.00172     0.39302
      H   27    0.10395      0.00000     0.39436    0.00169     0.39605
      H   28    0.10292      0.00000     0.39582    0.00126     0.39708
 =======================================================================
   * Total *   -0.00000     10.99555    31.85999    0.14446    43.00000

 Normal termination of Gaussian 16 at Tue Dec  8 21:44:56 2020.
