 Gaussian 16, Revision A.03,

 -----------------------------------------------------------
 # opt freq B3LYP/6-31G(d) empiricaldispersion=gd3bj scf=xqc
 -----------------------------------------------------------

 -------------------------------
 CID_122646721_JID_4356_neutraal
 -------------------------------
 Symbolic Z-matrix:
 Charge =  0 Multiplicity = 1

 SCF Done:  E(RB3LYP) =  -629.627173792     A.U. after   15 cycles
 SCF Done:  E(RB3LYP) =  -629.631146168     A.U. after   12 cycles
 SCF Done:  E(RB3LYP) =  -629.631497504     A.U. after   11 cycles
 SCF Done:  E(RB3LYP) =  -629.631663937     A.U. after   11 cycles
 SCF Done:  E(RB3LYP) =  -629.631733914     A.U. after   11 cycles
 SCF Done:  E(RB3LYP) =  -629.631794310     A.U. after   11 cycles
 SCF Done:  E(RB3LYP) =  -629.631827719     A.U. after   11 cycles
 SCF Done:  E(RB3LYP) =  -629.631871175     A.U. after   11 cycles
 SCF Done:  E(RB3LYP) =  -629.631922508     A.U. after   12 cycles
 SCF Done:  E(RB3LYP) =  -629.631945894     A.U. after   11 cycles
 SCF Done:  E(RB3LYP) =  -629.631971761     A.U. after    7 cycles
 SCF Done:  E(RB3LYP) =  -629.631971885     A.U. after    8 cycles
 SCF Done:  E(RB3LYP) =  -629.631971962     A.U. after    7 cycles
 SCF Done:  E(RB3LYP) =  -629.631972036     A.U. after    7 cycles
 SCF Done:  E(RB3LYP) =  -629.631972085     A.U. after    7 cycles
 SCF Done:  E(RB3LYP) =  -629.631972108     A.U. after    7 cycles
 Optimization completed.
    -- Stationary point found.
 Normal termination of Gaussian 16 at Thu Dec 10 09:30:41 2020.

 --------------------------------------------------------------------
 #N Geom=AllCheck Guess=TCheck SCRF=Check GenChk RB3LYP/6-31G(d) Freq
 --------------------------------------------------------------------

 Structure from the checkpoint file:  "JID_4356.chk"
 -------------------------------
 CID_122646721_JID_4356_neutraal
 -------------------------------
 Charge =  0 Multiplicity = 1

 SCF Done:  E(RB3LYP) =  -629.631972108     A.U. after    1 cycles

  Exact polarizability: 159.757  -3.967 122.548   0.490  -0.773  82.067
 Approx polarizability: 206.309 -13.295 201.810   0.442  -1.904 121.120

                      1                      2                      3
                      A                      A                      A
 Frequencies --     18.9957                39.8691               103.6512
 Red. masses --      3.2025                 4.0405                 4.4995
 Frc consts  --      0.0007                 0.0038                 0.0285
 IR Inten    --      1.2677                 1.3323                 2.3251

                      4                      5                      6
                      A                      A                      A
 Frequencies --    116.3591               139.3142               158.8081
 Red. masses --      3.1541                 3.8879                 2.9041
 Frc consts  --      0.0252                 0.0445                 0.0432
 IR Inten    --      5.7592                 0.7779                 1.3229

                      7                      8                      9
                      A                      A                      A
 Frequencies --    223.5131               237.6168               270.4751
 Red. masses --      1.2108                 1.8976                 3.3031
 Frc consts  --      0.0356                 0.0631                 0.1424
 IR Inten    --      0.6546                 1.4263                 0.0870

                     10                     11                     12
                      A                      A                      A
 Frequencies --    280.1228               284.0752               309.3453
 Red. masses --      1.0998                 1.1037                 2.6322
 Frc consts  --      0.0508                 0.0525                 0.1484
 IR Inten    --      0.0579                 0.1796                 0.2742

                     13                     14                     15
                      A                      A                      A
 Frequencies --    351.8012               376.3020               438.7512
 Red. masses --      2.5644                 3.0339                 5.9796
 Frc consts  --      0.1870                 0.2531                 0.6782
 IR Inten    --      0.0355                 2.1193                12.6724

                     16                     17                     18
                      A                      A                      A
 Frequencies --    445.9964               464.9210               504.2121
 Red. masses --      3.5919                 4.3119                 2.0223
 Frc consts  --      0.4210                 0.5491                 0.3029
 IR Inten    --      2.7759                 3.6861                20.6032

                     19                     20                     21
                      A                      A                      A
 Frequencies --    519.5355               586.2153               619.8983
 Red. masses --      2.6719                 3.2917                 3.5571
 Frc consts  --      0.4249                 0.6665                 0.8054
 IR Inten    --     12.7323                 8.6547                23.5198

                     22                     23                     24
                      A                      A                      A
 Frequencies --    642.7816               653.2649               740.2648
 Red. masses --      4.5735                 2.1276                 3.1274
 Frc consts  --      1.1133                 0.5350                 1.0097
 IR Inten    --      0.3391                66.6924                 2.8035

                     25                     26                     27
                      A                      A                      A
 Frequencies --    754.6269               793.5228               835.3888
 Red. masses --      5.3330                 1.5559                 3.0860
 Frc consts  --      1.7893                 0.5773                 1.2689
 IR Inten    --      1.9605                20.4731                 3.6488

                     28                     29                     30
                      A                      A                      A
 Frequencies --    858.8178               882.1676               943.7632
 Red. masses --      3.2190                 3.6911                 1.7717
 Frc consts  --      1.3989                 1.6924                 0.9298
 IR Inten    --      3.0575                12.4272                 0.6077

                     31                     32                     33
                      A                      A                      A
 Frequencies --    954.3905               976.8349              1012.3597
 Red. masses --      1.6869                 1.1989                 2.4224
 Frc consts  --      0.9053                 0.6740                 1.4627
 IR Inten    --      0.8037                 0.0483                 8.8619

                     34                     35                     36
                      A                      A                      A
 Frequencies --   1021.5514              1028.4308              1058.7430
 Red. masses --      2.9821                 1.8900                 1.4069
 Frc consts  --      1.8335                 1.1778                 0.9292
 IR Inten    --      3.5617                 1.4194                 1.5322

                     37                     38                     39
                      A                      A                      A
 Frequencies --   1062.8882              1090.1508              1144.6876
 Red. masses --      1.3985                 2.4559                 1.4064
 Frc consts  --      0.9309                 1.7196                 1.0857
 IR Inten    --      0.0851                20.4441                 0.1470

                     40                     41                     42
                      A                      A                      A
 Frequencies --   1183.3103              1240.1578              1245.3665
 Red. masses --      3.8324                 1.4575                 2.6685
 Frc consts  --      3.1616                 1.3208                 2.4385
 IR Inten    --      4.8520                 3.2451                 4.8083

                     43                     44                     45
                      A                      A                      A
 Frequencies --   1249.8394              1253.7606              1275.7109
 Red. masses --      1.4080                 1.8427                 2.0684
 Frc consts  --      1.2958                 1.7066                 1.9833
 IR Inten    --      4.4357                 4.4920                12.7334

                     46                     47                     48
                      A                      A                      A
 Frequencies --   1287.8947              1333.0995              1366.4750
 Red. masses --      2.3102                 2.2873                 2.4708
 Frc consts  --      2.2576                 2.3950                 2.7183
 IR Inten    --     42.2619               101.3161                54.9601

                     49                     50                     51
                      A                      A                      A
 Frequencies --   1407.5976              1424.4239              1425.4219
 Red. masses --      2.4301                 1.2193                 1.5180
 Frc consts  --      2.8368                 1.4577                 1.8173
 IR Inten    --     21.3504                 3.7661                35.4116

                     52                     53                     54
                      A                      A                      A
 Frequencies --   1432.7995              1453.5359              1479.9051
 Red. masses --      2.4753                 1.3662                 2.8852
 Frc consts  --      2.9939                 1.7007                 3.7230
 IR Inten    --     14.1695                 1.3153                 7.4481

                     55                     56                     57
                      A                      A                      A
 Frequencies --   1506.1406              1508.2173              1508.3683
 Red. masses --      1.4632                 1.0501                 1.8101
 Frc consts  --      1.9556                 1.4073                 2.4264
 IR Inten    --     40.0675                 0.0889                39.1350

                     58                     59                     60
                      A                      A                      A
 Frequencies --   1514.5547              1515.9431              1530.3173
 Red. masses --      1.0518                 1.0458                 1.0516
 Frc consts  --      1.4216                 1.4161                 1.4510
 IR Inten    --      0.5473                 0.0548                 4.7256

                     61                     62                     63
                      A                      A                      A
 Frequencies --   1533.4980              1541.5716              1550.8291
 Red. masses --      1.0558                 1.4001                 1.1675
 Frc consts  --      1.4628                 1.9604                 1.6543
 IR Inten    --      6.8800                11.4010                 7.3103

                     64                     65                     66
                      A                      A                      A
 Frequencies --   1561.5634              1609.3904              1809.1233
 Red. masses --      2.1165                 6.2934                 8.6274
 Frc consts  --      3.0407                 9.6042                16.6366
 IR Inten    --     30.4669                11.2953               393.3690

                     67                     68                     69
                      A                      A                      A
 Frequencies --   3000.1677              3042.5855              3046.2716
 Red. masses --      1.0732                 1.0343                 1.0349
 Frc consts  --      5.6912                 5.6413                 5.6583
 IR Inten    --     46.4451                25.8891                27.2452

                     70                     71                     72
                      A                      A                      A
 Frequencies --   3057.3813              3062.7202              3076.4790
 Red. masses --      1.0370                 1.0685                 1.0901
 Frc consts  --      5.7109                 5.9050                 6.0791
 IR Inten    --     29.5788                24.7928                20.2212

                     73                     74                     75
                      A                      A                      A
 Frequencies --   3109.1782              3114.1044              3119.1427
 Red. masses --      1.1025                 1.1018                 1.1032
 Frc consts  --      6.2797                 6.2955                 6.3236
 IR Inten    --      0.8067                54.3725                16.5528

                     76                     77                     78
                      A                      A                      A
 Frequencies --   3120.8225              3125.9944              3134.3132
 Red. masses --      1.1022                 1.1009                 1.0952
 Frc consts  --      6.3251                 6.3383                 6.3394
 IR Inten    --     27.3988                64.4961                 3.9822

                     79                     80                     81
                      A                      A                      A
 Frequencies --   3138.6446              3269.7157              3600.7666
 Red. masses --      1.1023                 1.0968                 1.0762
 Frc consts  --      6.3979                 6.9086                 8.2215
 IR Inten    --     27.0562                 2.1236                28.8097

 - Thermochemistry -
 -------------------
 Temperature   298.150 Kelvin.  Pressure   1.00000 Atm.
 Atom     1 has atomic number  6 and mass  12.00000

 Molecular mass:   193.12151 amu.
 Principal axes and moments of inertia in atomic units:
                           1         2         3
     Eigenvalues --   989.211734984.419445530.52842
           X            0.99996   0.00879   0.00272
           Y           -0.00878   0.99996  -0.00314
           Z           -0.00274   0.00311   0.99999
 This molecule is an asymmetric top.
 Rotational symmetry number  1.
 Warning -- assumption of classical behavior for rotation
           may cause significant error
 Rotational temperatures (Kelvin)      0.08756     0.01738     0.01566
 Rotational constants (GHZ):           1.82442     0.36208     0.32632
 Zero-point vibrational energy     650239.3 (Joules/Mol)
                                  155.41092 (Kcal/Mol)
 Warning -- explicit consideration of  21 degrees of freedom as
           vibrations may cause significant error
 Vibrational temperatures:     27.33    57.36   149.13   167.41   200.44
          (Kelvin)            228.49   321.59   341.88   389.15   403.03
                              408.72   445.08   506.16   541.41   631.27
                              641.69   668.92   725.45   747.50   843.43
                              891.90   924.82   939.90  1065.08  1085.74
                             1141.70  1201.94  1235.65  1269.24  1357.86
                             1373.16  1405.45  1456.56  1469.78  1479.68
                             1523.30  1529.26  1568.48  1646.95  1702.52
                             1784.31  1791.80  1798.24  1803.88  1835.46
                             1852.99  1918.03  1966.05  2025.22  2049.43
                             2050.86  2061.48  2091.31  2129.25  2167.00
                             2169.99  2170.21  2179.11  2181.10  2201.79
                             2206.36  2217.98  2231.30  2246.74  2315.55
                             2602.92  4316.57  4377.60  4382.91  4398.89
                             4406.57  4426.37  4473.41  4480.50  4487.75
                             4490.17  4497.61  4509.58  4515.81  4704.39
                             5180.70

 Zero-point correction=                           0.247663 (Hartree/Particle)
 Thermal correction to Energy=                    0.261260
 Thermal correction to Enthalpy=                  0.262204
 Thermal correction to Gibbs Free Energy=         0.206568
 Sum of electronic and zero-point Energies=           -629.384309
 Sum of electronic and thermal Energies=              -629.370712
 Sum of electronic and thermal Enthalpies=            -629.369768
 Sum of electronic and thermal Free Energies=         -629.425404

                     E (Thermal)             CV                S
                      KCal/Mol        Cal/Mol-Kelvin    Cal/Mol-Kelvin
 Total                  163.943             51.672            117.096
 Electronic               0.000              0.000              0.000
 Translational            0.889              2.981             41.680
 Rotational               0.889              2.981             31.678
 Vibrational            162.166             45.711             43.738
 Vibration     1          0.593              1.986              6.737
 Vibration     2          0.594              1.981              5.266
 Vibration     3          0.605              1.946              3.384
 Vibration     4          0.608              1.936              3.160
 Vibration     5          0.615              1.914              2.813
 Vibration     6          0.621              1.893              2.564
 Vibration     7          0.649              1.805              1.930
 Vibration     8          0.656              1.783              1.821
 Vibration     9          0.674              1.728              1.593
 Vibration    10          0.680              1.710              1.533
 Vibration    11          0.682              1.703              1.509
 Vibration    12          0.699              1.656              1.366
 Vibration    13          0.728              1.572              1.158
 Vibration    14          0.747              1.521              1.054
 Vibration    15          0.799              1.386              0.831
 Vibration    16          0.805              1.370              0.808
 Vibration    17          0.822              1.328              0.752
 Vibration    18          0.859              1.241              0.648
 Vibration    19          0.875              1.207              0.611
 Vibration    20          0.943              1.061              0.474
 Vibration    21          0.980              0.990              0.417

 Optimization completed.
    -- Stationary point found.
 Normal termination of Gaussian 16 at Thu Dec 10 09:39:14 2020.

 ----------------------------------------------------------------------
 # B3LYP/6-311++G(d,p) empiricaldispersion=gd3bj scf=xqc pop=npa geom=c
 heck
 ----------------------------------------------------------------------

 ---------------------------------------
 CID_122646721_JID_4356_Energie_neutraal
 ---------------------------------------
 Structure from the checkpoint file:  "JID_4356.chk"
 Charge =  0 Multiplicity = 1

 SCF Done:  E(RB3LYP) =  -629.807452952     A.U. after   15 cycles
 Normal termination of Gaussian 16 at Thu Dec 10 09:43:20 2020.

 ----------------------------------------------------------------------
 # B3LYP/6-311++G(d,p) empiricaldispersion=gd3bj scf=xqc pop=npa geom=c
 heck
 ----------------------------------------------------------------------

 -------------------------------------
 CID_122646721_JID_4356_Energie_kation
 -------------------------------------
 Structure from the checkpoint file:  "JID_4356.chk"
 Charge =  1 Multiplicity = 2

 SCF Done:  E(UB3LYP) =  -629.491342903     A.U. after   31 cycles
 Normal termination of Gaussian 16 at Thu Dec 10 09:55:13 2020.
 Gaussian 16:  ES64L-G16RevA.03 25-Dec-2016

 ----------------------------------------------------------------------
 # B3LYP/6-311++G(d,p) empiricaldispersion=gd3bj scf=xqc pop=npa geom=c
 heck
 ----------------------------------------------------------------------

 ------------------------------------
 CID_122646721_JID_4356_Energie_anion
 ------------------------------------
 Structure from the checkpoint file:  "JID_4356.chk"
 Charge = -1 Multiplicity = 2

                         Standard orientation:
 ---------------------------------------------------------------------
 Center     Atomic      Atomic             Coordinates (Angstroms)
 Number     Number       Type             X           Y           Z
 ---------------------------------------------------------------------
      1          6           0       -3.452042    0.592244    1.143273
      2          6           0       -2.789464   -0.132522   -0.047024
      3          6           0       -3.143005   -1.627046    0.003878
      4          6           0       -3.312615    0.473390   -1.366487
      5          6           0       -1.289420    0.065219    0.026757
      6          7           0       -0.448779   -0.971669    0.099391
      7          7           0        0.786117   -0.418694    0.138880
      8          6           0        1.971205   -1.242603    0.234289
      9          6           0        3.258157   -0.483990   -0.074059
     10          8           0        4.308495   -1.091606   -0.214622
     11          7           0        3.171563    0.874734   -0.183912
     12          6           0        2.028124    1.718598    0.149886
     13          6           0        0.756127    0.936861    0.090904
     14          6           0       -0.577170    1.294152    0.017418
     15          1           0       -4.541359    0.474017    1.103244
     16          1           0       -3.228493    1.664880    1.132900
     17          1           0       -3.097471    0.182696    2.095325
     18          1           0       -4.230411   -1.753093   -0.050287
     19          1           0       -2.687364   -2.169028   -0.829901
     20          1           0       -2.784977   -2.086070    0.930142
     21          1           0       -3.085938    1.543386   -1.432261
     22          1           0       -2.856362   -0.022098   -2.230221
     23          1           0       -4.400258    0.353395   -1.436618
     24          1           0        1.890821   -2.073079   -0.470838
     25          1           0        2.061826   -1.672136    1.239743
     26          1           0        4.065942    1.326613   -0.329822
     27          1           0        2.159256    2.161579    1.149685
     28          1           0        1.983462    2.549976   -0.562376
     29          1           0       -0.978314    2.295388   -0.045272
 ---------------------------------------------------------------------

 SCF Done:  E(UB3LYP) =  -629.799271805     A.U. after   31 cycles

 The electronic state is 2-A.
 Alpha  occ. eigenvalues --  -18.99939 -14.29401 -14.25045 -14.22852 -10.19091
 Alpha  occ. eigenvalues --  -10.13461 -10.12757 -10.12047 -10.09937 -10.09825
 Alpha  occ. eigenvalues --  -10.06925 -10.06877 -10.06505 -10.06501  -0.96306
 Alpha  occ. eigenvalues --   -0.94870  -0.84163  -0.76606  -0.71780  -0.70838
 Alpha  occ. eigenvalues --   -0.63066  -0.61020  -0.59642  -0.59415  -0.53092
 Alpha  occ. eigenvalues --   -0.51579  -0.46733  -0.43718  -0.42664  -0.41233
 Alpha  occ. eigenvalues --   -0.39172  -0.36884  -0.36590  -0.35524  -0.35162
 Alpha  occ. eigenvalues --   -0.34633  -0.32942  -0.32532  -0.31620  -0.30851
 Alpha  occ. eigenvalues --   -0.30141  -0.28853  -0.27544  -0.27038  -0.24810
 Alpha  occ. eigenvalues --   -0.24420  -0.24127  -0.19779  -0.17671  -0.17201
 Alpha  occ. eigenvalues --   -0.15093  -0.14479   0.04127
 Alpha virt. eigenvalues --    0.06080   0.07685   0.08006   0.08363   0.08961
 Alpha virt. eigenvalues --    0.09240   0.09372   0.10140   0.10449   0.10738
 Alpha virt. eigenvalues --    0.11471   0.12184   0.12471   0.13008   0.13573

  Beta  occ. eigenvalues --  -18.99934 -14.29394 -14.25014 -14.22846 -10.19092
  Beta  occ. eigenvalues --  -10.13447 -10.12688 -10.12049 -10.09935 -10.09826
  Beta  occ. eigenvalues --  -10.06908 -10.06858 -10.06497 -10.06484  -0.96293
  Beta  occ. eigenvalues --   -0.94859  -0.84111  -0.76590  -0.71766  -0.70807
  Beta  occ. eigenvalues --   -0.63024  -0.60944  -0.59608  -0.59387  -0.53047
  Beta  occ. eigenvalues --   -0.51553  -0.46685  -0.43667  -0.42634  -0.41201
  Beta  occ. eigenvalues --   -0.39067  -0.36856  -0.36557  -0.35474  -0.35138
  Beta  occ. eigenvalues --   -0.34608  -0.32913  -0.32515  -0.31576  -0.30809
  Beta  occ. eigenvalues --   -0.30123  -0.28831  -0.27528  -0.27017  -0.24794
  Beta  occ. eigenvalues --   -0.24403  -0.24109  -0.19759  -0.17653  -0.17172
  Beta  occ. eigenvalues --   -0.15077  -0.14456
  Beta virt. eigenvalues --    0.06142   0.07451   0.08041   0.08397   0.08796
  Beta virt. eigenvalues --    0.09126   0.09588   0.10185   0.10273   0.10588
  Beta virt. eigenvalues --    0.11290   0.11570   0.12413   0.12624   0.13215

 Mulliken charges and spin densities:
               1          2
     1  C    0.210086  -0.798783
     2  C    0.594052   0.087025
     3  C   -0.489745  -0.122956
     4  C    0.031802  -0.611400
     5  C    0.290105  -0.656101
     6  N   -0.264933   0.257208
     7  N    0.397988  -0.183636
     8  C    0.289738  -0.473328
     9  C   -0.122926   0.213982
    10  O   -0.379568   0.013131
    11  N   -0.579406   0.321265
    12  C    1.211939  -1.767187
    13  C    0.611595  -0.350677
    14  C   -0.764655   0.292888
    15  H   -0.021621   0.169688
    16  H   -0.151361   0.293246
    17  H    0.008913   0.139168
    18  H    0.070146   0.075705
    19  H    0.097331   0.056512
    20  H    0.096971   0.058163
    21  H   -0.154366   0.295477
    22  H    0.047966   0.100665
    23  H    0.005825   0.140786
    24  H    0.116720   0.094930
    25  H    0.091782   0.130139
    26  H   -0.307754   0.657210
    27  H   -0.682147   0.907054
    28  H   -0.954199   1.176793
    29  H   -0.300276   0.483034
 Sum of Mulliken charges =  -1.00000   1.00000

 Dipole moment (field-independent basis, Debye):
    X=             -5.4260    Y=             -5.8898    Z=              0.0566  Tot=              8.0084
 Quadrupole moment (field-independent basis, Debye-Ang):
   XX=           -166.0735   YY=           -135.2586   ZZ=           -113.6202
   XY=             -7.6800   XZ=              1.8455   YZ=             -0.7887

 Summary of Natural Population Analysis:

                                       Natural Population
                Natural  -----------------------------------------------
    Atom  No    Charge         Core      Valence    Rydberg      Total
 -----------------------------------------------------------------------
      C    1   -0.27889      0.99963     2.27210    0.00715     3.27889
      C    2   -0.06036      0.99955     2.05023    0.01058     3.06036
      C    3   -0.28139      0.99964     2.27552    0.00623     3.28139
      C    4   -0.27710      0.99963     2.27185    0.00562     3.27710
      C    5    0.08750      0.99954     1.89514    0.01782     2.91250
      N    6   -0.16585      0.99969     2.65529    0.01087     3.66585
      N    7   -0.10962      0.99960     2.59712    0.01290     3.60962
      C    8   -0.11821      0.99958     2.10855    0.01008     3.11821
      C    9    0.33748      0.99967     1.64003    0.02282     2.66252
      O   10   -0.32305      0.99988     3.31696    0.00621     4.32305
      N   11   -0.30930      0.99968     2.79910    0.01052     3.80930
      C   12   -0.09551      0.99958     2.08445    0.01148     3.09551
      C   13    0.08792      0.99953     1.89901    0.01354     2.91208
      C   14   -0.15743      0.99945     2.14905    0.00893     3.15743
      H   15    0.09586      0.00000     0.40335    0.00079     0.40414
      H   16    0.10198      0.00000     0.39700    0.00102     0.39802
      H   17    0.10160      0.00000     0.39756    0.00084     0.39840
      H   18    0.09411      0.00000     0.40512    0.00078     0.40589
      H   19    0.10442      0.00000     0.39462    0.00096     0.39558
      H   20    0.10424      0.00000     0.39480    0.00096     0.39576
      H   21    0.10184      0.00000     0.39705    0.00111     0.39816
      H   22    0.10133      0.00000     0.39777    0.00090     0.39867
      H   23    0.09560      0.00000     0.40353    0.00088     0.40440
      H   24    0.11490      0.00000     0.38365    0.00145     0.38510
      H   25    0.10904      0.00000     0.38955    0.00140     0.39096
      H   26    0.20388      0.00000     0.29025    0.00587     0.29612
      H   27    0.10724      0.00000     0.38655    0.00620     0.39276
      H   28    0.11455      0.00000     0.37815    0.00730     0.38545
      H   29    0.11321      0.00000     0.38532    0.00147     0.38679
 =======================================================================
   * Total *   -0.00000     13.99465    37.81866    0.18668    52.00000

 Normal termination of Gaussian 16 at Thu Dec 10 10:07:14 2020.
