 Gaussian 16, Revision A.03,

 -----------------------------------------------------------
 # opt freq B3LYP/6-31G(d) empiricaldispersion=gd3bj scf=xqc
 -----------------------------------------------------------

 -------------------------------
 CID_143612034_JID_6787_neutraal
 -------------------------------
 Symbolic Z-matrix:
 Charge =  0 Multiplicity = 1

 SCF Done:  E(RB3LYP) =  -1120.47002331     A.U. after   15 cycles
 SCF Done:  E(RB3LYP) =  -1120.47586987     A.U. after   12 cycles
 SCF Done:  E(RB3LYP) =  -1120.47698637     A.U. after   12 cycles
 SCF Done:  E(RB3LYP) =  -1120.47732776     A.U. after   12 cycles
 SCF Done:  E(RB3LYP) =  -1120.47746561     A.U. after   12 cycles
 SCF Done:  E(RB3LYP) =  -1120.47750567     A.U. after   11 cycles
 SCF Done:  E(RB3LYP) =  -1120.47755050     A.U. after   11 cycles
 SCF Done:  E(RB3LYP) =  -1120.47755589     A.U. after   10 cycles
 SCF Done:  E(RB3LYP) =  -1120.47756450     A.U. after    9 cycles
 SCF Done:  E(RB3LYP) =  -1120.47758949     A.U. after   10 cycles
 SCF Done:  E(RB3LYP) =  -1120.47764407     A.U. after   10 cycles
 SCF Done:  E(RB3LYP) =  -1120.47765188     A.U. after   10 cycles
 SCF Done:  E(RB3LYP) =  -1120.47765412     A.U. after    9 cycles
 SCF Done:  E(RB3LYP) =  -1120.47765467     A.U. after    8 cycles
 SCF Done:  E(RB3LYP) =  -1120.47765491     A.U. after    8 cycles
 Optimization completed.
    -- Stationary point found.
 Normal termination of Gaussian 16 at Fri Dec 11 00:31:25 2020.

 --------------------------------------------------------------------
 #N Geom=AllCheck Guess=TCheck SCRF=Check GenChk RB3LYP/6-31G(d) Freq
 --------------------------------------------------------------------

 Structure from the checkpoint file:  "JID_6787.chk"
 -------------------------------
 CID_143612034_JID_6787_neutraal
 -------------------------------
 Charge =  0 Multiplicity = 1

 SCF Done:  E(RB3LYP) =  -1120.47765491     A.U. after    1 cycles

  Exact polarizability: 218.569  -6.903 148.756   0.898  -0.986  73.724
 Approx polarizability: 301.265 -17.247 285.321  -3.449  -9.962 120.470

                      1                      2                      3
                      A                      A                      A
 Frequencies --     37.3510                51.8608                57.1528
 Red. masses --      5.7355                 2.1968                 1.4134
 Frc consts  --      0.0047                 0.0035                 0.0027
 IR Inten    --      2.3091                 0.7654                 0.5279

                      4                      5                      6
                      A                      A                      A
 Frequencies --    117.2028               120.9852               163.0707
 Red. masses --      4.6549                 6.0067                 4.7473
 Frc consts  --      0.0377                 0.0518                 0.0744
 IR Inten    --      7.4042                 1.7403                 1.0100

                      7                      8                      9
                      A                      A                      A
 Frequencies --    182.6445               192.5595               223.7210
 Red. masses --      2.6025                 1.4019                 3.8872
 Frc consts  --      0.0512                 0.0306                 0.1146
 IR Inten    --      2.2111                 0.7453                 0.4889

                     10                     11                     12
                      A                      A                      A
 Frequencies --    238.8658               244.7908               282.2564
 Red. masses --      8.2561                 5.6744                 5.3859
 Frc consts  --      0.2775                 0.2003                 0.2528
 IR Inten    --      3.4018                 3.0997                 1.3650

                     13                     14                     15
                      A                      A                      A
 Frequencies --    336.9803               368.3461               389.0024
 Red. masses --      4.3311                 3.8802                 5.1864
 Frc consts  --      0.2898                 0.3102                 0.4624
 IR Inten    --      0.3049                 2.5213                 3.2819

                     16                     17                     18
                      A                      A                      A
 Frequencies --    444.6394               465.2159               476.9283
 Red. masses --      3.9355                 6.8439                 6.7689
 Frc consts  --      0.4584                 0.8727                 0.9071
 IR Inten    --      8.0098                30.0768                22.0529

                     19                     20                     21
                      A                      A                      A
 Frequencies --    512.2375               543.4534               552.5664
 Red. masses --      6.8514                 6.8022                 3.2233
 Frc consts  --      1.0592                 1.1836                 0.5798
 IR Inten    --     17.0632                62.5262                 4.1258

                     22                     23                     24
                      A                      A                      A
 Frequencies --    565.8131               608.1848               656.2458
 Red. masses --      8.6665                 5.6477                 5.0145
 Frc consts  --      1.6347                 1.2308                 1.2724
 IR Inten    --      3.8715                 7.2777                10.4077

                     25                     26                     27
                      A                      A                      A
 Frequencies --    693.9014               727.2173               741.3448
 Red. masses --      3.0046                 5.8299                 3.8377
 Frc consts  --      0.8524                 1.8165                 1.2427
 IR Inten    --      3.1869                 4.3025                32.9661

                     28                     29                     30
                      A                      A                      A
 Frequencies --    765.9416               798.1850               811.9556
 Red. masses --      1.8203                 5.1003                 5.4602
 Frc consts  --      0.6292                 1.9145                 2.1209
 IR Inten    --    102.6029                 5.3622                32.9309

                     31                     32                     33
                      A                      A                      A
 Frequencies --    853.1308               926.4647               936.4640
 Red. masses --      1.4518                 4.3191                 1.3679
 Frc consts  --      0.6226                 2.1842                 0.7068
 IR Inten    --     22.6944                 3.3313                 2.4268

                     34                     35                     36
                      A                      A                      A
 Frequencies --    973.0933               984.3742               995.7714
 Red. masses --      3.9941                 1.3145                 1.3539
 Frc consts  --      2.2283                 0.7505                 0.7910
 IR Inten    --      6.9492                 0.5245                 9.9657

                     37                     38                     39
                      A                      A                      A
 Frequencies --   1003.6243              1032.6385              1078.6487
 Red. masses --      1.7477                 1.5067                 1.5258
 Frc consts  --      1.0372                 0.9466                 1.0459
 IR Inten    --     54.5333                 6.1845                 4.7647

                     40                     41                     42
                      A                      A                      A
 Frequencies --   1103.5817              1118.8861              1160.0257
 Red. masses --      3.4563                 4.2299                 1.7507
 Frc consts  --      2.4801                 3.1200                 1.3881
 IR Inten    --     50.2641                91.6405                62.9334

                     43                     44                     45
                      A                      A                      A
 Frequencies --   1183.7872              1214.1726              1274.1746
 Red. masses --      1.8936                 3.4229                 2.3657
 Frc consts  --      1.5635                 2.9730                 2.2629
 IR Inten    --     81.0440                27.0136                 9.3213

                     46                     47                     48
                      A                      A                      A
 Frequencies --   1291.5029              1318.6656              1322.1138
 Red. masses --      4.4293                 2.7782                 3.9139
 Frc consts  --      4.3529                 2.8463                 4.0308
 IR Inten    --      5.3950                90.8747               123.0431

                     49                     50                     51
                      A                      A                      A
 Frequencies --   1370.6055              1377.9163              1444.3051
 Red. masses --      1.2134                 8.2746                 1.2443
 Frc consts  --      1.3430                 9.2564                 1.5293
 IR Inten    --     14.3932                49.4793                 0.3798

                     52                     53                     54
                      A                      A                      A
 Frequencies --   1463.3338              1474.0534              1483.9749
 Red. masses --      2.9121                 1.0556                 1.0695
 Frc consts  --      3.6740                 1.3513                 1.3877
 IR Inten    --     13.9693                 5.4356                 4.7615

                     55                     56                     57
                      A                      A                      A
 Frequencies --   1487.0342              1514.2574              1526.5924
 Red. masses --      2.1608                 1.0439                 1.2306
 Frc consts  --      2.8152                 1.4103                 1.6897
 IR Inten    --     43.9836                 6.7035                 3.6322

                     58                     59                     60
                      A                      A                      A
 Frequencies --   1533.0232              1610.8669              1667.0945
 Red. masses --      2.9772                 5.8056                 7.8036
 Frc consts  --      4.1224                 8.8759                12.7780
 IR Inten    --     97.4937                 2.6136                91.8519

                     61                     62                     63
                      A                      A                      A
 Frequencies --   1687.6209              1807.5324              3047.9677
 Red. masses --      7.9275                10.4601                 1.0380
 Frc consts  --     13.3026                20.1353                 5.6813
 IR Inten    --     67.6065               450.5137                27.9776

                     64                     65                     66
                      A                      A                      A
 Frequencies --   3089.8405              3100.1614              3137.4928
 Red. masses --      1.0287                 1.1009                 1.1007
 Frc consts  --      5.7864                 6.2339                 6.3841
 IR Inten    --      0.4183                16.0756                12.3911

                     67                     68                     69
                      A                      A                      A
 Frequencies --   3186.9341              3191.0940              3205.3227
 Red. masses --      1.0892                 1.1072                 1.1079
 Frc consts  --      6.5181                 6.6429                 6.7063
 IR Inten    --     13.9620                 0.2456                 0.5767

                     70                     71                     72
                      A                      A                      A
 Frequencies --   3215.3764              3222.1673              3548.8244
 Red. masses --      1.0907                 1.0936                 1.0775
 Frc consts  --      6.6440                 6.6896                 7.9955
 IR Inten    --      3.3620                 5.9090               147.9110

 - Thermochemistry -
 -------------------
 Temperature   298.150 Kelvin.  Pressure   1.00000 Atm.
 Atom     1 has atomic number  6 and mass  12.00000

 Molecular mass:   238.04121 amu.
 Principal axes and moments of inertia in atomic units:
                           1         2         3
     Eigenvalues --  1587.712736620.911947791.73284
           X            0.99997   0.00220   0.00753
           Y           -0.00233   0.99985   0.01700
           Z           -0.00750  -0.01702   0.99983
 This molecule is an asymmetric top.
 Rotational symmetry number  1.
 Warning -- assumption of classical behavior for rotation
           may cause significant error
 Rotational temperatures (Kelvin)      0.05455     0.01308     0.01112
 Rotational constants (GHZ):           1.13669     0.27258     0.23162
 Zero-point vibrational energy     511613.7 (Joules/Mol)
                                  122.27861 (Kcal/Mol)
 Warning -- explicit consideration of  23 degrees of freedom as
           vibrations may cause significant error
 Vibrational temperatures:     53.74    74.62    82.23   168.63   174.07
          (Kelvin)            234.62   262.78   277.05   321.88   343.67
                              352.20   406.10   484.84   529.97   559.69
                              639.74   669.34   686.19   737.00   781.91
                              795.02   814.08   875.04   944.19   998.37
                             1046.30  1066.63  1102.02  1148.41  1168.22
                             1227.46  1332.98  1347.36  1400.06  1416.29
                             1432.69  1443.99  1485.74  1551.93  1587.81
                             1609.83  1669.02  1703.21  1746.92  1833.25
                             1858.18  1897.27  1902.23  1972.00  1982.51
                             2078.03  2105.41  2120.83  2135.11  2139.51
                             2178.68  2196.43  2205.68  2317.68  2398.58
                             2428.11  2600.64  4385.35  4445.59  4460.44
                             4514.15  4585.29  4591.27  4611.74  4626.21
                             4635.98  5105.97

 Zero-point correction=                           0.194863 (Hartree/Particle)
 Thermal correction to Energy=                    0.209357
 Thermal correction to Enthalpy=                  0.210302
 Thermal correction to Gibbs Free Energy=         0.152503
 Sum of electronic and zero-point Energies=          -1120.282792
 Sum of electronic and thermal Energies=             -1120.268298
 Sum of electronic and thermal Enthalpies=           -1120.267353
 Sum of electronic and thermal Free Energies=        -1120.325152

                     E (Thermal)             CV                S
                      KCal/Mol        Cal/Mol-Kelvin    Cal/Mol-Kelvin
 Total                  131.374             54.438            121.647
 Electronic               0.000              0.000              0.000
 Translational            0.889              2.981             42.303
 Rotational               0.889              2.981             32.771
 Vibrational            129.596             48.477             46.573
 Vibration     1          0.594              1.982              5.395
 Vibration     2          0.596              1.977              4.745
 Vibration     3          0.596              1.975              4.553
 Vibration     4          0.608              1.935              3.146
 Vibration     5          0.609              1.932              3.085
 Vibration     6          0.623              1.888              2.514
 Vibration     7          0.630              1.863              2.301
 Vibration     8          0.635              1.850              2.203
 Vibration     9          0.649              1.805              1.929
 Vibration    10          0.657              1.781              1.811
 Vibration    11          0.660              1.771              1.768
 Vibration    12          0.681              1.707              1.520
 Vibration    13          0.718              1.602              1.226
 Vibration    14          0.741              1.537              1.087
 Vibration    15          0.757              1.494              1.004
 Vibration    16          0.804              1.373              0.812
 Vibration    17          0.823              1.327              0.751
 Vibration    18          0.833              1.301              0.718
 Vibration    19          0.867              1.223              0.628
 Vibration    20          0.899              1.154              0.558
 Vibration    21          0.908              1.134              0.539
 Vibration    22          0.922              1.105              0.512
 Vibration    23          0.967              1.014              0.436

 Optimization completed.
    -- Stationary point found.
 Normal termination of Gaussian 16 at Fri Dec 11 00:38:53 2020.

 ----------------------------------------------------------------------
 # B3LYP/6-311++G(d,p) empiricaldispersion=gd3bj scf=xqc pop=npa geom=c
 heck
 ----------------------------------------------------------------------

 ---------------------------------------
 CID_143612034_JID_6787_Energie_neutraal
 ---------------------------------------
 Structure from the checkpoint file:  "JID_6787.chk"
 Charge =  0 Multiplicity = 1

 SCF Done:  E(RB3LYP) =  -1120.70280707     A.U. after   16 cycles
 Normal termination of Gaussian 16 at Fri Dec 11 00:41:55 2020.

 ----------------------------------------------------------------------
 # B3LYP/6-311++G(d,p) empiricaldispersion=gd3bj scf=xqc pop=npa geom=c
 heck
 ----------------------------------------------------------------------

 -------------------------------------
 CID_143612034_JID_6787_Energie_kation
 -------------------------------------
 Structure from the checkpoint file:  "JID_6787.chk"
 Charge =  1 Multiplicity = 2

 SCF Done:  E(UB3LYP) =  -1120.38402087     A.U. after   26 cycles
 Normal termination of Gaussian 16 at Fri Dec 11 00:48:33 2020.
 Gaussian 16:  ES64L-G16RevA.03 25-Dec-2016

 ----------------------------------------------------------------------
 # B3LYP/6-311++G(d,p) empiricaldispersion=gd3bj scf=xqc pop=npa geom=c
 heck
 ----------------------------------------------------------------------

 ------------------------------------
 CID_143612034_JID_6787_Energie_anion
 ------------------------------------
 Structure from the checkpoint file:  "JID_6787.chk"
 Charge = -1 Multiplicity = 2

                         Standard orientation:
 ---------------------------------------------------------------------
 Center     Atomic      Atomic             Coordinates (Angstroms)
 Number     Number       Type             X           Y           Z
 ---------------------------------------------------------------------
      1          6           0        5.217518   -0.143335   -0.018855
      2          6           0        3.722810   -0.340153   -0.003367
      3          6           0        2.849108    0.740863   -0.020002
      4          6           0        1.461935    0.546213   -0.000953
      5          6           0        0.926088   -0.762079    0.033301
      6          6           0        1.808833   -1.855346    0.048227
      7          6           0        3.176298   -1.641415    0.030668
      8          7           0       -0.446751   -1.001195    0.056261
      9          6           0       -1.198158    0.038134    0.037843
     10          7           0       -0.794235    1.336855   -0.007362
     11          6           0        0.563731    1.709831   -0.029560
     12          8           0        0.891026    2.882740   -0.077272
     13         16           0       -3.009847   -0.177174    0.121492
     14          8           0       -3.366394   -0.733860    1.429303
     15          8           0       -3.559163    1.116216   -0.325198
     16          6           0       -3.295216   -1.431108   -1.136122
     17          1           0        5.673483   -0.637225   -0.885430
     18          1           0        5.682463   -0.571479    0.877488
     19          1           0        5.478555    0.917710   -0.059308
     20          1           0        3.219878    1.760671   -0.047534
     21          1           0        1.390009   -2.855689    0.077905
     22          1           0        3.849243   -2.495300    0.044801
     23          1           0       -1.498172    2.069579   -0.063887
     24          1           0       -3.043201   -1.016199   -2.113385
     25          1           0       -2.672687   -2.293871   -0.896916
     26          1           0       -4.356544   -1.683448   -1.081647
 ---------------------------------------------------------------------

 SCF Done:  E(UB3LYP) =  -1120.72559450     A.U. after   33 cycles
 SCF Done:  E(UB3LYP) =  -1120.72559450     a.u. after    1 cycles

 The electronic state is 2-A.
 Alpha  occ. eigenvalues --  -88.92260 -18.99592 -18.99131 -18.96661 -14.22283
 Alpha  occ. eigenvalues --  -14.16604 -10.15131 -10.10303 -10.09860 -10.07264
 Alpha  occ. eigenvalues --  -10.06120 -10.05259 -10.04697 -10.04508 -10.04457
 Alpha  occ. eigenvalues --  -10.04230  -7.98676  -5.94965  -5.94847  -5.94759
 Alpha  occ. eigenvalues --   -0.98768  -0.92022  -0.88509  -0.84896  -0.76835
 Alpha  occ. eigenvalues --   -0.72646  -0.67105  -0.65041  -0.63301  -0.58746
 Alpha  occ. eigenvalues --   -0.54111  -0.52784  -0.48047  -0.46785  -0.43229
 Alpha  occ. eigenvalues --   -0.41816  -0.39950  -0.36708  -0.35885  -0.35311
 Alpha  occ. eigenvalues --   -0.33910  -0.32777  -0.32393  -0.31980  -0.31590
 Alpha  occ. eigenvalues --   -0.31153  -0.30246  -0.29979  -0.27795  -0.25145
 Alpha  occ. eigenvalues --   -0.23989  -0.23545  -0.23248  -0.21795  -0.20573
 Alpha  occ. eigenvalues --   -0.18834  -0.18774  -0.16347  -0.14582  -0.13736
 Alpha  occ. eigenvalues --   -0.13601  -0.10326   0.03429
 Alpha virt. eigenvalues --    0.07601   0.07936   0.08083   0.09522   0.10712
 Alpha virt. eigenvalues --    0.10975   0.11558   0.11968   0.12626   0.13396
 Alpha virt. eigenvalues --    0.13729   0.13985   0.15268   0.15721   0.16145

  Beta  occ. eigenvalues --  -88.92261 -18.99561 -18.99041 -18.96676 -14.22062
  Beta  occ. eigenvalues --  -14.16491 -10.15159 -10.09853 -10.09697 -10.07127
  Beta  occ. eigenvalues --  -10.06146 -10.05287 -10.04784 -10.04385 -10.04190
  Beta  occ. eigenvalues --  -10.04032  -7.98674  -5.94966  -5.94823  -5.94774
  Beta  occ. eigenvalues --   -0.98589  -0.91951  -0.88350  -0.84356  -0.76378
  Beta  occ. eigenvalues --   -0.72319  -0.66869  -0.64715  -0.63083  -0.58334
  Beta  occ. eigenvalues --   -0.53840  -0.52562  -0.47742  -0.46599  -0.42976
  Beta  occ. eigenvalues --   -0.41582  -0.39706  -0.36382  -0.35750  -0.35234
  Beta  occ. eigenvalues --   -0.33745  -0.32441  -0.32107  -0.31676  -0.31332
  Beta  occ. eigenvalues --   -0.30694  -0.30141  -0.29947  -0.27741  -0.24310
  Beta  occ. eigenvalues --   -0.23825  -0.23156  -0.22427  -0.21590  -0.20398
  Beta  occ. eigenvalues --   -0.18605  -0.18542  -0.15179  -0.14423  -0.13572
  Beta  occ. eigenvalues --   -0.12998  -0.08829
  Beta virt. eigenvalues --    0.07547   0.07929   0.08188   0.09438   0.09532
  Beta virt. eigenvalues --    0.10848   0.11209   0.11570   0.11923   0.12653
  Beta virt. eigenvalues --    0.13372   0.13959   0.14425   0.15437   0.15751

 Mulliken charges and spin densities:
               1          2
     1  C   -0.340809  -0.026382
     2  C    0.371346   0.189447
     3  C   -0.579610  -0.078625
     4  C   -0.324552   0.150955
     5  C   -0.150011   0.073991
     6  C   -0.214755   0.071650
     7  C   -0.171618   0.004608
     8  N    0.026418   0.042120
     9  C   -0.932456   0.403486
    10  N   -0.183270   0.072643
    11  C    0.467344  -0.024992
    12  O   -0.387140  -0.001385
    13  S    0.731615   0.102152
    14  O   -0.095102  -0.042025
    15  O   -0.259827   0.005677
    16  C   -0.657709   0.002347
    17  H    0.114674   0.021280
    18  H    0.117713   0.021563
    19  H    0.139950   0.000439
    20  H    0.152905   0.004153
    21  H    0.122014  -0.003384
    22  H    0.121165  -0.000148
    23  H    0.357074  -0.002794
    24  H    0.178581   0.000926
    25  H    0.213240  -0.000923
    26  H    0.182822   0.013220
 Sum of Mulliken charges =  -1.00000   1.00000

 Dipole moment (field-independent basis, Debye):
    X=              1.0746    Y=             -3.2218    Z=             -2.7250  Tot=              4.3543
 Quadrupole moment (field-independent basis, Debye-Ang):
   XX=           -143.1773   YY=           -122.8361   ZZ=           -110.7949
   XY=              2.2690   XZ=              9.8839   YZ=              4.8478

 Summary of Natural Population Analysis:

                                       Natural Population
                Natural  -----------------------------------------------
    Atom  No    Charge         Core      Valence    Rydberg      Total
 -----------------------------------------------------------------------
      C    1   -0.29200      0.99965     2.28796    0.00438     3.29200
      C    2    0.02405      0.99953     1.96834    0.00809     2.97595
      C    3   -0.10193      0.99951     2.09380    0.00862     3.10193
      C    4   -0.05284      0.99944     2.04523    0.00818     3.05284
      C    5    0.10236      0.99946     1.88529    0.01289     2.89764
      C    6   -0.08573      0.99954     2.07603    0.01016     3.08573
      C    7   -0.10458      0.99954     2.09659    0.00845     3.10458
      N    8   -0.25551      0.99962     2.74487    0.01102     3.75551
      C    9    0.22708      0.99950     1.75101    0.02241     2.77292
      N   10   -0.28200      0.99962     2.77131    0.01106     3.78200
      C   11    0.33224      0.99962     1.64665    0.02149     2.66776
      O   12   -0.33338      0.99988     3.32673    0.00677     4.33338
      S   13    1.01415      4.99929     1.89112    0.09544     6.98585
      O   14   -0.45924      0.99991     3.45317    0.00616     4.45924
      O   15   -0.48351      0.99991     3.47779    0.00581     4.48351
      C   16   -0.39185      0.99962     2.38529    0.00694     3.39185
      H   17    0.09802      0.00000     0.40098    0.00100     0.40198
      H   18    0.09846      0.00000     0.40054    0.00100     0.40154
      H   19    0.09784      0.00000     0.40132    0.00084     0.40216
      H   20    0.10370      0.00000     0.39501    0.00129     0.39630
      H   21    0.10107      0.00000     0.39770    0.00124     0.39893
      H   22    0.09017      0.00000     0.40875    0.00108     0.40983
      H   23    0.20945      0.00000     0.28898    0.00157     0.29055
      H   24    0.11210      0.00000     0.38674    0.00116     0.38790
      H   25    0.12299      0.00000     0.37569    0.00132     0.37701
      H   26    0.10888      0.00000     0.38952    0.00160     0.39112
 =======================================================================
   * Total *    0.00001     19.99361    41.74640    0.25998    61.99999

 Normal termination of Gaussian 16 at Fri Dec 11 00:57:05 2020.
