 Gaussian 16, Revision A.03,

 -----------------------------------------------------------
 # opt freq B3LYP/6-31G(d) empiricaldispersion=gd3bj scf=xqc
 -----------------------------------------------------------

 ------------------------------
 CID_153950473_JID_749_neutraal
 ------------------------------
 Symbolic Z-matrix:
 Charge =  0 Multiplicity = 1

 SCF Done:  E(RB3LYP) =  -458.744395960     A.U. after   15 cycles
 SCF Done:  E(RB3LYP) =  -458.747961355     A.U. after   12 cycles
 SCF Done:  E(RB3LYP) =  -458.748222986     A.U. after   12 cycles
 SCF Done:  E(RB3LYP) =  -458.748385444     A.U. after   11 cycles
 SCF Done:  E(RB3LYP) =  -458.748385429     A.U. after   10 cycles
 SCF Done:  E(RB3LYP) =  -458.748403789     A.U. after   10 cycles
 SCF Done:  E(RB3LYP) =  -458.748408585     A.U. after    9 cycles
 SCF Done:  E(RB3LYP) =  -458.748410315     A.U. after    9 cycles
 SCF Done:  E(RB3LYP) =  -458.748410930     A.U. after    8 cycles
 Optimization completed.
    -- Stationary point found.
 Normal termination of Gaussian 16 at Tue Dec  8 12:28:00 2020.

 --------------------------------------------------------------------
 #N Geom=AllCheck Guess=TCheck SCRF=Check GenChk RB3LYP/6-31G(d) Freq
 --------------------------------------------------------------------

 Structure from the checkpoint file:  "JID_749.chk"
 ------------------------------
 CID_153950473_JID_749_neutraal
 ------------------------------
 Charge =  0 Multiplicity = 1

 SCF Done:  E(RB3LYP) =  -458.748410930     A.U. after    1 cycles

  Exact polarizability:  95.192  -0.736  85.285   8.283   0.948  70.905
 Approx polarizability: 133.817 -11.738 139.475  17.708  -3.297 103.296

                      1                      2                      3
                      A                      A                      A
 Frequencies --     71.4375                93.2124               129.7204
 Red. masses --      2.8254                 4.8219                 5.3025
 Frc consts  --      0.0085                 0.0247                 0.0526
 IR Inten    --      0.1445                 1.2709                 3.1080

                      4                      5                      6
                      A                      A                      A
 Frequencies --    232.8978               246.1785               266.7935
 Red. masses --      1.1838                 2.5513                 2.0462
 Frc consts  --      0.0378                 0.0911                 0.0858
 IR Inten    --      0.1927                 0.2220                 0.3095

                      7                      8                      9
                      A                      A                      A
 Frequencies --    285.3489               339.2745               380.6616
 Red. masses --      1.1284                 2.9086                 2.1398
 Frc consts  --      0.0541                 0.1973                 0.1827
 IR Inten    --      0.0642                 1.0533                 5.6029

                     10                     11                     12
                      A                      A                      A
 Frequencies --    439.3832               475.8279               508.3602
 Red. masses --      3.9640                 3.5217                 3.0673
 Frc consts  --      0.4509                 0.4698                 0.4670
 IR Inten    --      8.1280                 8.5331                23.1713

                     13                     14                     15
                      A                      A                      A
 Frequencies --    552.9252               564.8297               642.7865
 Red. masses --      3.7128                 2.1107                 1.8395
 Frc consts  --      0.6688                 0.3967                 0.4478
 IR Inten    --     45.6912                 6.0125                63.0005

                     16                     17                     18
                      A                      A                      A
 Frequencies --    677.5722               772.2966               818.1591
 Red. masses --      3.7964                 3.4428                 3.7298
 Frc consts  --      1.0269                 1.2099                 1.4710
 IR Inten    --      1.7329                 0.4473                 2.2048

                     19                     20                     21
                      A                      A                      A
 Frequencies --    894.2852               918.6325               941.0660
 Red. masses --      2.9761                 2.2512                 1.5278
 Frc consts  --      1.4023                 1.1193                 0.7972
 IR Inten    --      6.2733                 2.6825                 6.1378

                     22                     23                     24
                      A                      A                      A
 Frequencies --    944.6191               972.0990               980.6989
 Red. masses --      1.2612                 2.1914                 1.5962
 Frc consts  --      0.6630                 1.2201                 0.9045
 IR Inten    --      1.4152                15.9691                 2.3287

                     25                     26                     27
                      A                      A                      A
 Frequencies --   1019.6118              1051.7559              1099.7324
 Red. masses --      2.4626                 2.4615                 2.0326
 Frc consts  --      1.5084                 1.6043                 1.4483
 IR Inten    --      7.9810                24.9089                38.2963

                     28                     29                     30
                      A                      A                      A
 Frequencies --   1131.6164              1176.3090              1205.7068
 Red. masses --      1.8715                 1.9517                 1.5693
 Frc consts  --      1.4120                 1.5911                 1.3441
 IR Inten    --      6.1226                 1.8008                21.3717

                     31                     32                     33
                      A                      A                      A
 Frequencies --   1242.9907              1278.7290              1313.5817
 Red. masses --      1.4530                 2.3153                 1.5982
 Frc consts  --      1.3227                 2.2306                 1.6248
 IR Inten    --     20.4332                75.7344                12.5935

                     34                     35                     36
                      A                      A                      A
 Frequencies --   1339.6669              1370.0886              1391.0522
 Red. masses --      1.2800                 1.4904                 1.4128
 Frc consts  --      1.3535                 1.6484                 1.6108
 IR Inten    --      5.6971                 2.4862                 7.2691

                     37                     38                     39
                      A                      A                      A
 Frequencies --   1418.8683              1432.5501              1433.4560
 Red. masses --      1.3725                 1.3092                 1.3805
 Frc consts  --      1.6280                 1.5830                 1.6713
 IR Inten    --     12.8844                 7.2001                 1.3532

                     40                     41                     42
                      A                      A                      A
 Frequencies --   1452.8909              1468.9391              1491.5503
 Red. masses --      1.2501                 1.8667                 1.0894
 Frc consts  --      1.5547                 2.3732                 1.4280
 IR Inten    --      7.6515               116.6431                 6.5859

                     43                     44                     45
                      A                      A                      A
 Frequencies --   1518.9691              1530.4952              1541.6874
 Red. masses --      1.0450                 1.0534                 1.0562
 Frc consts  --      1.4206                 1.4538                 1.4791
 IR Inten    --      0.8193                 1.2112                 7.2202

                     46                     47                     48
                      A                      A                      A
 Frequencies --   1542.2085              1750.5811              1827.5622
 Red. masses --      1.0426                 8.0274                 9.4696
 Frc consts  --      1.4610                14.4940                18.6349
 IR Inten    --     11.2045               183.0325               299.9824

                     49                     50                     51
                      A                      A                      A
 Frequencies --   3040.9052              3044.1138              3044.4970
 Red. masses --      1.0793                 1.0657                 1.0481
 Frc consts  --      5.8801                 5.8187                 5.7237
 IR Inten    --      2.7237                22.4176                22.2034

                     52                     53                     54
                      A                      A                      A
 Frequencies --   3052.3595              3057.8310              3108.2145
 Red. masses --      1.0397                 1.0790                 1.1019
 Frc consts  --      5.7074                 5.9440                 6.2723
 IR Inten    --     22.5601                28.7639                14.2927

                     55                     56                     57
                      A                      A                      A
 Frequencies --   3112.6924              3116.9674              3130.4612
 Red. masses --      1.1019                 1.1013                 1.1010
 Frc consts  --      6.2904                 6.3040                 6.3573
 IR Inten    --     31.5307                58.2536                22.4461

                     58                     59                     60
                      A                      A                      A
 Frequencies --   3142.8994              3159.7227              3602.6009
 Red. masses --      1.0918                 1.0915                 1.0778
 Frc consts  --      6.3543                 6.4203                 8.2414
 IR Inten    --     12.7890                31.3899                36.5056

 - Thermochemistry -
 -------------------
 Temperature   298.150 Kelvin.  Pressure   1.00000 Atm.
 Atom     1 has atomic number  6 and mass  12.00000

 Molecular mass:   140.09496 amu.
 Principal axes and moments of inertia in atomic units:
                           1         2         3
     Eigenvalues --   921.715371572.158401894.29478
           X            0.99827   0.05871   0.00270
           Y           -0.05876   0.99775   0.03230
           Z           -0.00079  -0.03240   0.99947
 This molecule is an asymmetric top.
 Rotational symmetry number  1.
 Warning -- assumption of classical behavior for rotation
           may cause significant error
 Rotational temperatures (Kelvin)      0.09397     0.05509     0.04572
 Rotational constants (GHZ):           1.95802     1.14794     0.95272
 Zero-point vibrational energy     501193.0 (Joules/Mol)
                                  119.78801 (Kcal/Mol)
 Warning -- explicit consideration of  14 degrees of freedom as
           vibrations may cause significant error
 Vibrational temperatures:    102.78   134.11   186.64   335.09   354.20
          (Kelvin)            383.86   410.55   488.14   547.69   632.17
                              684.61   731.42   795.54   812.66   924.83
                              974.88  1111.16  1177.15  1286.68  1321.71
                             1353.98  1359.10  1398.63  1411.01  1466.99
                             1513.24  1582.27  1628.14  1692.45  1734.74
                             1788.39  1839.81  1889.95  1927.48  1971.25
                             2001.41  2041.43  2061.12  2062.42  2090.39
                             2113.48  2146.01  2185.46  2202.04  2218.14
                             2218.89  2518.70  2629.45  4375.18  4379.80
                             4380.35  4391.66  4399.54  4472.03  4478.47
                             4484.62  4504.04  4521.93  4546.14  5183.34

 Zero-point correction=                           0.190894 (Hartree/Particle)
 Thermal correction to Energy=                    0.200617
 Thermal correction to Enthalpy=                  0.201561
 Thermal correction to Gibbs Free Energy=         0.156183
 Sum of electronic and zero-point Energies=           -458.557517
 Sum of electronic and thermal Energies=              -458.547794
 Sum of electronic and thermal Enthalpies=            -458.546850
 Sum of electronic and thermal Free Energies=         -458.592228

                     E (Thermal)             CV                S
                      KCal/Mol        Cal/Mol-Kelvin    Cal/Mol-Kelvin
 Total                  125.889             37.213             95.506
 Electronic               0.000              0.000              0.000
 Translational            0.889              2.981             40.723
 Rotational               0.889              2.981             29.397
 Vibrational            124.111             31.251             25.386
 Vibration     1          0.598              1.968              4.113
 Vibration     2          0.602              1.954              3.591
 Vibration     3          0.612              1.924              2.950
 Vibration     4          0.654              1.791              1.856
 Vibration     5          0.661              1.769              1.758
 Vibration     6          0.672              1.734              1.617
 Vibration     7          0.683              1.701              1.501
 Vibration     8          0.719              1.597              1.216
 Vibration     9          0.750              1.511              1.037
 Vibration    10          0.799              1.384              0.829
 Vibration    11          0.832              1.304              0.721
 Vibration    12          0.864              1.231              0.638
 Vibration    13          0.908              1.133              0.538
 Vibration    14          0.921              1.107              0.514

                           ! Non-Optimized Parameters !
 Normal termination of Gaussian 16 at Tue Dec  8 12:39:32 2020.

 ----------------------------------------------------------------------
 # B3LYP/6-311++G(d,p) empiricaldispersion=gd3bj scf=xqc pop=npa geom=c
 heck
 ----------------------------------------------------------------------

 --------------------------------------
 CID_153950473_JID_749_Energie_neutraal
 --------------------------------------
 Structure from the checkpoint file:  "JID_749.chk"
 Charge =  0 Multiplicity = 1

 SCF Done:  E(RB3LYP) =  -458.882318286     A.U. after   13 cycles
 Normal termination of Gaussian 16 at Tue Dec  8 12:42:36 2020.

 ----------------------------------------------------------------------
 # B3LYP/6-311++G(d,p) empiricaldispersion=gd3bj scf=xqc pop=npa geom=c
 heck
 ----------------------------------------------------------------------

 ------------------------------------
 CID_153950473_JID_749_Energie_kation
 ------------------------------------
 Structure from the checkpoint file:  "JID_749.chk"
 Charge =  1 Multiplicity = 2

 SCF Done:  E(UB3LYP) =  -458.543346595     A.U. after   27 cycles
 Normal termination of Gaussian 16 at Tue Dec  8 12:49:40 2020.
 Gaussian 16:  ES64L-G16RevA.03 25-Dec-2016

 ----------------------------------------------------------------------
 # B3LYP/6-311++G(d,p) empiricaldispersion=gd3bj scf=xqc pop=npa geom=c
 heck
 ----------------------------------------------------------------------

 -----------------------------------
 CID_153950473_JID_749_Energie_anion
 -----------------------------------
 Structure from the checkpoint file:  "JID_749.chk"
 Charge = -1 Multiplicity = 2

                         Standard orientation:
 ---------------------------------------------------------------------
 Center     Atomic      Atomic             Coordinates (Angstroms)
 Number     Number       Type             X           Y           Z
 ---------------------------------------------------------------------
      1          6           0       -2.760202   -0.681611   -0.322207
      2          6           0       -1.716678    0.293475    0.237625
      3          6           0       -1.182131   -0.194086    1.589550
      4          6           0       -0.603227    0.582507   -0.803237
      5          6           0        0.305783   -0.625264   -1.124659
      6          6           0        1.436295   -0.821571   -0.135607
      7          8           0        1.931296   -1.891618    0.166140
      8          7           0        1.922145    0.377889    0.362039
      9          6           0        1.280592    1.603266    0.153022
     10          7           0        0.143580    1.775218   -0.387496
     11          1           0       -2.344434   -1.686722   -0.460932
     12          1           0       -3.150789   -0.341290   -1.288414
     13          1           0       -3.605560   -0.774232    0.368279
     14          1           0       -2.209080    1.261327    0.399679
     15          1           0       -0.692678   -1.171530    1.503434
     16          1           0       -0.465238    0.512751    2.018056
     17          1           0       -2.005746   -0.304318    2.303669
     18          1           0       -1.119621    0.857082   -1.730508
     19          1           0        0.783205   -0.459466   -2.100320
     20          1           0       -0.250880   -1.561600   -1.198265
     21          1           0        2.741045    0.325747    0.955357
     22          1           0        1.846730    2.463152    0.512129
 ---------------------------------------------------------------------

 SCF Done:  E(UB3LYP) =  -458.870994143     A.U. after   32 cycles

 The electronic state is 2-A.
 Alpha  occ. eigenvalues --  -18.98940 -14.24105 -14.18423 -10.16762 -10.13162
 Alpha  occ. eigenvalues --  -10.09560 -10.07161 -10.07048 -10.05879 -10.05339
 Alpha  occ. eigenvalues --   -0.94096  -0.85910  -0.77820  -0.70303  -0.65253
 Alpha  occ. eigenvalues --   -0.58431  -0.56715  -0.53335  -0.47030  -0.44524
 Alpha  occ. eigenvalues --   -0.40020  -0.38434  -0.37450  -0.34122  -0.32571
 Alpha  occ. eigenvalues --   -0.32383  -0.30984  -0.30658  -0.28673  -0.27434
 Alpha  occ. eigenvalues --   -0.26656  -0.25861  -0.23535  -0.22976  -0.20996
 Alpha  occ. eigenvalues --   -0.15600  -0.15169  -0.14153   0.04678
 Alpha virt. eigenvalues --    0.06883   0.07331   0.08610   0.09547   0.09787
 Alpha virt. eigenvalues --    0.10714   0.11029   0.11840   0.12697   0.13657
 Alpha virt. eigenvalues --    0.13735   0.15048   0.15228   0.16085   0.16877

  Beta  occ. eigenvalues --  -18.98873 -14.24090 -14.18379 -10.16680 -10.13101
  Beta  occ. eigenvalues --  -10.09546 -10.07150 -10.07034 -10.05852 -10.05319
  Beta  occ. eigenvalues --   -0.93964  -0.85818  -0.77735  -0.70253  -0.65169
  Beta  occ. eigenvalues --   -0.58380  -0.56626  -0.53191  -0.46935  -0.44421
  Beta  occ. eigenvalues --   -0.39933  -0.38327  -0.37330  -0.34061  -0.32494
  Beta  occ. eigenvalues --   -0.32237  -0.30897  -0.30590  -0.28616  -0.27353
  Beta  occ. eigenvalues --   -0.26609  -0.25690  -0.23475  -0.22927  -0.20835
  Beta  occ. eigenvalues --   -0.15526  -0.15103  -0.13991
  Beta virt. eigenvalues --    0.07056   0.08015   0.08553   0.09181   0.09922
  Beta virt. eigenvalues --    0.10307   0.11405   0.11628   0.12025   0.12894
  Beta virt. eigenvalues --    0.13923   0.14139   0.15224   0.15528   0.16154

 Mulliken charges and spin densities:
               1          2
     1  C    0.575747  -1.236371
     2  C   -0.561126   0.707683
     3  C   -0.264110  -0.298256
     4  C    0.197277  -0.071821
     5  C    1.109876  -1.767532
     6  C   -0.077943   0.118996
     7  O   -0.370766   0.072674
     8  N   -0.164518  -0.047175
     9  C    0.833101  -0.895449
    10  N   -0.113737   0.015794
    11  H   -0.007438   0.129818
    12  H   -0.236441   0.366967
    13  H   -0.088193   0.219506
    14  H   -0.039980   0.244429
    15  H    0.128855   0.049393
    16  H    0.100347   0.048849
    17  H   -0.119064   0.271081
    18  H   -0.245906   0.513407
    19  H   -0.309154   0.511918
    20  H    0.239275  -0.066704
    21  H   -0.361445   0.698651
    22  H   -1.224656   1.414145
 Sum of Mulliken charges =  -1.00000   1.00000

 Dipole moment (field-independent basis, Debye):
    X=             -3.6185    Y=             -2.5653    Z=              0.5093  Tot=              4.4647
 Quadrupole moment (field-independent basis, Debye-Ang):
   XX=           -114.2759   YY=           -101.2093   ZZ=            -92.3510
   XY=             -3.2847   XZ=             -5.9211   YZ=             -0.5679

 Summary of Natural Population Analysis:

                                       Natural Population
                Natural  -----------------------------------------------
    Atom  No    Charge         Core      Valence    Rydberg      Total
 -----------------------------------------------------------------------
      C    1   -0.28511      0.99965     2.27903    0.00643     3.28511
      C    2   -0.11340      0.99959     2.10343    0.01038     3.11340
      C    3   -0.28957      0.99964     2.28490    0.00503     3.28957
      C    4   -0.01887      0.99955     2.00428    0.01504     3.01887
      C    5   -0.24831      0.99957     2.23918    0.00956     3.24831
      C    6    0.36189      0.99966     1.61531    0.02314     2.63811
      O    7   -0.30446      0.99987     3.29887    0.00571     4.30446
      N    8   -0.33201      0.99967     2.82046    0.01188     3.83201
      C    9    0.15411      0.99960     1.82802    0.01827     2.84589
      N   10   -0.25026      0.99970     2.73843    0.01213     3.75026
      H   11    0.09469      0.00000     0.40436    0.00095     0.40531
      H   12    0.10063      0.00000     0.39812    0.00125     0.39937
      H   13    0.09863      0.00000     0.40055    0.00082     0.40137
      H   14    0.10007      0.00000     0.39818    0.00175     0.39993
      H   15    0.09887      0.00000     0.40011    0.00102     0.40113
      H   16    0.10388      0.00000     0.39503    0.00110     0.39612
      H   17    0.09815      0.00000     0.40097    0.00089     0.40185
      H   18    0.10185      0.00000     0.39561    0.00254     0.39815
      H   19    0.11852      0.00000     0.37945    0.00204     0.38148
      H   20    0.11272      0.00000     0.38617    0.00111     0.38728
      H   21    0.20693      0.00000     0.28335    0.00972     0.29307
      H   22    0.09102      0.00000     0.40498    0.00399     0.40898
 =======================================================================
   * Total *   -0.00000      9.99650    27.85876    0.14474    38.00000

 Normal termination of Gaussian 16 at Tue Dec  8 13:04:42 2020.
