 Gaussian 16, Revision A.03,

 -----------------------------------------------------------
 # opt freq B3LYP/6-31G(d) empiricaldispersion=gd3bj scf=xqc
 -----------------------------------------------------------

 ------------------------------
 CID_84013727_JID_2167_neutraal
 ------------------------------
 Symbolic Z-matrix:
 Charge =  0 Multiplicity = 1

 SCF Done:  E(RB3LYP) =  -626.616132892     A.U. after   15 cycles
 SCF Done:  E(RB3LYP) =  -626.621301998     A.U. after   14 cycles
 SCF Done:  E(RB3LYP) =  -626.621895443     A.U. after   12 cycles
 SCF Done:  E(RB3LYP) =  -626.622176760     A.U. after   12 cycles
 SCF Done:  E(RB3LYP) =  -626.622159605     A.U. after   13 cycles
 SCF Done:  E(RB3LYP) =  -626.622618270     A.U. after   11 cycles
 SCF Done:  E(RB3LYP) =  -626.622702296     A.U. after   11 cycles
 SCF Done:  E(RB3LYP) =  -626.622711733     A.U. after   11 cycles
 SCF Done:  E(RB3LYP) =  -626.622722182     A.U. after    9 cycles
 SCF Done:  E(RB3LYP) =  -626.622727033     A.U. after    9 cycles
 SCF Done:  E(RB3LYP) =  -626.622729640     A.U. after    9 cycles
 SCF Done:  E(RB3LYP) =  -626.622730817     A.U. after    9 cycles
 SCF Done:  E(RB3LYP) =  -626.622731511     A.U. after    8 cycles
 SCF Done:  E(RB3LYP) =  -626.622731645     A.U. after    7 cycles
 Optimization completed.
    -- Stationary point found.
 Normal termination of Gaussian 16 at Wed Dec  9 16:50:03 2020.

 --------------------------------------------------------------------
 #N Geom=AllCheck Guess=TCheck SCRF=Check GenChk RB3LYP/6-31G(d) Freq
 --------------------------------------------------------------------

 Structure from the checkpoint file:  "JID_2167.chk"
 ------------------------------
 CID_84013727_JID_2167_neutraal
 ------------------------------
 Charge =  0 Multiplicity = 1

 SCF Done:  E(RB3LYP) =  -626.622731645     A.U. after    1 cycles

  Exact polarizability: 136.199  -2.495 107.327  -0.540  -0.178  41.531
 Approx polarizability: 183.303  -6.144 208.781  -0.672   1.572  63.710

                      1                      2                      3
                      A                      A                      A
 Frequencies --     58.7184                72.4429               117.7336
 Red. masses --     11.6277                 3.6045                 8.1312
 Frc consts  --      0.0236                 0.0111                 0.0664
 IR Inten    --      0.0392                 2.2845                 0.5952

                      4                      5                      6
                      A                      A                      A
 Frequencies --    124.3802               169.1807               219.4196
 Red. masses --      7.4149                 2.0605                 4.3546
 Frc consts  --      0.0676                 0.0347                 0.1235
 IR Inten    --      1.4096                 5.0510                 3.5938

                      7                      8                      9
                      A                      A                      A
 Frequencies --    224.5727               311.0972               325.3338
 Red. masses --      1.5240                 2.2871                 2.0444
 Frc consts  --      0.0453                 0.1304                 0.1275
 IR Inten    --      1.0751                16.0654                 1.0034

                     10                     11                     12
                      A                      A                      A
 Frequencies --    342.6743               346.6948               424.4754
 Red. masses --      2.6963                 3.6009                 5.8210
 Frc consts  --      0.1865                 0.2550                 0.6180
 IR Inten    --      5.3853                 4.1006                11.5857

                     13                     14                     15
                      A                      A                      A
 Frequencies --    487.1727               544.0156               570.9876
 Red. masses --      8.5447                 2.3225                 1.4984
 Frc consts  --      1.1949                 0.4050                 0.2878
 IR Inten    --     12.7873                 5.6280               237.3069

                     16                     17                     18
                      A                      A                      A
 Frequencies --    595.8415               603.3610               623.7655
 Red. masses --      1.7210                 3.5711                 3.8335
 Frc consts  --      0.3600                 0.7660                 0.8788
 IR Inten    --    116.4609                 9.7942                11.6208

                     19                     20                     21
                      A                      A                      A
 Frequencies --    653.0149               673.8437               694.8515
 Red. masses --      3.1382                 3.8893                 4.0950
 Frc consts  --      0.7885                 1.0405                 1.1649
 IR Inten    --     52.4509                30.7713                11.3951

                     22                     23                     24
                      A                      A                      A
 Frequencies --    763.0928               770.1432               830.3920
 Red. masses --      5.5313                 5.0948                 1.5473
 Frc consts  --      1.8977                 1.7804                 0.6286
 IR Inten    --     40.2030                18.5088                17.7226

                     25                     26                     27
                      A                      A                      A
 Frequencies --    967.2015               992.1256              1052.1114
 Red. masses --      2.2792                 5.7163                 1.7346
 Frc consts  --      1.2562                 3.3151                 1.1313
 IR Inten    --     32.6758                14.7034                 3.7179

                     28                     29                     30
                      A                      A                      A
 Frequencies --   1059.7272              1128.1746              1160.6267
 Red. masses --      1.7761                 2.8853                 2.9083
 Frc consts  --      1.1752                 2.1637                 2.3082
 IR Inten    --      2.0204                41.1590               257.0672

                     31                     32                     33
                      A                      A                      A
 Frequencies --   1179.7168              1224.1044              1321.2112
 Red. masses --      2.1568                 2.5941                 3.8926
 Frc consts  --      1.7686                 2.2902                 4.0034
 IR Inten    --    272.2124                43.1065               138.2119

                     34                     35                     36
                      A                      A                      A
 Frequencies --   1335.4197              1404.9160              1410.2304
 Red. masses --      2.2576                 2.3287                 1.8980
 Frc consts  --      2.3721                 2.7081                 2.2240
 IR Inten    --     32.6261               208.8691                 9.9340

                     37                     38                     39
                      A                      A                      A
 Frequencies --   1501.1111              1511.3692              1521.7277
 Red. masses --      1.3855                 1.0655                 2.4603
 Frc consts  --      1.8394                 1.4340                 3.3567
 IR Inten    --     33.4380                10.4823                46.1235

                     40                     41                     42
                      A                      A                      A
 Frequencies --   1560.2633              1645.1554              1699.0602
 Red. masses --      7.8577                 4.7865                 1.2491
 Frc consts  --     11.2704                 7.6328                 2.1246
 IR Inten    --     31.0741               101.7785               118.4377

                     43                     44                     45
                      A                      A                      A
 Frequencies --   1765.4684              1844.4090              3034.4703
 Red. masses --     10.6841                10.1688                 1.0427
 Frc consts  --     19.6203                20.3815                 5.6569
 IR Inten    --    211.3641               347.9043                 6.8045

                     46                     47                     48
                      A                      A                      A
 Frequencies --   3101.2066              3168.8367              3280.6367
 Red. masses --      1.0968                 1.0992                 1.0974
 Frc consts  --      6.2150                 6.5034                 6.9588
 IR Inten    --     10.3488                 6.1757                 0.0410

                     49                     50                     51
                      A                      A                      A
 Frequencies --   3573.8213              3673.8013              3702.6558
 Red. masses --      1.0483                 1.0982                 1.0642
 Frc consts  --      7.8887                 8.7330                 8.5961
 IR Inten    --     20.6034                21.5230                95.2035

 - Thermochemistry -
 -------------------
 Temperature   298.150 Kelvin.  Pressure   1.00000 Atm.
 Atom     1 has atomic number  6 and mass  12.00000

 Molecular mass:   169.03751 amu.
 Principal axes and moments of inertia in atomic units:
                           1         2         3
     Eigenvalues --  1006.465183008.355494001.80123
           X            0.99997   0.00819  -0.00119
           Y           -0.00820   0.99995  -0.00510
           Z            0.00115   0.00511   0.99999
 This molecule is an asymmetric top.
 Rotational symmetry number  1.
 Warning -- assumption of classical behavior for rotation
           may cause significant error
 Rotational temperatures (Kelvin)      0.08606     0.02879     0.02164
 Rotational constants (GHZ):           1.79315     0.59991     0.45098
 Zero-point vibrational energy     367054.8 (Joules/Mol)
                                   87.72819 (Kcal/Mol)
 Warning -- explicit consideration of  17 degrees of freedom as
           vibrations may cause significant error
 Vibrational temperatures:     84.48   104.23   169.39   178.96   243.41
          (Kelvin)            315.70   323.11   447.60   468.08   493.03
                              498.82   610.73   700.93   782.72   821.52
                              857.28   868.10   897.46   939.54   969.51
                              999.74  1097.92  1108.06  1194.75  1391.59
                             1427.45  1513.75  1524.71  1623.19  1669.88
                             1697.35  1761.21  1900.93  1921.37  2021.36
                             2029.01  2159.76  2174.52  2189.43  2244.87
                             2367.01  2444.57  2540.12  2653.69  4365.93
                             4461.94  4559.25  4720.10  5141.93  5285.78
                             5327.30

 Zero-point correction=                           0.139804 (Hartree/Particle)
 Thermal correction to Energy=                    0.151078
 Thermal correction to Enthalpy=                  0.152022
 Thermal correction to Gibbs Free Energy=         0.102344
 Sum of electronic and zero-point Energies=           -626.482928
 Sum of electronic and thermal Energies=              -626.471654
 Sum of electronic and thermal Enthalpies=            -626.470709
 Sum of electronic and thermal Free Energies=         -626.520387

                     E (Thermal)             CV                S
                      KCal/Mol        Cal/Mol-Kelvin    Cal/Mol-Kelvin
 Total                   94.803             41.580            104.555
 Electronic               0.000              0.000              0.000
 Translational            0.889              2.981             41.283
 Rotational               0.889              2.981             30.872
 Vibrational             93.025             35.618             32.400
 Vibration     1          0.596              1.974              4.500
 Vibration     2          0.599              1.967              4.086
 Vibration     3          0.608              1.935              3.137
 Vibration     4          0.610              1.929              3.031
 Vibration     5          0.625              1.880              2.445
 Vibration     6          0.647              1.812              1.964
 Vibration     7          0.649              1.804              1.922
 Vibration     8          0.700              1.653              1.356
 Vibration     9          0.709              1.625              1.283
 Vibration    10          0.722              1.590              1.200
 Vibration    11          0.725              1.582              1.181
 Vibration    12          0.786              1.417              0.877
 Vibration    13          0.843              1.278              0.691
 Vibration    14          0.899              1.153              0.557
 Vibration    15          0.927              1.094              0.502
 Vibration    16          0.954              1.041              0.457
 Vibration    17          0.962              1.025              0.444

                           ! Non-Optimized Parameters !
 Normal termination of Gaussian 16 at Wed Dec  9 16:53:25 2020.

 ----------------------------------------------------------------------
 # B3LYP/6-311++G(d,p) empiricaldispersion=gd3bj scf=xqc pop=npa geom=c
 heck
 ----------------------------------------------------------------------

 --------------------------------------
 CID_84013727_JID_2167_Energie_neutraal
 --------------------------------------
 Structure from the checkpoint file:  "JID_2167.chk"
 Charge =  0 Multiplicity = 1

 SCF Done:  E(RB3LYP) =  -626.819628675     A.U. after   15 cycles
 Normal termination of Gaussian 16 at Wed Dec  9 16:54:45 2020.

 ----------------------------------------------------------------------
 # B3LYP/6-311++G(d,p) empiricaldispersion=gd3bj scf=xqc pop=npa geom=c
 heck
 ----------------------------------------------------------------------

 ------------------------------------
 CID_84013727_JID_2167_Energie_kation
 ------------------------------------
 Structure from the checkpoint file:  "JID_2167.chk"
 Charge =  1 Multiplicity = 2

 SCF Done:  E(UB3LYP) =  -626.504209643     A.U. after   26 cycles
 Normal termination of Gaussian 16 at Wed Dec  9 16:57:57 2020.
 Gaussian 16:  ES64L-G16RevA.03 25-Dec-2016

 ----------------------------------------------------------------------
 # B3LYP/6-311++G(d,p) empiricaldispersion=gd3bj scf=xqc pop=npa geom=c
 heck
 ----------------------------------------------------------------------

 -----------------------------------
 CID_84013727_JID_2167_Energie_anion
 -----------------------------------
 Structure from the checkpoint file:  "JID_2167.chk"
 Charge = -1 Multiplicity = 2

                         Standard orientation:
 ---------------------------------------------------------------------
 Center     Atomic      Atomic             Coordinates (Angstroms)
 Number     Number       Type             X           Y           Z
 ---------------------------------------------------------------------
      1          6           0        3.483376   -0.199082    0.025828
      2          6           0        2.154015   -0.940284    0.002096
      3          8           0        2.104727   -2.161344   -0.004219
      4          6           0        0.942717   -0.123053   -0.010049
      5          6           0        0.693916    1.249621   -0.001243
      6          6           0       -0.724790    1.393504    0.009341
      7          6           0       -1.237544    0.121777    0.000740
      8          8           0       -0.254797   -0.798877   -0.013208
      9          6           0       -2.619978   -0.374090   -0.000115
     10          8           0       -2.953501   -1.536976   -0.013932
     11          8           0       -3.499684    0.662667    0.016169
     12          7           0        1.595416    2.298440    0.059439
     13          1           0        4.284395   -0.932420    0.132261
     14          1           0        3.530601    0.516706    0.855115
     15          1           0        3.639431    0.350648   -0.912994
     16          1           0       -1.293151    2.312214    0.023800
     17          1           0       -4.385680    0.255824    0.016073
     18          1           0        2.511758    2.124505   -0.328923
     19          1           0        1.220507    3.189334   -0.239470
 ---------------------------------------------------------------------

 SCF Done:  E(UB3LYP) =  -626.844338451     A.U. after   25 cycles

 The electronic state is 2-A.
 Alpha  occ. eigenvalues --  -19.02028 -19.01270 -18.94280 -18.92620 -14.20466
 Alpha  occ. eigenvalues --  -10.12982 -10.08280 -10.07178 -10.06374 -10.05853
 Alpha  occ. eigenvalues --  -10.04338 -10.02067  -0.96000  -0.94723  -0.86576
 Alpha  occ. eigenvalues --   -0.86079  -0.79768  -0.64289  -0.62674  -0.59603
 Alpha  occ. eigenvalues --   -0.51836  -0.46291  -0.44177  -0.42669  -0.38674
 Alpha  occ. eigenvalues --   -0.35462  -0.33310  -0.32547  -0.31691  -0.31344
 Alpha  occ. eigenvalues --   -0.30615  -0.28034  -0.27996  -0.26821  -0.25514
 Alpha  occ. eigenvalues --   -0.24282  -0.22027  -0.21202  -0.20813  -0.17922
 Alpha  occ. eigenvalues --   -0.12774  -0.11392  -0.09165  -0.07729   0.03983
 Alpha virt. eigenvalues --    0.07610   0.09334   0.09857   0.11622   0.12331
 Alpha virt. eigenvalues --    0.12981   0.13580   0.14959   0.16504   0.17077
 Alpha virt. eigenvalues --    0.17289   0.17906   0.18647   0.19576   0.19904

  Beta  occ. eigenvalues --  -19.01949 -19.00933 -18.93932 -18.92209 -14.20449
  Beta  occ. eigenvalues --  -10.12746 -10.08069 -10.07133 -10.06106 -10.05771
  Beta  occ. eigenvalues --  -10.04355 -10.02007  -0.95572  -0.94296  -0.85861
  Beta  occ. eigenvalues --   -0.85539  -0.79698  -0.63959  -0.62184  -0.59267
  Beta  occ. eigenvalues --   -0.51217  -0.46152  -0.43852  -0.42368  -0.38585
  Beta  occ. eigenvalues --   -0.35069  -0.32935  -0.31768  -0.31285  -0.31028
  Beta  occ. eigenvalues --   -0.29777  -0.27755  -0.27085  -0.26623  -0.25183
  Beta  occ. eigenvalues --   -0.23988  -0.21436  -0.20888  -0.18967  -0.16463
  Beta  occ. eigenvalues --   -0.12417  -0.10121  -0.08786  -0.06153
  Beta virt. eigenvalues --    0.07595   0.09331   0.09856   0.10302   0.11612
  Beta virt. eigenvalues --    0.12389   0.13336   0.14921   0.14985   0.16518
  Beta virt. eigenvalues --    0.17111   0.17647   0.17921   0.18669   0.19607

 Mulliken charges and spin densities:
               1          2
     1  C   -0.313619  -0.006213
     2  C   -0.598207   0.106694
     3  O   -0.384947   0.148699
     4  C    0.694226   0.110922
     5  C   -0.600374   0.022710
     6  C   -0.069984   0.053493
     7  C   -0.265234   0.184905
     8  O   -0.084204   0.075212
     9  C    0.324589   0.147393
    10  O   -0.398906   0.122425
    11  O   -0.235512   0.015616
    12  N   -0.339223   0.008998
    13  H    0.158092  -0.001924
    14  H    0.139723   0.005115
    15  H    0.107282   0.008917
    16  H    0.147030  -0.004031
    17  H    0.260522  -0.001267
    18  H    0.235794   0.001165
    19  H    0.222951   0.001171
 Sum of Mulliken charges =  -1.00000   1.00000

 Dipole moment (field-independent basis, Debye):
    X=              1.3693    Y=              7.4991    Z=             -0.8322  Tot=              7.6684
 Quadrupole moment (field-independent basis, Debye-Ang):
   XX=            -90.6618   YY=            -91.2956   ZZ=            -75.0297
   XY=              3.5206   XZ=             -2.0242   YZ=             -2.9333

 Summary of Natural Population Analysis:

                                       Natural Population
                Natural  -----------------------------------------------
    Atom  No    Charge         Core      Valence    Rydberg      Total
 -----------------------------------------------------------------------
      C    1   -0.33266      0.99965     2.32852    0.00449     3.33266
      C    2    0.26464      0.99964     1.71514    0.02058     2.73536
      O    3   -0.25914      0.99988     3.25124    0.00802     4.25914
      C    4    0.08778      0.99939     1.89960    0.01323     2.91222
      C    5    0.05750      0.99948     1.93214    0.01089     2.94250
      C    6   -0.15413      0.99951     2.14600    0.00863     3.15413
      C    7    0.16306      0.99943     1.82329    0.01422     2.83694
      O    8   -0.17979      0.99985     3.17152    0.00841     4.17979
      C    9    0.40153      0.99967     1.57564    0.02317     2.59847
      O   10   -0.28122      0.99987     3.27453    0.00682     4.28122
      O   11   -0.35498      0.99988     3.34742    0.00768     4.35498
      N   12   -0.40206      0.99971     2.89245    0.00990     3.90206
      H   13    0.10400      0.00000     0.39405    0.00195     0.39600
      H   14    0.10095      0.00000     0.39766    0.00139     0.39905
      H   15    0.09482      0.00000     0.40381    0.00137     0.40518
      H   16    0.10108      0.00000     0.39794    0.00098     0.39892
      H   17    0.22655      0.00000     0.26788    0.00557     0.27345
      H   18    0.18349      0.00000     0.31471    0.00180     0.31651
      H   19    0.17859      0.00000     0.31988    0.00153     0.32141
 =======================================================================
   * Total *   -0.00000     11.99595    31.85342    0.15063    44.00000

 Normal termination of Gaussian 16 at Wed Dec  9 17:10:53 2020.
