 Gaussian 16, Revision A.03,

 -----------------------------------------------------------
 # opt freq B3LYP/6-31G(d) empiricaldispersion=gd3bj scf=xqc
 -----------------------------------------------------------

 -------------------------------
 CID_104377242_JID_1682_neutraal
 -------------------------------
 Symbolic Z-matrix:
 Charge =  0 Multiplicity = 1

 SCF Done:  E(RB3LYP) =  -823.408991619     A.U. after   12 cycles
 SCF Done:  E(RB3LYP) =  -823.414066860     A.U. after   11 cycles
 SCF Done:  E(RB3LYP) =  -823.415209883     A.U. after   11 cycles
 SCF Done:  E(RB3LYP) =  -823.415386194     A.U. after   10 cycles
 SCF Done:  E(RB3LYP) =  -823.415476388     A.U. after   10 cycles
 SCF Done:  E(RB3LYP) =  -823.415479785     A.U. after    9 cycles
 SCF Done:  E(RB3LYP) =  -823.415480891     A.U. after    7 cycles
 SCF Done:  E(RB3LYP) =  -823.415481218     A.U. after    7 cycles
 Optimization completed.
    -- Stationary point found.
 Normal termination of Gaussian 16 at Tue Dec  8 20:11:14 2020.

 --------------------------------------------------------------------
 #N Geom=AllCheck Guess=TCheck SCRF=Check GenChk RB3LYP/6-31G(d) Freq
 --------------------------------------------------------------------

 Structure from the checkpoint file:  "JID_1682.chk"
 -------------------------------
 CID_104377242_JID_1682_neutraal
 -------------------------------
 Charge =  0 Multiplicity = 1

 SCF Done:  E(RB3LYP) =  -823.415481218     A.U. after    1 cycles

  Exact polarizability: 133.822  -1.206 114.357   1.563  -2.658  92.643
 Approx polarizability: 165.344  -1.007 165.662   1.584  -5.303 146.143

                      1                      2                      3
                      A                      A                      A
 Frequencies --     30.9227                46.0005                59.1384
 Red. masses --      3.6091                 4.0525                 3.7329
 Frc consts  --      0.0020                 0.0051                 0.0077
 IR Inten    --      0.4231                 0.8697                 0.7272

                      4                      5                      6
                      A                      A                      A
 Frequencies --     89.9926               119.9660               171.0279
 Red. masses --      3.0023                 2.8171                 1.5999
 Frc consts  --      0.0143                 0.0239                 0.0276
 IR Inten    --      1.6197                 0.9562                 1.2445

                      7                      8                      9
                      A                      A                      A
 Frequencies --    199.8816               243.8017               254.1468
 Red. masses --      4.0487                 2.2225                 1.8896
 Frc consts  --      0.0953                 0.0778                 0.0719
 IR Inten    --      3.1672                 0.7833                 1.5406

                     10                     11                     12
                      A                      A                      A
 Frequencies --    267.3244               314.8245               360.5670
 Red. masses --      1.6774                 2.1129                 2.1376
 Frc consts  --      0.0706                 0.1234                 0.1637
 IR Inten    --      2.3936                 2.9364                10.3735

                     13                     14                     15
                      A                      A                      A
 Frequencies --    406.5962               437.3762               506.8919
 Red. masses --      2.2668                 3.8709                 3.4289
 Frc consts  --      0.2208                 0.4363                 0.5191
 IR Inten    --      2.2754                 2.2500                 0.6234

                     16                     17                     18
                      A                      A                      A
 Frequencies --    539.7253               599.5119               619.9142
 Red. masses --      2.3847                 2.4483                 3.7470
 Frc consts  --      0.4093                 0.5185                 0.8484
 IR Inten    --      3.2701                 7.4295                 4.8485

                     19                     20                     21
                      A                      A                      A
 Frequencies --    683.2617               734.0802               809.4514
 Red. masses --      3.8582                 1.4361                 1.3844
 Frc consts  --      1.0612                 0.4559                 0.5344
 IR Inten    --      4.8669               229.4869                17.4187

                     22                     23                     24
                      A                      A                      A
 Frequencies --    838.5854               866.7943               880.0591
 Red. masses --      1.7597                 1.4215                 1.8266
 Frc consts  --      0.7291                 0.6293                 0.8335
 IR Inten    --     13.7053                15.0983                 7.6068

                     25                     26                     27
                      A                      A                      A
 Frequencies --    905.6549               923.6645               956.3981
 Red. masses --      2.0803                 2.0397                 1.5655
 Frc consts  --      1.0053                 1.0253                 0.8437
 IR Inten    --     21.4600                13.8197                 9.1187

                     28                     29                     30
                      A                      A                      A
 Frequencies --    999.4091              1008.3797              1022.1176
 Red. masses --      1.9003                 2.3707                 2.4850
 Frc consts  --      1.1183                 1.4203                 1.5296
 IR Inten    --      2.8088                 6.7063                 6.8644

                     31                     32                     33
                      A                      A                      A
 Frequencies --   1047.5281              1067.3849              1076.7353
 Red. masses --      1.5878                 1.6343                 1.6134
 Frc consts  --      1.0265                 1.0970                 1.1021
 IR Inten    --      5.1621                 1.0133                 3.1293

                     34                     35                     36
                      A                      A                      A
 Frequencies --   1120.6511              1139.0031              1157.2184
 Red. masses --      2.0894                 1.7178                 2.1304
 Frc consts  --      1.5460                 1.3131                 1.6809
 IR Inten    --      5.1189                 1.3142                36.3942

                     37                     38                     39
                      A                      A                      A
 Frequencies --   1170.2440              1187.9828              1201.7143
 Red. masses --      1.4515                 2.4178                 1.6606
 Frc consts  --      1.1712                 2.0104                 1.4130
 IR Inten    --     20.4844                12.4811                16.3716

                     40                     41                     42
                      A                      A                      A
 Frequencies --   1207.7271              1234.6239              1255.5402
 Red. masses --      1.7170                 1.2860                 1.3769
 Frc consts  --      1.4756                 1.1549                 1.2789
 IR Inten    --      4.2504                15.5086                 2.2579

                     43                     44                     45
                      A                      A                      A
 Frequencies --   1300.0375              1311.9887              1324.0895
 Red. masses --      1.2712                 1.2998                 1.2754
 Frc consts  --      1.2658                 1.3182                 1.3174
 IR Inten    --      6.6050                19.5710                 1.6406

                     46                     47                     48
                      A                      A                      A
 Frequencies --   1335.3381              1358.3535              1368.1490
 Red. masses --      1.2834                 1.2164                 1.3821
 Frc consts  --      1.3483                 1.3223                 1.5243
 IR Inten    --      4.3957                16.1385                 0.1210

                     49                     50                     51
                      A                      A                      A
 Frequencies --   1387.8998              1400.5535              1415.8438
 Red. masses --      1.3215                 1.2767                 1.3111
 Frc consts  --      1.4998                 1.4755                 1.5486
 IR Inten    --      0.6748                23.3846                 7.2072

                     52                     53                     54
                      A                      A                      A
 Frequencies --   1423.2511              1481.3078              1497.8415
 Red. masses --      1.2935                 1.1376                 1.0908
 Frc consts  --      1.5438                 1.4707                 1.4418
 IR Inten    --      2.7294                 0.6516                 2.0389

                     55                     56                     57
                      A                      A                      A
 Frequencies --   1500.7556              1506.6368              1513.8024
 Red. masses --      1.1161                 1.2069                 1.0916
 Frc consts  --      1.4811                 1.6141                 1.4738
 IR Inten    --      2.4678                 7.3428                 1.2478

                     58                     59                     60
                      A                      A                      A
 Frequencies --   1514.3151              1517.8991              1523.8931
 Red. masses --      1.0877                 1.2145                 1.0712
 Frc consts  --      1.4696                 1.6487                 1.4657
 IR Inten    --      5.6900                33.0519                 2.6285

                     61                     62                     63
                      A                      A                      A
 Frequencies --   1532.9853              1540.3028              1553.6037
 Red. masses --      1.1048                 1.0852                 1.0519
 Frc consts  --      1.5297                 1.5170                 1.4959
 IR Inten    --      0.7716                13.1066                 4.7992

                     64                     65                     66
                      A                      A                      A
 Frequencies --   2962.0009              2979.0309              3025.2009
 Red. masses --      1.0689                 1.0592                 1.0627
 Frc consts  --      5.5254                 5.5385                 5.7303
 IR Inten    --     25.9001                90.3979                30.3967

                     67                     68                     69
                      A                      A                      A
 Frequencies --   3036.7519              3040.7418              3055.6527
 Red. masses --      1.0656                 1.0645                 1.0603
 Frc consts  --      5.7900                 5.7990                 5.8329
 IR Inten    --     36.1605                32.2285                30.6931

                     70                     71                     72
                      A                      A                      A
 Frequencies --   3056.5970              3069.4627              3070.0494
 Red. masses --      1.0871                 1.0894                 1.0769
 Frc consts  --      5.9843                 6.0475                 5.9804
 IR Inten    --     57.2693                 0.8921                56.0575

                     73                     74                     75
                      A                      A                      A
 Frequencies --   3076.2152              3084.0150              3096.2450
 Red. masses --      1.0656                 1.0968                 1.1007
 Frc consts  --      5.9414                 6.1465                 6.2169
 IR Inten    --     21.9643                29.1120                34.2570

                     76                     77                     78
                      A                      A                      A
 Frequencies --   3097.0693              3104.2996              3115.4947
 Red. masses --      1.0976                 1.1020                 1.1022
 Frc consts  --      6.2031                 6.2568                 6.3033
 IR Inten    --     27.9049                68.5927                32.4386

                     79                     80                     81
                      A                      A                      A
 Frequencies --   3136.0401              3486.5882              3508.3752
 Red. masses --      1.1068                 1.0728                 1.0740
 Frc consts  --      6.4132                 7.6836                 7.7888
 IR Inten    --     17.3266                 0.3107                 0.7492

 - Thermochemistry -
 -------------------
 Temperature   298.150 Kelvin.  Pressure   1.00000 Atm.
 Atom     1 has atomic number  6 and mass  12.00000

 Molecular mass:   174.11907 amu.
 Principal axes and moments of inertia in atomic units:
                           1         2         3
     Eigenvalues --   976.969223837.643014484.79954
           X            0.99995   0.00956   0.00299
           Y           -0.00955   0.99995  -0.00101
           Z           -0.00300   0.00098   1.00000
 This molecule is an asymmetric top.
 Rotational symmetry number  1.
 Warning -- assumption of classical behavior for rotation
           may cause significant error
 Rotational temperatures (Kelvin)      0.08866     0.02257     0.01931
 Rotational constants (GHZ):           1.84729     0.47027     0.40241
 Zero-point vibrational energy     694255.7 (Joules/Mol)
                                  165.93111 (Kcal/Mol)
 Warning -- explicit consideration of  18 degrees of freedom as
           vibrations may cause significant error
 Vibrational temperatures:     44.49    66.18    85.09   129.48   172.60
          (Kelvin)            246.07   287.59   350.78   365.66   384.62
                              452.96   518.78   585.00   629.29   729.30
                              776.54   862.56   891.92   983.06  1056.18
                             1164.62  1206.54  1247.12  1266.21  1303.04
                             1328.95  1376.04  1437.93  1450.83  1470.60
                             1507.16  1535.73  1549.18  1612.37  1638.77
                             1664.98  1683.72  1709.24  1729.00  1737.65
                             1776.35  1806.44  1870.46  1887.66  1905.07
                             1921.25  1954.37  1968.46  1996.88  2015.08
                             2037.08  2047.74  2131.27  2155.06  2159.25
                             2167.71  2178.02  2178.76  2183.92  2192.54
                             2205.62  2216.15  2235.29  4261.66  4286.16
                             4352.59  4369.21  4374.95  4396.40  4397.76
                             4416.27  4417.12  4425.99  4437.21  4454.81
                             4455.99  4466.39  4482.50  4512.06  5016.42
                             5047.77

 Zero-point correction=                           0.264428 (Hartree/Particle)
 Thermal correction to Energy=                    0.277029
 Thermal correction to Enthalpy=                  0.277973
 Thermal correction to Gibbs Free Energy=         0.224093
 Sum of electronic and zero-point Energies=           -823.151053
 Sum of electronic and thermal Energies=              -823.138453
 Sum of electronic and thermal Enthalpies=            -823.137508
 Sum of electronic and thermal Free Energies=         -823.191388

                     E (Thermal)             CV                S
                      KCal/Mol        Cal/Mol-Kelvin    Cal/Mol-Kelvin
 Total                  173.838             46.517            113.399
 Electronic               0.000              0.000              0.000
 Translational            0.889              2.981             41.371
 Rotational               0.889              2.981             31.198
 Vibrational            172.061             40.556             40.830
 Vibration     1          0.594              1.984              5.769
 Vibration     2          0.595              1.979              4.982
 Vibration     3          0.597              1.974              4.486
 Vibration     4          0.602              1.956              3.660
 Vibration     5          0.609              1.933              3.101
 Vibration     6          0.626              1.878              2.424
 Vibration     7          0.638              1.840              2.134
 Vibration     8          0.659              1.773              1.775
 Vibration     9          0.665              1.756              1.702
 Vibration    10          0.672              1.733              1.613
 Vibration    11          0.702              1.645              1.337
 Vibration    12          0.735              1.553              1.120
 Vibration    13          0.771              1.456              0.939
 Vibration    14          0.798              1.389              0.835
 Vibration    15          0.862              1.235              0.641
 Vibration    16          0.895              1.162              0.566
 Vibration    17          0.958              1.033              0.450
 Vibration    18          0.980              0.990              0.417

                           ! Non-Optimized Parameters !
 Normal termination of Gaussian 16 at Tue Dec  8 20:18:14 2020.

 ----------------------------------------------------------------------
 # B3LYP/6-311++G(d,p) empiricaldispersion=gd3bj scf=xqc pop=npa geom=c
 heck
 ----------------------------------------------------------------------

 ---------------------------------------
 CID_104377242_JID_1682_Energie_neutraal
 ---------------------------------------
 Structure from the checkpoint file:  "JID_1682.chk"
 Charge =  0 Multiplicity = 1

 SCF Done:  E(RB3LYP) =  -823.568315401     A.U. after   13 cycles
 Normal termination of Gaussian 16 at Tue Dec  8 20:21:19 2020.

 ----------------------------------------------------------------------
 # B3LYP/6-311++G(d,p) empiricaldispersion=gd3bj scf=xqc pop=npa geom=c
 heck
 ----------------------------------------------------------------------

 -------------------------------------
 CID_104377242_JID_1682_Energie_kation
 -------------------------------------
 Structure from the checkpoint file:  "JID_1682.chk"
 Charge =  1 Multiplicity = 2

 SCF Done:  E(UB3LYP) =  -823.287506644     A.U. after   21 cycles
 Normal termination of Gaussian 16 at Tue Dec  8 20:28:49 2020.
 Gaussian 16:  ES64L-G16RevA.03 25-Dec-2016

 ----------------------------------------------------------------------
 # B3LYP/6-311++G(d,p) empiricaldispersion=gd3bj scf=xqc pop=npa geom=c
 heck
 ----------------------------------------------------------------------

 ------------------------------------
 CID_104377242_JID_1682_Energie_anion
 ------------------------------------
 Structure from the checkpoint file:  "JID_1682.chk"
 Charge = -1 Multiplicity = 2

                         Standard orientation:
 ---------------------------------------------------------------------
 Center     Atomic      Atomic             Coordinates (Angstroms)
 Number     Number       Type             X           Y           Z
 ---------------------------------------------------------------------
      1          6           0        3.000255    1.755966    0.259422
      2          7           0        3.578146    0.558954   -0.341314
      3          6           0        3.298405   -0.687246    0.366695
      4          6           0        1.816975   -1.033336    0.584691
      5          7           0        1.114775   -1.089183   -0.694648
      6          6           0       -0.272687   -1.525123   -0.625798
      7          6           0       -1.216176   -0.697795    0.262168
      8          6           0       -2.687907   -1.115318    0.146391
      9          6           0       -3.545980    0.085335    0.554292
     10          6           0       -3.000901    1.288529   -0.220715
     11         16           0       -1.161792    1.106735   -0.204342
     12          1           0        3.399002    1.871524    1.274586
     13          1           0        1.898633    1.768943    0.333083
     14          1           0        3.308605    2.632640   -0.319824
     15          1           0        3.287343    0.473092   -1.312251
     16          1           0        3.767842   -1.498000   -0.201430
     17          1           0        3.793934   -0.638846    1.346212
     18          1           0        1.752208   -2.024839    1.052380
     19          1           0        1.370854   -0.318777    1.298936
     20          1           0        1.138405   -0.168035   -1.129654
     21          1           0       -0.672277   -1.529303   -1.647163
     22          1           0       -0.287531   -2.564090   -0.265543
     23          1           0       -0.895105   -0.765293    1.306410
     24          1           0       -2.906450   -1.385728   -0.895620
     25          1           0       -2.890346   -1.997380    0.764927
     26          1           0       -4.609125   -0.074631    0.339419
     27          1           0       -3.445391    0.264583    1.631349
     28          1           0       -3.357402    1.287939   -1.255317
     29          1           0       -3.266894    2.243982    0.237837
 ---------------------------------------------------------------------

 SCF Done:  E(UB3LYP) =  -823.552985575     A.U. after   30 cycles

 The electronic state is 2-A.
 Alpha  occ. eigenvalues --  -88.72814 -14.20795 -14.20161 -10.09774 -10.09580
 Alpha  occ. eigenvalues --  -10.09544 -10.09483 -10.09199 -10.09137 -10.06917
 Alpha  occ. eigenvalues --  -10.06864  -7.81452  -5.77827  -5.77490  -5.76834
 Alpha  occ. eigenvalues --   -0.82554  -0.79914  -0.73844  -0.65688  -0.62762
 Alpha  occ. eigenvalues --   -0.61389  -0.57861  -0.54498  -0.49956  -0.47822
 Alpha  occ. eigenvalues --   -0.45443  -0.40738  -0.40422  -0.37412  -0.36721
 Alpha  occ. eigenvalues --   -0.36542  -0.34712  -0.32966  -0.31286  -0.31157
 Alpha  occ. eigenvalues --   -0.29048  -0.28502  -0.27590  -0.26904  -0.25843
 Alpha  occ. eigenvalues --   -0.24968  -0.24496  -0.23757  -0.23389  -0.20016
 Alpha  occ. eigenvalues --   -0.14059  -0.12967  -0.11808   0.04644
 Alpha virt. eigenvalues --    0.06540   0.07159   0.07813   0.08500   0.08905
 Alpha virt. eigenvalues --    0.09124   0.09933   0.10631   0.10911   0.11582
 Alpha virt. eigenvalues --    0.11896   0.11993   0.12525   0.13134   0.13873

  Beta  occ. eigenvalues --  -88.72811 -14.20793 -14.20159 -10.09764 -10.09570
  Beta  occ. eigenvalues --  -10.09530 -10.09469 -10.09183 -10.09105 -10.06886
  Beta  occ. eigenvalues --  -10.06825  -7.81449  -5.77822  -5.77488  -5.76833
  Beta  occ. eigenvalues --   -0.82543  -0.79903  -0.73806  -0.65652  -0.62724
  Beta  occ. eigenvalues --   -0.61336  -0.57827  -0.54458  -0.49921  -0.47710
  Beta  occ. eigenvalues --   -0.45397  -0.40722  -0.40403  -0.37355  -0.36695
  Beta  occ. eigenvalues --   -0.36483  -0.34682  -0.32930  -0.31253  -0.31133
  Beta  occ. eigenvalues --   -0.29007  -0.28469  -0.27555  -0.26878  -0.25815
  Beta  occ. eigenvalues --   -0.24903  -0.24458  -0.23715  -0.23338  -0.19987
  Beta  occ. eigenvalues --   -0.14049  -0.12957  -0.11793
  Beta virt. eigenvalues --    0.06651   0.07582   0.07717   0.08101   0.09126
  Beta virt. eigenvalues --    0.09373   0.09791   0.10285   0.10932   0.11549
  Beta virt. eigenvalues --    0.11901   0.12030   0.12245   0.12789   0.13293

 Mulliken charges and spin densities:
               1          2
     1  C    0.056500  -0.444450
     2  N   -0.264799   0.079120
     3  C    0.116807  -0.742075
     4  C   -0.186273  -0.009377
     5  N   -0.068171   0.085151
     6  C    0.277188  -1.280886
     7  C   -0.109392   0.976130
     8  C    0.704226  -1.422160
     9  C   -0.625529   0.500598
    10  C    1.067329  -1.561018
    11  S   -0.071856  -0.122126
    12  H   -0.086104   0.236741
    13  H    0.135453  -0.022970
    14  H   -0.013877   0.146747
    15  H    0.176803   0.057581
    16  H    0.108988   0.055961
    17  H   -0.058610   0.217928
    18  H   -0.424214   0.589449
    19  H    0.167071  -0.038729
    20  H    0.196510   0.011861
    21  H   -0.053112   0.206148
    22  H    0.061171   0.099345
    23  H   -0.247059   0.491593
    24  H   -0.067148   0.219379
    25  H   -0.495142   0.664135
    26  H   -0.949716   1.139247
    27  H    0.057231   0.094501
    28  H   -0.100916   0.285535
    29  H   -0.303360   0.486641
 Sum of Mulliken charges =  -1.00000   1.00000

 Dipole moment (field-independent basis, Debye):
    X=              5.9051    Y=              1.4384    Z=             -2.1655  Tot=              6.4520
 Quadrupole moment (field-independent basis, Debye-Ang):
   XX=           -166.9345   YY=           -119.3520   ZZ=           -108.5821
   XY=             -2.2889   XZ=              0.0596   YZ=              2.9408

 Summary of Natural Population Analysis:

                                       Natural Population
                Natural  -----------------------------------------------
    Atom  No    Charge         Core      Valence    Rydberg      Total
 -----------------------------------------------------------------------
      C    1   -0.18414      0.99966     2.17705    0.00743     3.18414
      N    2   -0.34106      0.99976     2.82975    0.01155     3.84106
      C    3   -0.08919      0.99963     2.07607    0.01349     3.08919
      C    4   -0.10204      0.99962     2.09125    0.01117     3.10204
      N    5   -0.34507      0.99974     2.83323    0.01210     3.84507
      C    6   -0.08665      0.99959     2.07347    0.01360     3.08665
      C    7   -0.16432      0.99957     2.15215    0.01261     3.16432
      C    8   -0.19440      0.99960     2.18411    0.01069     3.19440
      C    9   -0.19343      0.99962     2.18430    0.00950     3.19343
      C   10   -0.23819      0.99961     2.22863    0.00996     3.23819
      S   11    0.05784      4.99963     2.92473    0.01780     7.94216
      H   12    0.09054      0.00000     0.40828    0.00118     0.40946
      H   13    0.08653      0.00000     0.41178    0.00170     0.41347
      H   14    0.09239      0.00000     0.40663    0.00098     0.40761
      H   15    0.17061      0.00000     0.32709    0.00230     0.32939
      H   16    0.09441      0.00000     0.40439    0.00120     0.40559
      H   17    0.08983      0.00000     0.40922    0.00095     0.41017
      H   18    0.09594      0.00000     0.40251    0.00155     0.40406
      H   19    0.08218      0.00000     0.41596    0.00186     0.41782
      H   20    0.17158      0.00000     0.32409    0.00433     0.32842
      H   21    0.09504      0.00000     0.40347    0.00149     0.40496
      H   22    0.09502      0.00000     0.40352    0.00146     0.40498
      H   23    0.10030      0.00000     0.39771    0.00200     0.39970
      H   24    0.09659      0.00000     0.40171    0.00170     0.40341
      H   25    0.10986      0.00000     0.38739    0.00275     0.39014
      H   26    0.10742      0.00000     0.38915    0.00343     0.39258
      H   27    0.09909      0.00000     0.39914    0.00177     0.40091
      H   28    0.09802      0.00000     0.40002    0.00196     0.40198
      H   29    0.10533      0.00000     0.39307    0.00160     0.39467
 =======================================================================
   * Total *    0.00000     14.99603    32.83987    0.16410    48.00000

 Normal termination of Gaussian 16 at Tue Dec  8 20:40:52 2020.
