 Gaussian 16, Revision A.03,

 -----------------------------------------------------------
 # opt freq B3LYP/6-31G(d) empiricaldispersion=gd3bj scf=xqc
 -----------------------------------------------------------

 -------------------------------
 CID_81720995_JID_10303_neutraal
 -------------------------------
 Symbolic Z-matrix:
 Charge =  0 Multiplicity = 1

 SCF Done:  E(RB3LYP) =  -918.897409501     A.U. after   15 cycles
 SCF Done:  E(RB3LYP) =  -918.903053511     A.U. after   13 cycles
 SCF Done:  E(RB3LYP) =  -918.901297311     A.U. after   14 cycles
 SCF Done:  E(RB3LYP) =  -918.903819679     A.U. after   12 cycles
 SCF Done:  E(RB3LYP) =  -918.905114412     A.U. after   13 cycles
 SCF Done:  E(RB3LYP) =  -918.905879700     A.U. after   12 cycles
 SCF Done:  E(RB3LYP) =  -918.905869611     A.U. after   13 cycles
 SCF Done:  E(RB3LYP) =  -918.907327250     A.U. after   12 cycles
 SCF Done:  E(RB3LYP) =  -918.908269606     A.U. after   13 cycles
 SCF Done:  E(RB3LYP) =  -918.908630474     A.U. after   12 cycles
 SCF Done:  E(RB3LYP) =  -918.909188790     A.U. after    9 cycles
 SCF Done:  E(RB3LYP) =  -918.909190963     A.U. after    9 cycles
 SCF Done:  E(RB3LYP) =  -918.909191025     A.U. after    8 cycles
 SCF Done:  E(RB3LYP) =  -918.909191085     A.U. after    8 cycles
 SCF Done:  E(RB3LYP) =  -918.909191103     A.U. after    6 cycles
 SCF Done:  E(RB3LYP) =  -918.909191116     A.U. after    6 cycles
 Optimization completed.
    -- Stationary point found.
 Normal termination of Gaussian 16 at Mon Dec 14 18:00:41 2020.

 --------------------------------------------------------------------
 #N Geom=AllCheck Guess=TCheck SCRF=Check GenChk RB3LYP/6-31G(d) Freq
 --------------------------------------------------------------------

 Structure from the checkpoint file:  "JID_10303.chk"
 -------------------------------
 CID_81720995_JID_10303_neutraal
 -------------------------------
 Charge =  0 Multiplicity = 1

 SCF Done:  E(RB3LYP) =  -918.909191116     A.U. after    1 cycles

  Exact polarizability: 208.764  33.121 140.084  -4.413   9.555 176.650
 Approx polarizability: 276.753  66.154 219.169  -4.976  27.485 285.633

                      1                      2                      3
                      A                      A                      A
 Frequencies --      8.9187                20.6942                34.3760
 Red. masses --      5.2243                 4.4362                 2.8556
 Frc consts  --      0.0002                 0.0011                 0.0020
 IR Inten    --      0.3676                 0.3319                 0.3593

                      4                      5                      6
                      A                      A                      A
 Frequencies --     43.7486                64.2600                79.7978
 Red. masses --      5.5645                 5.9471                 2.4103
 Frc consts  --      0.0063                 0.0145                 0.0090
 IR Inten    --      1.3024                 0.4078                 0.3235

                      7                      8                      9
                      A                      A                      A
 Frequencies --     85.3272               103.8221               113.6259
 Red. masses --      3.4185                 6.2114                 2.6060
 Frc consts  --      0.0147                 0.0394                 0.0198
 IR Inten    --      1.1263                 1.8262                 2.1762

                     10                     11                     12
                      A                      A                      A
 Frequencies --    140.6595               159.6107               182.0703
 Red. masses --      1.2718                 4.2799                 2.9984
 Frc consts  --      0.0148                 0.0642                 0.0586
 IR Inten    --      0.1161                 2.6061                 1.1861

                     13                     14                     15
                      A                      A                      A
 Frequencies --    211.6115               215.2311               254.4489
 Red. masses --      4.3069                 3.2392                 3.4850
 Frc consts  --      0.1136                 0.0884                 0.1329
 IR Inten    --      4.6393                 4.4577                 1.5422

                     16                     17                     18
                      A                      A                      A
 Frequencies --    277.9771               292.0416               341.0337
 Red. masses --      2.5045                 3.7302                 4.3048
 Frc consts  --      0.1140                 0.1874                 0.2950
 IR Inten    --      4.0411                 2.2929                19.1883

                     19                     20                     21
                      A                      A                      A
 Frequencies --    380.6729               388.1935               412.6059
 Red. masses --      5.1339                 5.4682                 3.0334
 Frc consts  --      0.4383                 0.4855                 0.3043
 IR Inten    --      7.0255                 2.6308                 0.5587

                     22                     23                     24
                      A                      A                      A
 Frequencies --    422.9214               446.3263               490.1672
 Red. masses --      2.2484                 3.3777                 4.7574
 Frc consts  --      0.2369                 0.3964                 0.6734
 IR Inten    --      2.7531                 0.6115                 2.0387

                     25                     26                     27
                      A                      A                      A
 Frequencies --    520.4547               545.6772               570.7349
 Red. masses --      3.0931                 3.1193                 2.2305
 Frc consts  --      0.4936                 0.5472                 0.4281
 IR Inten    --     21.6242                43.4978                19.0140

                     28                     29                     30
                      A                      A                      A
 Frequencies --    599.4461               657.1261               674.8515
 Red. masses --      1.9831                 5.7842                 3.1224
 Frc consts  --      0.4198                 1.4716                 0.8378
 IR Inten    --     46.4907                 4.5837                 3.2267

                     31                     32                     33
                      A                      A                      A
 Frequencies --    679.1856               706.5729               731.6458
 Red. masses --      4.0901                 3.4895                 2.5126
 Frc consts  --      1.1116                 1.0264                 0.7925
 IR Inten    --      5.2985                 7.3400                76.0723

                     34                     35                     36
                      A                      A                      A
 Frequencies --    760.0750               776.3507               810.7164
 Red. masses --      3.5525                 3.6975                 1.2974
 Frc consts  --      1.2092                 1.3130                 0.5024
 IR Inten    --     31.0132                 1.9410                 7.7639

                     37                     38                     39
                      A                      A                      A
 Frequencies --    822.8294               835.0482               848.2672
 Red. masses --      1.8650                 3.1102                 2.2547
 Frc consts  --      0.7440                 1.2778                 0.9559
 IR Inten    --      6.4368                18.4386                55.1114

                     40                     41                     42
                      A                      A                      A
 Frequencies --    864.7984               912.9707               925.8049
 Red. masses --      2.2083                 2.5267                 1.4488
 Frc consts  --      0.9731                 1.2409                 0.7317
 IR Inten    --     65.0454                 8.5686                 1.4441

                     43                     44                     45
                      A                      A                      A
 Frequencies --    941.0807               945.8351               948.2427
 Red. masses --      1.9721                 2.4646                 1.4160
 Frc consts  --      1.0290                 1.2990                 0.7502
 IR Inten    --      2.1520                 5.4470                 9.6933

                     46                     47                     48
                      A                      A                      A
 Frequencies --    963.1291               972.9321               984.7367
 Red. masses --      2.9271                 2.7224                 1.2942
 Frc consts  --      1.5998                 1.5183                 0.7394
 IR Inten    --     17.8729                 9.8184                 0.4208

                     49                     50                     51
                      A                      A                      A
 Frequencies --   1020.0598              1022.9746              1030.8193
 Red. masses --      2.3769                 5.9366                 1.3479
 Frc consts  --      1.4572                 3.6603                 0.8438
 IR Inten    --      4.7270                 0.5118                 3.6297

                     52                     53                     54
                      A                      A                      A
 Frequencies --   1041.7056              1076.7771              1088.0718
 Red. masses --      3.7347                 2.0307                 2.0123
 Frc consts  --      2.3878                 1.3872                 1.4037
 IR Inten    --     47.7407                 3.3394                 5.6152

                     55                     56                     57
                      A                      A                      A
 Frequencies --   1111.5146              1121.8780              1125.7640
 Red. masses --      4.0277                 1.8894                 2.1018
 Frc consts  --      2.9319                 1.4011                 1.5694
 IR Inten    --     12.8271                 6.0995                 1.5219

                     58                     59                     60
                      A                      A                      A
 Frequencies --   1143.9516              1178.5986              1186.4039
 Red. masses --      2.2235                 1.2878                 1.2730
 Frc consts  --      1.7144                 1.0539                 1.0557
 IR Inten    --     58.0117                21.6419                 0.8648

                     61                     62                     63
                      A                      A                      A
 Frequencies --   1202.9624              1222.7160              1237.6751
 Red. masses --      1.1221                 1.5271                 1.4879
 Frc consts  --      0.9567                 1.3451                 1.3429
 IR Inten    --     13.1509                11.2518                44.8043

                     64                     65                     66
                      A                      A                      A
 Frequencies --   1247.7653              1262.8473              1283.4975
 Red. masses --      1.5323                 1.8238                 1.4916
 Frc consts  --      1.4056                 1.7136                 1.4477
 IR Inten    --     86.4085                51.5439                 9.8047

                     67                     68                     69
                      A                      A                      A
 Frequencies --   1302.2895              1310.9499              1315.3426
 Red. masses --      2.0700                 1.4705                 1.5076
 Frc consts  --      2.0684                 1.4890                 1.5368
 IR Inten    --    193.2355               127.3109               123.9763

                     70                     71                     72
                      A                      A                      A
 Frequencies --   1325.1143              1332.0968              1333.9139
 Red. masses --      1.3651                 1.9283                 1.3106
 Frc consts  --      1.4122                 2.0160                 1.3740
 IR Inten    --     62.0167               175.0428                 8.6355

                     73                     74                     75
                      A                      A                      A
 Frequencies --   1356.8819              1371.0232              1372.6083
 Red. masses --      1.2571                 1.5176                 2.7885
 Frc consts  --      1.3637                 1.6807                 3.0954
 IR Inten    --      7.5771                 6.9992                32.5216

                     76                     77                     78
                      A                      A                      A
 Frequencies --   1398.2071              1418.0620              1426.0135
 Red. masses --      1.4129                 1.5661                 1.6832
 Frc consts  --      1.6275                 1.8556                 2.0167
 IR Inten    --      0.0953                 1.7910               120.6933

                     79                     80                     81
                      A                      A                      A
 Frequencies --   1462.2074              1487.3062              1492.6156
 Red. masses --      2.3169                 1.1459                 1.2685
 Frc consts  --      2.9186                 1.4934                 1.6651
 IR Inten    --     84.3989                 5.4106                 8.9569

                     82                     83                     84
                      A                      A                      A
 Frequencies --   1503.4858              1506.5965              1512.1311
 Red. masses --      2.3598                 1.1060                 1.0478
 Frc consts  --      3.1429                 1.4791                 1.4115
 IR Inten    --     58.3259                 5.3357                 6.1976

                     85                     86                     87
                      A                      A                      A
 Frequencies --   1516.6940              1524.1150              1524.6604
 Red. masses --      1.0982                 1.0867                 1.0497
 Frc consts  --      1.4884                 1.4873                 1.4377
 IR Inten    --      6.9233                 4.0417                 7.0656

                     88                     89                     90
                      A                      A                      A
 Frequencies --   1528.7105              1543.7032              1548.0372
 Red. masses --      1.0849                 2.4466                 1.1236
 Frc consts  --      1.4938                 3.4352                 1.5865
 IR Inten    --      0.4500                40.9596                 4.1476

                     91                     92                     93
                      A                      A                      A
 Frequencies --   1644.4672              1666.0359              1782.0551
 Red. masses --      5.7979                 6.1122                 8.0325
 Frc consts  --      9.2378                 9.9957                15.0294
 IR Inten    --     34.6053                32.0888               351.8274

                     94                     95                     96
                      A                      A                      A
 Frequencies --   1804.2538              3001.2015              3031.2814
 Red. masses --     11.6361                 1.0835                 1.0674
 Frc consts  --     22.3178                 5.7499                 5.7786
 IR Inten    --    203.7004                17.1009                36.9855

                     97                     98                     99
                      A                      A                      A
 Frequencies --   3045.7673              3054.3545              3065.0441
 Red. masses --      1.0648                 1.0654                 1.0666
 Frc consts  --      5.8201                 5.8558                 5.9036
 IR Inten    --     43.5732                59.0555                15.5819

                    100                    101                    102
                      A                      A                      A
 Frequencies --   3071.3465              3077.3592              3097.1605
 Red. masses --      1.0640                 1.0295                 1.0996
 Frc consts  --      5.9133                 5.7440                 6.2144
 IR Inten    --     26.4302                37.1820                 4.0116

                    103                    104                    105
                      A                      A                      A
 Frequencies --   3102.0247              3106.4380              3123.4534
 Red. masses --      1.0993                 1.0986                 1.1052
 Frc consts  --      6.2324                 6.2461                 6.3528
 IR Inten    --     15.5733                36.9196                33.4550

                    106                    107                    108
                      A                      A                      A
 Frequencies --   3134.3136              3152.3912              3185.0787
 Red. masses --      1.0949                 1.1076                 1.1073
 Frc consts  --      6.3373                 6.4848                 6.6183
 IR Inten    --     24.6407                19.6062                16.8800

                    109                    110                    111
                      A                      A                      A
 Frequencies --   3191.4911              3208.8375              3239.1312
 Red. masses --      1.0880                 1.0936                 1.0910
 Frc consts  --      6.5291                 6.6346                 6.7442
 IR Inten    --      7.6729                13.7905                 3.3339

                    112                    113                    114
                      A                      A                      A
 Frequencies --   3242.9680              3463.8013              3575.3740
 Red. masses --      1.0929                 1.0743                 1.0753
 Frc consts  --      6.7717                 7.5944                 8.0987
 IR Inten    --      2.0237                 3.0593                26.9500

 - Thermochemistry -
 -------------------
 Temperature   298.150 Kelvin.  Pressure   1.00000 Atm.
 Atom     1 has atomic number  6 and mass  12.00000

 Molecular mass:   276.14739 amu.
 Principal axes and moments of inertia in atomic units:
                           1         2         3
     Eigenvalues --  3382.33883********************
           X            1.00000  -0.00139  -0.00160
           Y            0.00128   0.99802  -0.06290
           Z            0.00168   0.06290   0.99802
 This molecule is an asymmetric top.
 Rotational symmetry number  1.
 Warning -- assumption of classical behavior for rotation
           may cause significant error
 Rotational temperatures (Kelvin)      0.02561     0.00754     0.00743
 Rotational constants (GHZ):           0.53358     0.15716     0.15481
 Zero-point vibrational energy     892731.4 (Joules/Mol)
                                  213.36792 (Kcal/Mol)
 Warning -- explicit consideration of  28 degrees of freedom as
           vibrations may cause significant error
 Vibrational temperatures:     12.83    29.77    49.46    62.94    92.46
          (Kelvin)            114.81   122.77   149.38   163.48   202.38
                              229.64   261.96   304.46   309.67   366.10
                              399.95   420.18   490.67   547.70   558.52
                              593.65   608.49   642.16   705.24   748.82
                              785.11   821.16   862.47   945.46   970.96
                              977.20  1016.60  1052.68  1093.58  1117.00
                             1166.44  1183.87  1201.45  1220.47  1244.25
                             1313.56  1332.03  1354.01  1360.85  1364.31
                             1385.73  1399.83  1416.82  1467.64  1471.83
                             1483.12  1498.78  1549.24  1565.49  1599.22
                             1614.13  1619.72  1645.89  1695.74  1706.97
                             1730.79  1759.22  1780.74  1795.26  1816.96
                             1846.67  1873.70  1886.16  1892.48  1906.54
                             1916.59  1919.20  1952.25  1972.60  1974.88
                             2011.71  2040.27  2051.72  2103.79  2139.90
                             2147.54  2163.18  2167.66  2175.62  2182.18
                             2192.86  2193.65  2199.47  2221.04  2227.28
                             2366.02  2397.05  2563.98  2595.92  4318.06
                             4361.34  4382.18  4394.53  4409.91  4418.98
                             4427.63  4456.12  4463.12  4469.47  4493.95
                             4509.58  4535.59  4582.62  4591.84  4616.80
                             4660.39  4665.91  4983.64  5144.17

 Zero-point correction=                           0.340023 (Hartree/Particle)
 Thermal correction to Energy=                    0.359365
 Thermal correction to Enthalpy=                  0.360309
 Thermal correction to Gibbs Free Energy=         0.288290
 Sum of electronic and zero-point Energies=           -918.569168
 Sum of electronic and thermal Energies=              -918.549826
 Sum of electronic and thermal Enthalpies=            -918.548882
 Sum of electronic and thermal Free Energies=         -918.620901

                     E (Thermal)             CV                S
                      KCal/Mol        Cal/Mol-Kelvin    Cal/Mol-Kelvin
 Total                  225.505             71.859            151.578
 Electronic               0.000              0.000              0.000
 Translational            0.889              2.981             42.746
 Rotational               0.889              2.981             34.470
 Vibrational            223.728             65.897             74.362
 Vibration     1          0.593              1.987              8.238
 Vibration     2          0.593              1.986              6.566
 Vibration     3          0.594              1.983              5.559
 Vibration     4          0.595              1.980              5.082
 Vibration     5          0.597              1.971              4.322
 Vibration     6          0.600              1.963              3.896
 Vibration     7          0.601              1.959              3.764
 Vibration     8          0.605              1.946              3.381
 Vibration     9          0.607              1.938              3.206
 Vibration    10          0.615              1.913              2.795
 Vibration    11          0.621              1.892              2.554
 Vibration    12          0.630              1.864              2.307
 Vibration    13          0.643              1.823              2.030
 Vibration    14          0.645              1.818              1.999
 Vibration    15          0.665              1.755              1.700
 Vibration    16          0.679              1.714              1.546
 Vibration    17          0.687              1.689              1.462
 Vibration    18          0.721              1.593              1.207
 Vibration    19          0.750              1.511              1.036
 Vibration    20          0.756              1.495              1.007
 Vibration    21          0.776              1.443              0.917
 Vibration    22          0.785              1.420              0.882
 Vibration    23          0.806              1.369              0.807
 Vibration    24          0.846              1.272              0.683
 Vibration    25          0.875              1.205              0.609
 Vibration    26          0.901              1.149              0.553
 Vibration    27          0.927              1.095              0.503
 Vibration    28          0.958              1.033              0.451

                           ! Non-Optimized Parameters !
 Normal termination of Gaussian 16 at Mon Dec 14 18:18:58 2020.

 ----------------------------------------------------------------------
 # B3LYP/6-311++G(d,p) empiricaldispersion=gd3bj scf=xqc pop=npa geom=c
 heck
 ----------------------------------------------------------------------

 ---------------------------------------
 CID_81720995_JID_10303_Energie_neutraal
 ---------------------------------------
 Structure from the checkpoint file:  "JID_10303.chk"
 Charge =  0 Multiplicity = 1

 SCF Done:  E(RB3LYP) =  -919.170863403     A.U. after   15 cycles
 Normal termination of Gaussian 16 at Mon Dec 14 18:27:39 2020.

 ----------------------------------------------------------------------
 # B3LYP/6-311++G(d,p) empiricaldispersion=gd3bj scf=xqc pop=npa geom=c
 heck
 ----------------------------------------------------------------------

 -------------------------------------
 CID_81720995_JID_10303_Energie_kation
 -------------------------------------
 Structure from the checkpoint file:  "JID_10303.chk"
 Charge =  1 Multiplicity = 2

 SCF Done:  E(UB3LYP) =  -918.872735353     A.U. after   29 cycles
 Normal termination of Gaussian 16 at Mon Dec 14 18:52:57 2020.
 Gaussian 16:  ES64L-G16RevA.03 25-Dec-2016

 ----------------------------------------------------------------------
 # B3LYP/6-311++G(d,p) empiricaldispersion=gd3bj scf=xqc pop=npa geom=c
 heck
 ----------------------------------------------------------------------

 ------------------------------------
 CID_81720995_JID_10303_Energie_anion
 ------------------------------------
 Structure from the checkpoint file:  "JID_10303.chk"
 Charge = -1 Multiplicity = 2

                         Standard orientation:
 ---------------------------------------------------------------------
 Center     Atomic      Atomic             Coordinates (Angstroms)
 Number     Number       Type             X           Y           Z
 ---------------------------------------------------------------------
      1          6           0        5.707468    1.429282   -1.049516
      2          8           0        4.670729    1.092430   -0.115315
      3          6           0        3.699703    0.290077   -0.603097
      4          8           0        3.689074   -0.124390   -1.745426
      5          6           0        2.655563   -0.019133    0.413797
      6          6           0        1.616060   -0.868631    0.023656
      7          6           0        0.593049   -1.183355    0.920230
      8          6           0        0.646518   -0.676211    2.226711
      9          6           0        1.700828    0.145033    2.621326
     10          6           0        2.703895    0.488973    1.717237
     11          7           0       -0.473055   -2.036338    0.557330
     12          6           0       -1.342694   -1.978769   -0.518320
     13          8           0       -2.251044   -2.795022   -0.593814
     14          6           0       -1.166024   -0.882212   -1.557328
     15          6           0       -2.487796   -0.137330   -1.813600
     16          6           0       -2.844749    0.873318   -0.721248
     17          6           0       -3.166602    0.281560    0.676774
     18          6           0       -4.323859    1.174260    1.223722
     19          7           0       -4.553477    2.266662    0.256730
     20          6           0       -4.108647    1.706397   -1.024601
     21          1           0        6.396751    2.071365   -0.501114
     22          1           0        5.289385    1.956853   -1.910658
     23          1           0        6.214785    0.526472   -1.399016
     24          1           0        1.628585   -1.283832   -0.976881
     25          1           0       -0.148574   -0.924388    2.924508
     26          1           0        1.730330    0.529603    3.636344
     27          1           0        3.519556    1.137791    2.011977
     28          1           0       -0.780263   -2.709261    1.250857
     29          1           0       -0.387136   -0.170016   -1.277502
     30          1           0       -0.836772   -1.376772   -2.479480
     31          1           0       -2.401457    0.392820   -2.770730
     32          1           0       -3.290981   -0.874635   -1.923674
     33          1           0       -2.004372    1.576824   -0.616814
     34          1           0       -2.287838    0.295942    1.329922
     35          1           0       -3.489872   -0.759994    0.589922
     36          1           0       -5.243750    0.582870    1.303090
     37          1           0       -4.120694    1.588726    2.215810
     38          1           0       -3.924007    3.034137    0.491636
     39          1           0       -3.943887    2.499597   -1.761016
     40          1           0       -4.900407    1.049932   -1.413608
 ---------------------------------------------------------------------

 SCF Done:  E(UB3LYP) =  -919.184712914     A.U. after   30 cycles

 The electronic state is 2-A.
 Alpha  occ. eigenvalues --  -19.02482 -18.97864 -18.94450 -14.22724 -14.21232
 Alpha  occ. eigenvalues --  -10.16346 -10.12783 -10.11077 -10.10229 -10.10218
 Alpha  occ. eigenvalues --  -10.07887 -10.07681 -10.07383 -10.07077 -10.06542
 Alpha  occ. eigenvalues --  -10.03601 -10.02828 -10.02532 -10.02387 -10.02260
 Alpha  occ. eigenvalues --   -0.96212  -0.93223  -0.86619  -0.83195  -0.81433
 Alpha  occ. eigenvalues --   -0.71137  -0.70657  -0.64628  -0.63298  -0.62885
 Alpha  occ. eigenvalues --   -0.60877  -0.59346  -0.55159  -0.51285  -0.49532
 Alpha  occ. eigenvalues --   -0.49386  -0.46787  -0.44462  -0.44063  -0.42178
 Alpha  occ. eigenvalues --   -0.41154  -0.38306  -0.37457  -0.35866  -0.35753
 Alpha  occ. eigenvalues --   -0.35112  -0.34908  -0.34057  -0.33331  -0.32864
 Alpha  occ. eigenvalues --   -0.31157  -0.30644  -0.29762  -0.29267  -0.28641
 Alpha  occ. eigenvalues --   -0.28479  -0.27554  -0.27219  -0.26498  -0.25660
 Alpha  occ. eigenvalues --   -0.23589  -0.23441  -0.23069  -0.22788  -0.22589
 Alpha  occ. eigenvalues --   -0.22343  -0.21157  -0.17436  -0.17106  -0.15318
 Alpha  occ. eigenvalues --   -0.14886  -0.13026  -0.12349  -0.10488   0.04335
 Alpha virt. eigenvalues --    0.06426   0.07809   0.07887   0.08293   0.08902
 Alpha virt. eigenvalues --    0.09646   0.10083   0.10720   0.11120   0.11286
 Alpha virt. eigenvalues --    0.11419   0.11645   0.12146   0.12721   0.12921

  Beta  occ. eigenvalues --  -19.02394 -18.97846 -18.94110 -14.22735 -14.21230
  Beta  occ. eigenvalues --  -10.16326 -10.12531 -10.11082 -10.10226 -10.10216
  Beta  occ. eigenvalues --  -10.07886 -10.07705 -10.07376 -10.07073 -10.06535
  Beta  occ. eigenvalues --  -10.03638 -10.02700 -10.02366 -10.02020 -10.02001
  Beta  occ. eigenvalues --   -0.95906  -0.93190  -0.86091  -0.83188  -0.81396
  Beta  occ. eigenvalues --   -0.70824  -0.70557  -0.64599  -0.63185  -0.62510
  Beta  occ. eigenvalues --   -0.60549  -0.59099  -0.55112  -0.51273  -0.49334
  Beta  occ. eigenvalues --   -0.48709  -0.46742  -0.44408  -0.43833  -0.42163
  Beta  occ. eigenvalues --   -0.41004  -0.38257  -0.37434  -0.35652  -0.35373
  Beta  occ. eigenvalues --   -0.35035  -0.34757  -0.34035  -0.33032  -0.32813
  Beta  occ. eigenvalues --   -0.31025  -0.30497  -0.29660  -0.29175  -0.28539
  Beta  occ. eigenvalues --   -0.28401  -0.27329  -0.26546  -0.26103  -0.25546
  Beta  occ. eigenvalues --   -0.23460  -0.23174  -0.22973  -0.22609  -0.22336
  Beta  occ. eigenvalues --   -0.21983  -0.20963  -0.16727  -0.16243  -0.15296
  Beta  occ. eigenvalues --   -0.14881  -0.12672  -0.10699  -0.09342
  Beta virt. eigenvalues --    0.06377   0.07756   0.07859   0.08227   0.08842
  Beta virt. eigenvalues --    0.09514   0.09942   0.10616   0.10676   0.11058
  Beta virt. eigenvalues --    0.11342   0.11409   0.11689   0.12127   0.12649

 Mulliken charges and spin densities:
               1          2
     1  C   -0.230983  -0.006582
     2  O   -0.126552   0.016425
     3  C   -0.264519   0.072433
     4  O   -0.371442   0.116974
     5  C    0.684872   0.156519
     6  C   -0.608953   0.118844
     7  C    0.083524  -0.054409
     8  C   -0.184692   0.341460
     9  C   -0.276128  -0.039152
    10  C   -0.493053   0.211188
    11  N   -0.116866  -0.006532
    12  C   -0.283804   0.003929
    13  O   -0.302707   0.006376
    14  C    0.026446   0.051153
    15  C   -0.569012  -0.054031
    16  C    0.454302   0.115052
    17  C   -0.339899   0.003165
    18  C   -0.565731  -0.057690
    19  N   -0.087050   0.011930
    20  C   -0.538065  -0.192266
    21  H    0.109566  -0.000488
    22  H    0.154097   0.005701
    23  H    0.159477   0.001714
    24  H    0.205176   0.001188
    25  H    0.121180  -0.029248
    26  H    0.117394   0.004679
    27  H    0.142707  -0.004652
    28  H    0.282572   0.016547
    29  H    0.159036  -0.000934
    30  H    0.200768   0.009965
    31  H    0.114550   0.017997
    32  H    0.187993   0.004206
    33  H    0.171384   0.018486
    34  H    0.059842   0.010328
    35  H    0.197814  -0.005252
    36  H    0.165976   0.001943
    37  H    0.106049   0.045529
    38  H    0.190742   0.032585
    39  H    0.101373   0.048269
    40  H    0.162615   0.006652
 Sum of Mulliken charges =  -1.00000   1.00000

 Dipole moment (field-independent basis, Debye):
    X=             -3.0005    Y=              2.9022    Z=              0.2754  Tot=              4.1835
 Quadrupole moment (field-independent basis, Debye-Ang):
   XX=           -184.2386   YY=           -143.5223   ZZ=           -137.3418
   XY=              3.0242   XZ=              0.8009   YZ=             -4.3284

 Summary of Natural Population Analysis:

                                       Natural Population
                Natural  -----------------------------------------------
    Atom  No    Charge         Core      Valence    Rydberg      Total
 -----------------------------------------------------------------------
      C    1   -0.10486      0.99961     2.09656    0.00869     3.10486
      O    2   -0.28050      0.99986     3.27197    0.00866     4.28050
      C    3    0.42933      0.99964     1.54748    0.02354     2.57067
      O    4   -0.29834      0.99987     3.29252    0.00594     4.29834
      C    5   -0.03370      0.99946     2.02459    0.00965     3.03370
      C    6   -0.07032      0.99950     2.06320    0.00763     3.07032
      C    7    0.04993      0.99946     1.93956    0.01105     2.95007
      C    8   -0.03994      0.99953     2.03202    0.00840     3.03994
      C    9   -0.11755      0.99958     2.10899    0.00898     3.11755
      C   10   -0.05906      0.99954     2.05112    0.00840     3.05906
      N   11   -0.30979      0.99964     2.79884    0.01132     3.80979
      C   12    0.34964      0.99967     1.62879    0.02189     2.65036
      O   13   -0.33744      0.99987     3.33109    0.00648     4.33744
      C   14   -0.23589      0.99958     2.22842    0.00789     3.23589
      C   15   -0.18504      0.99961     2.17660    0.00883     3.18504
      C   16   -0.11909      0.99960     2.10927    0.01021     3.11909
      C   17   -0.21239      0.99963     2.20513    0.00763     3.21239
      C   18   -0.09097      0.99966     2.08120    0.01011     3.09097
      N   19   -0.33939      0.99977     2.82616    0.01347     3.83939
      C   20   -0.08649      0.99962     2.07643    0.01044     3.08649
      H   21    0.08114      0.00000     0.41798    0.00088     0.41886
      H   22    0.08664      0.00000     0.41205    0.00131     0.41336
      H   23    0.08666      0.00000     0.41204    0.00130     0.41334
      H   24    0.10699      0.00000     0.39173    0.00129     0.39301
      H   25    0.08750      0.00000     0.41147    0.00103     0.41250
      H   26    0.08960      0.00000     0.40879    0.00161     0.41040
      H   27    0.09923      0.00000     0.39981    0.00096     0.40077
      H   28    0.19310      0.00000     0.30518    0.00171     0.30690
      H   29    0.11541      0.00000     0.38324    0.00135     0.38459
      H   30    0.11034      0.00000     0.38874    0.00092     0.38966
      H   31    0.09417      0.00000     0.40422    0.00161     0.40583
      H   32    0.10388      0.00000     0.39447    0.00165     0.39612
      H   33    0.09553      0.00000     0.40297    0.00151     0.40447
      H   34    0.10867      0.00000     0.38921    0.00212     0.39133
      H   35    0.10646      0.00000     0.39261    0.00093     0.39354
      H   36    0.08656      0.00000     0.41218    0.00126     0.41344
      H   37    0.09211      0.00000     0.40632    0.00157     0.40789
      H   38    0.16764      0.00000     0.33017    0.00219     0.33236
      H   39    0.09372      0.00000     0.40493    0.00135     0.40628
      H   40    0.08651      0.00000     0.41208    0.00140     0.41349
 =======================================================================
   * Total *   -0.00000     19.99271    53.77013    0.23716    74.00000

 Normal termination of Gaussian 16 at Mon Dec 14 19:19:40 2020.
