 Gaussian 16, Revision A.03,

 -----------------------------------------------------------
 # opt freq B3LYP/6-31G(d) empiricaldispersion=gd3bj scf=xqc
 -----------------------------------------------------------

 ------------------------------
 CID_66219722_JID_3175_neutraal
 ------------------------------
 Symbolic Z-matrix:
 Charge =  0 Multiplicity = 1

 SCF Done:  E(RB3LYP) =  -936.780871519     A.U. after   14 cycles
 SCF Done:  E(RB3LYP) =  -936.784530519     A.U. after   12 cycles
 SCF Done:  E(RB3LYP) =  -936.784692262     A.U. after   13 cycles
 SCF Done:  E(RB3LYP) =  -936.783505969     A.U. after   13 cycles
 SCF Done:  E(RB3LYP) =  -936.785305124     A.U. after   12 cycles
 SCF Done:  E(RB3LYP) =  -936.784470792     A.U. after   12 cycles
 SCF Done:  E(RB3LYP) =  -936.782690587     A.U. after   12 cycles
 SCF Done:  E(RB3LYP) =  -936.782696314     A.U. after   12 cycles
 SCF Done:  E(RB3LYP) =  -936.785571922     A.U. after    9 cycles
 SCF Done:  E(RB3LYP) =  -936.785927413     A.U. after   11 cycles
 SCF Done:  E(RB3LYP) =  -936.786099691     A.U. after    9 cycles
 SCF Done:  E(RB3LYP) =  -936.786103160     A.U. after    9 cycles
 SCF Done:  E(RB3LYP) =  -936.786103738     A.U. after    8 cycles
 SCF Done:  E(RB3LYP) =  -936.786103910     A.U. after    7 cycles
 SCF Done:  E(RB3LYP) =  -936.786103869     A.U. after    7 cycles
 Optimization completed.
    -- Stationary point found.
 Normal termination of Gaussian 16 at Wed Dec  9 22:33:36 2020.

 --------------------------------------------------------------------
 #N Geom=AllCheck Guess=TCheck SCRF=Check GenChk RB3LYP/6-31G(d) Freq
 --------------------------------------------------------------------

 Structure from the checkpoint file:  "JID_3175.chk"
 ------------------------------
 CID_66219722_JID_3175_neutraal
 ------------------------------
 Charge =  0 Multiplicity = 1

 SCF Done:  E(RB3LYP) =  -936.786103869     A.U. after    1 cycles

  Exact polarizability: 148.108 -12.190 116.209   2.943  -2.342 107.493
 Approx polarizability: 190.401 -23.168 182.646   8.747  -5.952 167.357

                      1                      2                      3
                      A                      A                      A
 Frequencies --     40.3877                64.3998                74.6611
 Red. masses --      3.5195                 5.3508                 4.2727
 Frc consts  --      0.0034                 0.0131                 0.0140
 IR Inten    --      0.3722                 2.4624                 0.8962

                      4                      5                      6
                      A                      A                      A
 Frequencies --    105.1187               117.5195               166.9525
 Red. masses --      4.0934                 6.9025                 3.2343
 Frc consts  --      0.0267                 0.0562                 0.0531
 IR Inten    --      0.4780                 2.1871                 2.7145

                      7                      8                      9
                      A                      A                      A
 Frequencies --    193.0047               226.9108               259.0115
 Red. masses --      4.1751                 3.1053                 2.8070
 Frc consts  --      0.0916                 0.0942                 0.1109
 IR Inten    --      3.2040                 2.4028                 2.7193

                     10                     11                     12
                      A                      A                      A
 Frequencies --    276.9040               300.9325               313.2758
 Red. masses --      1.1946                 1.9351                 1.2264
 Frc consts  --      0.0540                 0.1032                 0.0709
 IR Inten    --      1.9547                 9.0414                28.4222

                     13                     14                     15
                      A                      A                      A
 Frequencies --    364.4845               375.1764               393.8293
 Red. masses --      2.5124                 2.2297                 2.2553
 Frc consts  --      0.1967                 0.1849                 0.2061
 IR Inten    --      0.7951                 0.4378                 3.7694

                     16                     17                     18
                      A                      A                      A
 Frequencies --    415.7709               428.2312               484.7642
 Red. masses --      3.4875                 2.2365                 2.8010
 Frc consts  --      0.3552                 0.2416                 0.3878
 IR Inten    --      2.2078                 8.1246                10.1480

                     19                     20                     21
                      A                      A                      A
 Frequencies --    501.7124               546.5304               572.0511
 Red. masses --      1.6332                 2.1842                 3.0352
 Frc consts  --      0.2422                 0.3844                 0.5852
 IR Inten    --     39.8457                28.9795                 2.2463

                     22                     23                     24
                      A                      A                      A
 Frequencies --    603.1757               662.3613               691.5541
 Red. masses --      1.9704                 3.9042                 4.5827
 Frc consts  --      0.4224                 1.0092                 1.2913
 IR Inten    --     37.3280                 3.9812                 4.6785

                     25                     26                     27
                      A                      A                      A
 Frequencies --    719.8668               804.7718               827.3208
 Red. masses --      4.8361                 2.3905                 2.8333
 Frc consts  --      1.4765                 0.9122                 1.1426
 IR Inten    --      9.8564                 8.7288                16.9794

                     28                     29                     30
                      A                      A                      A
 Frequencies --    850.5923               871.2242               887.1885
 Red. masses --      2.2522                 1.7093                 2.2145
 Frc consts  --      0.9600                 0.7644                 1.0269
 IR Inten    --     20.6689                21.9806                 2.5781

                     31                     32                     33
                      A                      A                      A
 Frequencies --    898.0327               938.6711               967.4787
 Red. masses --      2.6375                 1.7777                 1.6330
 Frc consts  --      1.2532                 0.9229                 0.9006
 IR Inten    --      3.8673               188.1075                17.1580

                     34                     35                     36
                      A                      A                      A
 Frequencies --    973.3427               993.0865              1026.4050
 Red. masses --      1.9864                 2.0416                 2.0204
 Frc consts  --      1.1088                 1.1863                 1.2541
 IR Inten    --      1.1895                 7.0405                 2.5076

                     37                     38                     39
                      A                      A                      A
 Frequencies --   1036.4662              1094.5334              1100.4870
 Red. masses --      1.4305                 1.8847                 1.5354
 Frc consts  --      0.9054                 1.3303                 1.0955
 IR Inten    --      2.8220                 3.5338                29.6080

                     40                     41                     42
                      A                      A                      A
 Frequencies --   1107.9272              1126.9149              1156.2656
 Red. masses --      1.9387                 1.5443                 1.9320
 Frc consts  --      1.4021                 1.1555                 1.5219
 IR Inten    --      4.7922                19.5170                 5.3699

                     43                     44                     45
                      A                      A                      A
 Frequencies --   1208.2428              1228.9646              1252.3146
 Red. masses --      1.1928                 1.2711                 1.2107
 Frc consts  --      1.0260                 1.1311                 1.1187
 IR Inten    --     23.4128                 4.6835                13.6435

                     46                     47                     48
                      A                      A                      A
 Frequencies --   1259.1024              1274.2446              1283.6748
 Red. masses --      1.2877                 1.6637                 1.5124
 Frc consts  --      1.2027                 1.5916                 1.4684
 IR Inten    --      1.3034                 4.9988                43.8417

                     49                     50                     51
                      A                      A                      A
 Frequencies --   1319.1317              1330.2287              1339.5259
 Red. masses --      1.4365                 1.3363                 1.2479
 Frc consts  --      1.4728                 1.3932                 1.3193
 IR Inten    --      4.1259                 5.7953                17.0501

                     52                     53                     54
                      A                      A                      A
 Frequencies --   1357.7904              1373.7905              1400.5924
 Red. masses --      1.5032                 1.2866                 1.3912
 Frc consts  --      1.6327                 1.4307                 1.6079
 IR Inten    --     45.6716                22.3076                 4.4211

                     55                     56                     57
                      A                      A                      A
 Frequencies --   1416.9558              1419.4251              1421.4017
 Red. masses --      1.4403                 1.3662                 1.2727
 Frc consts  --      1.7038                 1.6218                 1.5149
 IR Inten    --     11.2716                 7.4359                10.5373

                     58                     59                     60
                      A                      A                      A
 Frequencies --   1439.9648              1444.3896              1485.4072
 Red. masses --      1.5040                 1.4346                 1.4912
 Frc consts  --      1.8374                 1.7634                 1.9385
 IR Inten    --     18.6540                 9.9268                28.3808

                     61                     62                     63
                      A                      A                      A
 Frequencies --   1493.3089              1506.5730              1512.1709
 Red. masses --      1.1991                 1.1275                 1.0820
 Frc consts  --      1.5755                 1.5078                 1.4577
 IR Inten    --     34.8660                 1.5755                 6.8964

                     64                     65                     66
                      A                      A                      A
 Frequencies --   1517.2610              1522.4979              1532.6624
 Red. masses --      1.1345                 1.1049                 1.1210
 Frc consts  --      1.5387                 1.5090                 1.5514
 IR Inten    --      8.7582                24.9680                14.8712

                     67                     68                     69
                      A                      A                      A
 Frequencies --   1536.3788              1702.3457              1784.0648
 Red. masses --      1.0512                 1.0897                 7.7934
 Frc consts  --      1.4619                 1.8606                14.6149
 IR Inten    --     10.4744                21.0803               313.9907

                     70                     71                     72
                      A                      A                      A
 Frequencies --   3021.3881              3024.2442              3026.5013
 Red. masses --      1.0838                 1.0704                 1.0687
 Frc consts  --      5.8292                 5.7678                 5.7676
 IR Inten    --     28.2234                 9.7731                35.6731

                     73                     74                     75
                      A                      A                      A
 Frequencies --   3039.8187              3050.5159              3054.1561
 Red. masses --      1.0708                 1.0663                 1.0369
 Frc consts  --      5.8297                 5.8460                 5.6988
 IR Inten    --     32.8683                34.3709                16.9105

                     76                     77                     78
                      A                      A                      A
 Frequencies --   3066.7111              3081.1963              3091.0501
 Red. masses --      1.0668                 1.0956                 1.0848
 Frc consts  --      5.9111                 6.1284                 6.1066
 IR Inten    --     18.1122                24.1258                26.5558

                     79                     80                     81
                      A                      A                      A
 Frequencies --   3106.6254              3111.5389              3119.1541
 Red. masses --      1.0968                 1.0956                 1.1012
 Frc consts  --      6.2368                 6.2496                 6.3126
 IR Inten    --     35.3311                26.5625                31.4727

                     82                     83                     84
                      A                      A                      A
 Frequencies --   3132.6433              3139.4974              3145.5587
 Red. masses --      1.0987                 1.1010                 1.0918
 Frc consts  --      6.3526                 6.3936                 6.3650
 IR Inten    --      2.4242                38.0599                 7.8492

                     85                     86                     87
                      A                      A                      A
 Frequencies --   3441.0495              3526.2899              3608.7949
 Red. masses --      1.0494                 1.0913                 1.0766
 Frc consts  --      7.3208                 7.9949                 8.2606
 IR Inten    --      1.9373                 0.9206                26.2234

 - Thermochemistry -
 -------------------
 Temperature   298.150 Kelvin.  Pressure   1.00000 Atm.
 Atom     1 has atomic number  6 and mass  12.00000

 Molecular mass:   202.11399 amu.
 Principal axes and moments of inertia in atomic units:
                           1         2         3
     Eigenvalues --  1468.712454077.662154634.35179
           X            0.99976  -0.02151  -0.00479
           Y            0.02144   0.99969  -0.01248
           Z            0.00506   0.01237   0.99991
 This molecule is an asymmetric top.
 Rotational symmetry number  1.
 Warning -- assumption of classical behavior for rotation
           may cause significant error
 Rotational temperatures (Kelvin)      0.05897     0.02124     0.01869
 Rotational constants (GHZ):           1.22879     0.44259     0.38943
 Zero-point vibrational energy     721996.8 (Joules/Mol)
                                  172.56138 (Kcal/Mol)
 Warning -- explicit consideration of  22 degrees of freedom as
           vibrations may cause significant error
 Vibrational temperatures:     58.11    92.66   107.42   151.24   169.08
          (Kelvin)            240.21   277.69   326.47   372.66   398.40
                              432.97   450.73   524.41   539.80   566.63
                              598.20   616.13   697.47   721.85   786.34
                              823.05   867.84   952.99   994.99  1035.73
                             1157.89  1190.33  1223.81  1253.50  1276.47
                             1292.07  1350.54  1391.99  1400.42  1428.83
                             1476.77  1491.24  1574.79  1583.36  1594.06
                             1621.38  1663.61  1738.39  1768.21  1801.80
                             1811.57  1833.35  1846.92  1897.94  1913.90
                             1927.28  1953.56  1976.58  2015.14  2038.68
                             2042.24  2045.08  2071.79  2078.15  2137.17
                             2148.54  2167.62  2175.68  2183.00  2190.53
                             2205.16  2210.51  2449.30  2566.87  4347.10
                             4351.21  4354.46  4373.62  4389.01  4394.25
                             4412.31  4433.15  4447.33  4469.74  4476.81
                             4487.77  4507.18  4517.04  4525.76  4950.90
                             5073.54  5192.25

 Zero-point correction=                           0.274994 (Hartree/Particle)
 Thermal correction to Energy=                    0.289001
 Thermal correction to Enthalpy=                  0.289945
 Thermal correction to Gibbs Free Energy=         0.234231
 Sum of electronic and zero-point Energies=           -936.511110
 Sum of electronic and thermal Energies=              -936.497103
 Sum of electronic and thermal Enthalpies=            -936.496159
 Sum of electronic and thermal Free Energies=         -936.551873

                     E (Thermal)             CV                S
                      KCal/Mol        Cal/Mol-Kelvin    Cal/Mol-Kelvin
 Total                  181.351             53.774            117.259
 Electronic               0.000              0.000              0.000
 Translational            0.889              2.981             41.815
 Rotational               0.889              2.981             31.696
 Vibrational            179.573             47.812             43.748
 Vibration     1          0.594              1.981              5.240
 Vibration     2          0.597              1.971              4.318
 Vibration     3          0.599              1.966              4.027
 Vibration     4          0.605              1.945              3.357
 Vibration     5          0.608              1.935              3.141
 Vibration     6          0.624              1.883              2.470
 Vibration     7          0.635              1.850              2.199
 Vibration     8          0.651              1.800              1.903
 Vibration     9          0.668              1.748              1.668
 Vibration    10          0.678              1.716              1.553
 Vibration    11          0.693              1.672              1.412
 Vibration    12          0.701              1.648              1.345
 Vibration    13          0.738              1.545              1.103
 Vibration    14          0.746              1.523              1.059
 Vibration    15          0.761              1.483              0.986
 Vibration    16          0.779              1.436              0.906
 Vibration    17          0.790              1.409              0.864
 Vibration    18          0.841              1.284              0.697
 Vibration    19          0.857              1.246              0.654
 Vibration    20          0.902              1.147              0.551
 Vibration    21          0.928              1.092              0.500
 Vibration    22          0.962              1.025              0.444

 Optimization completed.
    -- Stationary point found.
 Normal termination of Gaussian 16 at Wed Dec  9 22:42:45 2020.

 ----------------------------------------------------------------------
 # B3LYP/6-311++G(d,p) empiricaldispersion=gd3bj scf=xqc pop=npa geom=c
 heck
 ----------------------------------------------------------------------

 --------------------------------------
 CID_66219722_JID_3175_Energie_neutraal
 --------------------------------------
 Structure from the checkpoint file:  "JID_3175.chk"
 Charge =  0 Multiplicity = 1

 SCF Done:  E(RB3LYP) =  -936.977661072     A.U. after   15 cycles
 Normal termination of Gaussian 16 at Wed Dec  9 22:47:30 2020.

 ----------------------------------------------------------------------
 # B3LYP/6-311++G(d,p) empiricaldispersion=gd3bj scf=xqc pop=npa geom=c
 heck
 ----------------------------------------------------------------------

 ------------------------------------
 CID_66219722_JID_3175_Energie_kation
 ------------------------------------
 Structure from the checkpoint file:  "JID_3175.chk"
 Charge =  1 Multiplicity = 2

 SCF Done:  E(UB3LYP) =  -936.679432672     A.U. after   25 cycles
 Normal termination of Gaussian 16 at Wed Dec  9 22:58:54 2020.
 Gaussian 16:  ES64L-G16RevA.03 25-Dec-2016

 ----------------------------------------------------------------------
 # B3LYP/6-311++G(d,p) empiricaldispersion=gd3bj scf=xqc pop=npa geom=c
 heck
 ----------------------------------------------------------------------

 -----------------------------------
 CID_66219722_JID_3175_Energie_anion
 -----------------------------------
 Structure from the checkpoint file:  "JID_3175.chk"
 Charge = -1 Multiplicity = 2

                         Standard orientation:
 ---------------------------------------------------------------------
 Center     Atomic      Atomic             Coordinates (Angstroms)
 Number     Number       Type             X           Y           Z
 ---------------------------------------------------------------------
      1          6           0       -2.953554    0.148104    1.474236
      2          6           0       -3.103534    0.434994   -0.019734
      3          6           0       -1.758496    0.701283   -0.726587
      4         16           0       -0.619973   -0.737475   -0.858746
      5          6           0        0.323118   -0.771890    0.735796
      6          6           0        1.433962   -1.826026    0.586985
      7          6           0        2.563016   -1.506435   -0.400969
      8          6           0        3.361642   -0.242735   -0.056028
      9          7           0        2.687517    1.010344   -0.373923
     10          6           0        1.494769    1.453885    0.115872
     11          8           0        0.981398    2.493116   -0.287356
     12          6           0        0.838425    0.603845    1.196984
     13          7           0       -3.908325   -0.631123   -0.622843
     14          1           0       -2.468716   -0.821708    1.633713
     15          1           0       -3.938569    0.105880    1.946916
     16          1           0       -2.355040    0.919251    1.971850
     17          1           0       -3.679645    1.365792   -0.128000
     18          1           0       -1.953458    0.956508   -1.774951
     19          1           0       -1.216889    1.550382   -0.301208
     20          1           0       -0.352907   -1.133397    1.515208
     21          1           0        1.871348   -1.973866    1.585086
     22          1           0        0.973803   -2.781465    0.308322
     23          1           0        3.257461   -2.356448   -0.404627
     24          1           0        2.167333   -1.408452   -1.417411
     25          1           0        3.640898   -0.257702    1.007486
     26          1           0        4.298279   -0.236596   -0.620330
     27          1           0        3.042374    1.567864   -1.139858
     28          1           0        1.540699    0.440249    2.026701
     29          1           0        0.015493    1.203257    1.588858
     30          1           0       -4.069620   -0.419918   -1.607788
     31          1           0       -3.354888   -1.489653   -0.613160
 ---------------------------------------------------------------------

 SCF Done:  E(UB3LYP) =  -936.967982439     A.U. after   33 cycles
 SCF Done:  E(UB3LYP) =  -936.967982439     a.u. after    1 cycles

 The electronic state is 2-A.
 Alpha  occ. eigenvalues --  -88.73934 -18.98765 -14.23379 -14.20457 -10.17271
 Alpha  occ. eigenvalues --  -10.11497 -10.11388 -10.10623 -10.09831 -10.08438
 Alpha  occ. eigenvalues --  -10.07544 -10.06943 -10.06881  -7.82569  -5.78965
 Alpha  occ. eigenvalues --   -5.78575  -5.77948  -0.93818  -0.82416  -0.80473
 Alpha  occ. eigenvalues --   -0.73384  -0.68194  -0.66711  -0.63387  -0.60366
 Alpha  occ. eigenvalues --   -0.57356  -0.53770  -0.48606  -0.47850  -0.44833
 Alpha  occ. eigenvalues --   -0.41309  -0.40438  -0.39070  -0.37246  -0.36735
 Alpha  occ. eigenvalues --   -0.35382  -0.34886  -0.33288  -0.32455  -0.31745
 Alpha  occ. eigenvalues --   -0.31298  -0.30203  -0.28634  -0.27885  -0.27274
 Alpha  occ. eigenvalues --   -0.26951  -0.25682  -0.24570  -0.23631  -0.22710
 Alpha  occ. eigenvalues --   -0.20320  -0.16336  -0.15729  -0.15452  -0.13128
 Alpha  occ. eigenvalues --    0.04190
 Alpha virt. eigenvalues --    0.06188   0.06774   0.07785   0.08327   0.08681
 Alpha virt. eigenvalues --    0.09570   0.09922   0.10536   0.10576   0.11380
 Alpha virt. eigenvalues --    0.11736   0.11863   0.12610   0.12894   0.13457

  Beta  occ. eigenvalues --  -88.73931 -18.98763 -14.23362 -14.20444 -10.17271
  Beta  occ. eigenvalues --  -10.11494 -10.11380 -10.10575 -10.09826 -10.08413
  Beta  occ. eigenvalues --  -10.07516 -10.06920 -10.06859  -7.82564  -5.78962
  Beta  occ. eigenvalues --   -5.78572  -5.77945  -0.93812  -0.82381  -0.80453
  Beta  occ. eigenvalues --   -0.73348  -0.68155  -0.66669  -0.63358  -0.60304
  Beta  occ. eigenvalues --   -0.57307  -0.53725  -0.48567  -0.47785  -0.44790
  Beta  occ. eigenvalues --   -0.41268  -0.40379  -0.39031  -0.37207  -0.36706
  Beta  occ. eigenvalues --   -0.35349  -0.34851  -0.33240  -0.32418  -0.31714
  Beta  occ. eigenvalues --   -0.31266  -0.30164  -0.28608  -0.27858  -0.27237
  Beta  occ. eigenvalues --   -0.26928  -0.25643  -0.24528  -0.23581  -0.22675
  Beta  occ. eigenvalues --   -0.20300  -0.16323  -0.15711  -0.15421  -0.13115
  Beta virt. eigenvalues --    0.06178   0.07201   0.07628   0.08162   0.08947
  Beta virt. eigenvalues --    0.09269   0.09859   0.10094   0.10772   0.11043
  Beta virt. eigenvalues --    0.11638   0.11922   0.12345   0.12910   0.13185

 Mulliken charges and spin densities:
               1          2
     1  C    0.227337  -0.848651
     2  C   -0.662291   0.548885
     3  C   -0.200641  -0.243668
     4  S    0.382845  -0.601556
     5  C   -0.895931   1.640213
     6  C    1.331441  -1.949057
     7  C   -0.938563   0.832386
     8  C    1.548582  -2.034130
     9  N   -0.251770   0.109200
    10  C   -0.576903   0.549618
    11  O   -0.316691   0.006626
    12  C    1.131197  -1.967273
    13  N   -0.242799  -0.059028
    14  H   -0.117918   0.268554
    15  H    0.075784   0.099466
    16  H   -0.093946   0.223581
    17  H    0.081332   0.085712
    18  H    0.139461   0.090396
    19  H    0.260136  -0.064554
    20  H    0.152138   0.151182
    21  H   -0.540329   0.713330
    22  H   -0.156747   0.331754
    23  H   -0.455921   0.639550
    24  H    0.104330   0.028676
    25  H   -0.145706   0.323950
    26  H   -1.053065   1.248693
    27  H    0.033262   0.275124
    28  H   -0.422071   0.592920
    29  H    0.306258  -0.136925
    30  H    0.104110   0.112318
    31  H    0.193081   0.032706
 Sum of Mulliken charges =  -1.00000   1.00000

 Dipole moment (field-independent basis, Debye):
    X=             -6.7931    Y=              2.1048    Z=             -2.0408  Tot=              7.3988
 Quadrupole moment (field-independent basis, Debye-Ang):
   XX=           -173.6187   YY=           -132.6879   ZZ=           -122.1506
   XY=              4.1585   XZ=              2.4786   YZ=              4.7926

 Summary of Natural Population Analysis:

                                       Natural Population
                Natural  -----------------------------------------------
    Atom  No    Charge         Core      Valence    Rydberg      Total
 -----------------------------------------------------------------------
      C    1   -0.29101      0.99964     2.28441    0.00696     3.29101
      C    2   -0.02040      0.99961     2.00982    0.01097     3.02040
      C    3   -0.26191      0.99955     2.25241    0.00995     3.26191
      S    4    0.07723      4.99960     2.90611    0.01707     7.92277
      C    5   -0.16149      0.99955     2.14809    0.01385     3.16149
      C    6   -0.19468      0.99959     2.18413    0.01095     3.19468
      C    7   -0.19778      0.99961     2.18893    0.00923     3.19778
      C    8   -0.09062      0.99961     2.07925    0.01177     3.09062
      N    9   -0.31532      0.99966     2.80513    0.01053     3.81532
      C   10    0.34665      0.99966     1.62934    0.02435     2.65335
      O   11   -0.33110      0.99988     3.32576    0.00546     4.33110
      C   12   -0.24332      0.99955     2.23399    0.00978     3.24332
      N   13   -0.42348      0.99977     2.91422    0.00949     3.92348
      H   14    0.09952      0.00000     0.39937    0.00111     0.40048
      H   15    0.10293      0.00000     0.39612    0.00095     0.39707
      H   16    0.09942      0.00000     0.39966    0.00093     0.40058
      H   17    0.08775      0.00000     0.41045    0.00180     0.41225
      H   18    0.10352      0.00000     0.39543    0.00106     0.39648
      H   19    0.11975      0.00000     0.37853    0.00172     0.38025
      H   20    0.10382      0.00000     0.39377    0.00242     0.39618
      H   21    0.10466      0.00000     0.39270    0.00264     0.39534
      H   22    0.10475      0.00000     0.39388    0.00137     0.39525
      H   23    0.10580      0.00000     0.39212    0.00208     0.39420
      H   24    0.10196      0.00000     0.39645    0.00158     0.39804
      H   25    0.09487      0.00000     0.40257    0.00256     0.40513
      H   26    0.10692      0.00000     0.38909    0.00399     0.39308
      H   27    0.19572      0.00000     0.30196    0.00233     0.30428
      H   28    0.11559      0.00000     0.38272    0.00170     0.38441
      H   29    0.11224      0.00000     0.38662    0.00115     0.38776
      H   30    0.17064      0.00000     0.32769    0.00166     0.32936
      H   31    0.17738      0.00000     0.32054    0.00208     0.32262
 =======================================================================
   * Total *    0.00000     16.99528    37.82124    0.18348    55.00000

 Normal termination of Gaussian 16 at Wed Dec  9 23:13:42 2020.
