 Gaussian 16, Revision A.03,

 -----------------------------------------------------------
 # opt freq B3LYP/6-31G(d) empiricaldispersion=gd3bj scf=xqc
 -----------------------------------------------------------

 ------------------------------
 CID_65703182_JID_4995_neutraal
 ------------------------------
 Symbolic Z-matrix:
 Charge =  0 Multiplicity = 1

 SCF Done:  E(RB3LYP) =  -609.744674224     A.U. after   15 cycles
 SCF Done:  E(RB3LYP) =  -609.747205002     A.U. after   12 cycles
 SCF Done:  E(RB3LYP) =  -609.747543364     A.U. after   12 cycles
 SCF Done:  E(RB3LYP) =  -609.747697468     A.U. after   11 cycles
 SCF Done:  E(RB3LYP) =  -609.747774084     A.U. after   11 cycles
 SCF Done:  E(RB3LYP) =  -609.747860531     A.U. after   11 cycles
 SCF Done:  E(RB3LYP) =  -609.747871944     A.U. after   11 cycles
 SCF Done:  E(RB3LYP) =  -609.747885341     A.U. after    8 cycles
 SCF Done:  E(RB3LYP) =  -609.748039594     A.U. after   11 cycles
 SCF Done:  E(RB3LYP) =  -609.748194170     A.U. after   12 cycles
 SCF Done:  E(RB3LYP) =  -609.748281989     A.U. after    9 cycles
 SCF Done:  E(RB3LYP) =  -609.748283788     A.U. after    8 cycles
 SCF Done:  E(RB3LYP) =  -609.748284494     A.U. after    9 cycles
 SCF Done:  E(RB3LYP) =  -609.748284573     A.U. after    7 cycles
 SCF Done:  E(RB3LYP) =  -609.748284619     A.U. after    7 cycles
 SCF Done:  E(RB3LYP) =  -609.748284629     A.U. after    6 cycles
 Optimization completed.
    -- Stationary point found.
 Normal termination of Gaussian 16 at Thu Dec 10 11:12:55 2020.

 --------------------------------------------------------------------
 #N Geom=AllCheck Guess=TCheck SCRF=Check GenChk RB3LYP/6-31G(d) Freq
 --------------------------------------------------------------------

 Structure from the checkpoint file:  "JID_4995.chk"
 ------------------------------
 CID_65703182_JID_4995_neutraal
 ------------------------------
 Charge =  0 Multiplicity = 1

 SCF Done:  E(RB3LYP) =  -609.748284629     A.U. after    2 cycles

  Exact polarizability: 141.395   0.439 129.479  -1.107   2.755 100.811
 Approx polarizability: 195.628  -8.338 190.118  -3.047   8.016 147.578

                      1                      2                      3
                      A                      A                      A
 Frequencies --     31.8076                39.8410                56.1292
 Red. masses --      3.1119                 3.2667                 2.6378
 Frc consts  --      0.0019                 0.0031                 0.0049
 IR Inten    --      0.2978                 1.3283                 0.0265

                      4                      5                      6
                      A                      A                      A
 Frequencies --     69.8740                94.8817               113.5066
 Red. masses --      4.7625                 2.4779                 4.0865
 Frc consts  --      0.0137                 0.0131                 0.0310
 IR Inten    --      1.6461                 0.6398                 1.7109

                      7                      8                      9
                      A                      A                      A
 Frequencies --    133.7783               161.0446               176.6253
 Red. masses --      3.0385                 2.5030                 2.6158
 Frc consts  --      0.0320                 0.0382                 0.0481
 IR Inten    --      0.7656                 2.4074                 0.4035

                     10                     11                     12
                      A                      A                      A
 Frequencies --    205.9180               221.3073               244.0682
 Red. masses --      1.3024                 1.3980                 1.4041
 Frc consts  --      0.0325                 0.0403                 0.0493
 IR Inten    --      0.1717                 1.5599                 2.2906

                     13                     14                     15
                      A                      A                      A
 Frequencies --    265.5563               304.9196               323.0359
 Red. masses --      2.2515                 2.1017                 2.8416
 Frc consts  --      0.0935                 0.1151                 0.1747
 IR Inten    --      1.2864                 0.3893                 2.1658

                     16                     17                     18
                      A                      A                      A
 Frequencies --    337.9898               384.8174               460.0593
 Red. masses --      3.7505                 4.3884                 4.9437
 Frc consts  --      0.2524                 0.3829                 0.6165
 IR Inten    --      2.8808                 2.6130                 5.1608

                     19                     20                     21
                      A                      A                      A
 Frequencies --    482.4172               508.4584               607.8619
 Red. masses --      4.3321                 4.3391                 3.7920
 Frc consts  --      0.5940                 0.6609                 0.8255
 IR Inten    --      0.3786                 0.4410                 1.2693

                     22                     23                     24
                      A                      A                      A
 Frequencies --    622.8832               687.5878               726.1859
 Red. masses --      3.9834                 4.4115                 4.2835
 Frc consts  --      0.9106                 1.2288                 1.3309
 IR Inten    --      3.7361                 5.6544                 1.7790

                     25                     26                     27
                      A                      A                      A
 Frequencies --    768.9238               779.6478               802.9497
 Red. masses --      3.3923                 1.5016                 1.3744
 Frc consts  --      1.1817                 0.5378                 0.5221
 IR Inten    --      2.2943                 0.8971                 3.1088

                     28                     29                     30
                      A                      A                      A
 Frequencies --    811.6188               836.7271               891.2933
 Red. masses --      1.4161                 2.5340                 2.6927
 Frc consts  --      0.5496                 1.0453                 1.2603
 IR Inten    --      2.0284                 4.9652                18.6267

                     31                     32                     33
                      A                      A                      A
 Frequencies --    952.4148               979.8717               986.3969
 Red. masses --      2.2666                 2.2985                 2.5756
 Frc consts  --      1.2114                 1.3003                 1.4765
 IR Inten    --     14.1390                 2.6838                 7.3920

                     34                     35                     36
                      A                      A                      A
 Frequencies --   1049.2105              1068.8347              1079.8097
 Red. masses --      3.8566                 1.7205                 2.2128
 Frc consts  --      2.5014                 1.1581                 1.5202
 IR Inten    --      4.4952                22.3987                14.9969

                     37                     38                     39
                      A                      A                      A
 Frequencies --   1093.2843              1097.3726              1102.2926
 Red. masses --      1.9552                 2.3174                 1.8139
 Frc consts  --      1.3769                 1.6442                 1.2986
 IR Inten    --      3.0691                 4.3647                24.8788

                     40                     41                     42
                      A                      A                      A
 Frequencies --   1115.5195              1149.8302              1164.0884
 Red. masses --      1.6980                 1.8453                 2.4868
 Frc consts  --      1.2449                 1.4374                 1.9855
 IR Inten    --      0.5707                 0.5076                12.7121

                     43                     44                     45
                      A                      A                      A
 Frequencies --   1271.5803              1290.7272              1296.7993
 Red. masses --      2.1036                 1.3205                 1.3168
 Frc consts  --      2.0040                 1.2962                 1.3047
 IR Inten    --      0.2725                 5.8305                 3.4953

                     46                     47                     48
                      A                      A                      A
 Frequencies --   1305.4754              1343.0180              1361.6660
 Red. masses --      1.7368                 1.5253                 1.5291
 Frc consts  --      1.7440                 1.6210                 1.6704
 IR Inten    --      6.9427                30.2830                29.2158

                     49                     50                     51
                      A                      A                      A
 Frequencies --   1367.5978              1381.8914              1398.8695
 Red. masses --      1.5072                 2.1159                 1.3830
 Frc consts  --      1.6609                 2.3807                 1.5945
 IR Inten    --      9.3977                11.7910                 3.1471

                     52                     53                     54
                      A                      A                      A
 Frequencies --   1413.3268              1434.5935              1439.0761
 Red. masses --      2.0258                 1.2710                 1.2329
 Frc consts  --      2.3842                 1.5412                 1.5044
 IR Inten    --     15.7895                 5.7484                 1.7456

                     55                     56                     57
                      A                      A                      A
 Frequencies --   1450.8848              1470.0162              1506.1605
 Red. masses --      1.2683                 3.4597                 1.1050
 Frc consts  --      1.5731                 4.4049                 1.4769
 IR Inten    --      4.9339                59.4507                 5.4803

                     58                     59                     60
                      A                      A                      A
 Frequencies --   1507.0681              1512.2894              1525.2928
 Red. masses --      1.0805                 1.0894                 1.0426
 Frc consts  --      1.4460                 1.4680                 1.4292
 IR Inten    --      2.7449                 4.4226                 3.6194

                     61                     62                     63
                      A                      A                      A
 Frequencies --   1525.9784              1526.8494              1530.0901
 Red. masses --      1.1142                 1.0800                 1.1675
 Frc consts  --      1.5286                 1.4834                 1.6104
 IR Inten    --     13.7326                 2.4034                 0.6543

                     64                     65                     66
                      A                      A                      A
 Frequencies --   1535.7484              1538.8245              1556.6287
 Red. masses --      1.1237                 1.0536                 2.8672
 Frc consts  --      1.5615                 1.4700                 4.0934
 IR Inten    --      9.2771                 8.2449                26.0150

                     67                     68                     69
                      A                      A                      A
 Frequencies --   1582.1974              2377.4023              3052.7090
 Red. masses --      6.3534                12.6693                 1.0688
 Frc consts  --      9.3708                42.1897                 5.8684
 IR Inten    --     73.1816                 0.5724                20.4575

                     70                     71                     72
                      A                      A                      A
 Frequencies --   3054.9202              3055.3734              3057.3247
 Red. masses --      1.0574                 1.0432                 1.0390
 Frc consts  --      5.8142                 5.7379                 5.7223
 IR Inten    --      7.6412                21.4250                31.1586

                     73                     74                     75
                      A                      A                      A
 Frequencies --   3058.0909              3067.2224              3095.4372
 Red. masses --      1.0564                 1.0379                 1.0948
 Frc consts  --      5.8208                 5.7528                 6.1804
 IR Inten    --     25.6892                19.9656                15.6329

                     76                     77                     78
                      A                      A                      A
 Frequencies --   3097.3058              3108.4514              3114.2874
 Red. masses --      1.0916                 1.0985                 1.0974
 Frc consts  --      6.1697                 6.2535                 6.2708
 IR Inten    --     16.0640                 3.5604                 6.9501

                     79                     80                     81
                      A                      A                      A
 Frequencies --   3124.5632              3131.1415              3132.2838
 Red. masses --      1.1035                 1.1025                 1.0986
 Frc consts  --      6.3476                 6.3687                 6.3503
 IR Inten    --     39.9733                23.8808                33.1182

                     82                     83                     84
                      A                      A                      A
 Frequencies --   3138.9963              3139.7872              3165.0685
 Red. masses --      1.1027                 1.1036                 1.1009
 Frc consts  --      6.4016                 6.4100                 6.4980
 IR Inten    --     30.2000                19.8360                10.2709

 - Thermochemistry -
 -------------------
 Temperature   298.150 Kelvin.  Pressure   1.00000 Atm.
 Atom     1 has atomic number  6 and mass  12.00000

 Molecular mass:   192.13750 amu.
 Principal axes and moments of inertia in atomic units:
                           1         2         3
     Eigenvalues --  2271.585023458.239364425.18935
           X            0.99847   0.05200   0.01899
           Y           -0.05154   0.99839  -0.02377
           Z           -0.02019   0.02276   0.99954
 This molecule is an asymmetric top.
 Rotational symmetry number  1.
 Warning -- assumption of classical behavior for rotation
           may cause significant error
 Rotational temperatures (Kelvin)      0.03813     0.02505     0.01957
 Rotational constants (GHZ):           0.79449     0.52187     0.40783
 Zero-point vibrational energy     676091.4 (Joules/Mol)
                                  161.58972 (Kcal/Mol)
 Warning -- explicit consideration of  21 degrees of freedom as
           vibrations may cause significant error
 Vibrational temperatures:     45.76    57.32    80.76   100.53   136.51
          (Kelvin)            163.31   192.48   231.71   254.12   296.27
                              318.41   351.16   382.08   438.71   464.78
                              486.29   553.67   661.92   694.09   731.56
                              874.58   896.19   989.29  1044.82  1106.31
                             1121.74  1155.27  1167.74  1203.86  1282.37
                             1370.31  1409.82  1419.21  1509.58  1537.81
                             1553.61  1572.99  1578.87  1585.95  1604.98
                             1654.35  1674.86  1829.52  1857.07  1865.80
                             1878.29  1932.30  1959.13  1967.67  1988.23
                             2012.66  2033.46  2064.06  2070.51  2087.50
                             2115.03  2167.03  2168.33  2175.85  2194.56
                             2195.54  2196.80  2201.46  2209.60  2214.03
                             2239.64  2276.43  3420.55  4392.17  4395.35
                             4396.00  4398.81  4399.91  4413.05  4453.64
                             4456.33  4472.37  4480.76  4495.55  4505.01
                             4506.66  4516.32  4517.45  4553.83

 Zero-point correction=                           0.257510 (Hartree/Particle)
 Thermal correction to Energy=                    0.272780
 Thermal correction to Enthalpy=                  0.273724
 Thermal correction to Gibbs Free Energy=         0.213744
 Sum of electronic and zero-point Energies=           -609.490775
 Sum of electronic and thermal Energies=              -609.475505
 Sum of electronic and thermal Enthalpies=            -609.474561
 Sum of electronic and thermal Free Energies=         -609.534540

                     E (Thermal)             CV                S
                      KCal/Mol        Cal/Mol-Kelvin    Cal/Mol-Kelvin
 Total                  171.172             54.386            126.238
 Electronic               0.000              0.000              0.000
 Translational            0.889              2.981             41.665
 Rotational               0.889              2.981             31.919
 Vibrational            169.394             48.424             52.654
 Vibration     1          0.594              1.983              5.713
 Vibration     2          0.594              1.981              5.267
 Vibration     3          0.596              1.975              4.589
 Vibration     4          0.598              1.968              4.157
 Vibration     5          0.603              1.953              3.557
 Vibration     6          0.607              1.938              3.208
 Vibration     7          0.613              1.920              2.891
 Vibration     8          0.622              1.890              2.537
 Vibration     9          0.628              1.871              2.364
 Vibration    10          0.640              1.831              2.080
 Vibration    11          0.648              1.809              1.948
 Vibration    12          0.659              1.773              1.773
 Vibration    13          0.671              1.736              1.625
 Vibration    14          0.696              1.664              1.390
 Vibration    15          0.708              1.629              1.295
 Vibration    16          0.718              1.600              1.222
 Vibration    17          0.754              1.503              1.020
 Vibration    18          0.818              1.339              0.766
 Vibration    19          0.839              1.289              0.704
 Vibration    20          0.864              1.231              0.637
 Vibration    21          0.967              1.015              0.436

 Optimization completed.
    -- Stationary point found.
 Normal termination of Gaussian 16 at Thu Dec 10 11:21:07 2020.

 ----------------------------------------------------------------------
 # B3LYP/6-311++G(d,p) empiricaldispersion=gd3bj scf=xqc pop=npa geom=c
 heck
 ----------------------------------------------------------------------

 --------------------------------------
 CID_65703182_JID_4995_Energie_neutraal
 --------------------------------------
 Structure from the checkpoint file:  "JID_4995.chk"
 Charge =  0 Multiplicity = 1

 SCF Done:  E(RB3LYP) =  -609.911966473     A.U. after   15 cycles
 Normal termination of Gaussian 16 at Thu Dec 10 11:24:21 2020.

 ----------------------------------------------------------------------
 # B3LYP/6-311++G(d,p) empiricaldispersion=gd3bj scf=xqc pop=npa geom=c
 heck
 ----------------------------------------------------------------------

 ------------------------------------
 CID_65703182_JID_4995_Energie_kation
 ------------------------------------
 Structure from the checkpoint file:  "JID_4995.chk"
 Charge =  1 Multiplicity = 2

 SCF Done:  E(UB3LYP) =  -609.576945259     A.U. after   26 cycles
 Normal termination of Gaussian 16 at Thu Dec 10 11:33:10 2020.
 Gaussian 16:  ES64L-G16RevA.03 25-Dec-2016

 ----------------------------------------------------------------------
 # B3LYP/6-311++G(d,p) empiricaldispersion=gd3bj scf=xqc pop=npa geom=c
 heck
 ----------------------------------------------------------------------

 -----------------------------------
 CID_65703182_JID_4995_Energie_anion
 -----------------------------------
 Structure from the checkpoint file:  "JID_4995.chk"
 Charge = -1 Multiplicity = 2

                         Standard orientation:
 ---------------------------------------------------------------------
 Center     Atomic      Atomic             Coordinates (Angstroms)
 Number     Number       Type             X           Y           Z
 ---------------------------------------------------------------------
      1          6           0       -3.864925   -1.048940    0.729511
      2          6           0       -2.903797   -1.386725   -0.420090
      3          6           0       -1.684676   -0.521217   -0.408534
      4          7           0       -0.463375   -1.003697   -0.228213
      5          7           0        0.311535    0.121883   -0.270259
      6          6           0       -0.469532    1.219629   -0.479928
      7          7           0       -1.734668    0.840111   -0.563090
      8          6           0        0.025033    2.629280   -0.555616
      9          6           0        0.341740    3.231868    0.824243
     10          6           0        1.755433    0.040275   -0.103781
     11          6           0        2.190152   -0.340096    1.331767
     12          6           0        1.885737   -1.780764    1.741844
     13          6           0        2.338478   -0.871099   -1.105466
     14          7           0        2.842863   -1.579786   -1.872076
     15          1           0       -3.387448   -1.221818    1.700304
     16          1           0       -4.766099   -1.668891    0.676589
     17          1           0       -4.163634    0.002641    0.680951
     18          1           0       -2.583225   -2.431590   -0.364759
     19          1           0       -3.420864   -1.252296   -1.378285
     20          1           0        0.907312    2.690485   -1.205624
     21          1           0       -0.765257    3.208738   -1.039944
     22          1           0        1.154113    2.693555    1.325425
     23          1           0        0.644385    4.279139    0.724748
     24          1           0       -0.539513    3.187228    1.471382
     25          1           0        2.138046    1.042508   -0.320020
     26          1           0        3.267770   -0.147354    1.399125
     27          1           0        1.692746    0.368562    2.004360
     28          1           0        2.401883   -2.489925    1.086514
     29          1           0        2.227648   -1.954089    2.767374
     30          1           0        0.815797   -1.989737    1.683628
 ---------------------------------------------------------------------

 SCF Done:  E(UB3LYP) =  -609.904534517     A.U. after   31 cycles

 The electronic state is 2-A.
 Alpha  occ. eigenvalues --  -14.30608 -14.24151 -14.22641 -14.20651 -10.17198
 Alpha  occ. eigenvalues --  -10.15152 -10.13116 -10.12384 -10.09277 -10.09273
 Alpha  occ. eigenvalues --  -10.08912 -10.08049 -10.06663 -10.06480  -0.98624
 Alpha  occ. eigenvalues --   -0.83260  -0.81123  -0.76950  -0.71705  -0.68580
 Alpha  occ. eigenvalues --   -0.66881  -0.62862  -0.56674  -0.55470  -0.53613
 Alpha  occ. eigenvalues --   -0.50732  -0.48754  -0.44898  -0.40436  -0.39349
 Alpha  occ. eigenvalues --   -0.37329  -0.36420  -0.35403  -0.35089  -0.34407
 Alpha  occ. eigenvalues --   -0.33178  -0.30165  -0.29436  -0.28787  -0.28549
 Alpha  occ. eigenvalues --   -0.27937  -0.27323  -0.26951  -0.26873  -0.25925
 Alpha  occ. eigenvalues --   -0.25637  -0.24994  -0.24412  -0.22924  -0.19551
 Alpha  occ. eigenvalues --   -0.18608  -0.16441   0.04210
 Alpha virt. eigenvalues --    0.06223   0.07112   0.07857   0.08511   0.08998
 Alpha virt. eigenvalues --    0.09259   0.09540   0.09904   0.10562   0.10670
 Alpha virt. eigenvalues --    0.11208   0.11639   0.11923   0.12514   0.13061

  Beta  occ. eigenvalues --  -14.30591 -14.24143 -14.22629 -14.20630 -10.17171
  Beta  occ. eigenvalues --  -10.15146 -10.13118 -10.12372 -10.09270 -10.09237
  Beta  occ. eigenvalues --  -10.08880 -10.08040 -10.06648 -10.06408  -0.98601
  Beta  occ. eigenvalues --   -0.83223  -0.81096  -0.76921  -0.71661  -0.68544
  Beta  occ. eigenvalues --   -0.66826  -0.62807  -0.56640  -0.55370  -0.53536
  Beta  occ. eigenvalues --   -0.50674  -0.48717  -0.44857  -0.40347  -0.39289
  Beta  occ. eigenvalues --   -0.37280  -0.36381  -0.35364  -0.35041  -0.34368
  Beta  occ. eigenvalues --   -0.33141  -0.30135  -0.29373  -0.28736  -0.28516
  Beta  occ. eigenvalues --   -0.27881  -0.27277  -0.26913  -0.26846  -0.25883
  Beta  occ. eigenvalues --   -0.25589  -0.24966  -0.24345  -0.22890  -0.19466
  Beta  occ. eigenvalues --   -0.18583  -0.16397
  Beta virt. eigenvalues --    0.06134   0.07196   0.07822   0.08236   0.08764
  Beta virt. eigenvalues --    0.09398   0.09574   0.09730   0.10416   0.10716
  Beta virt. eigenvalues --    0.10796   0.11604   0.11906   0.12217   0.12642

 Mulliken charges and spin densities:
               1          2
     1  C   -0.240821  -0.254111
     2  C   -0.254589  -0.086184
     3  C    0.139912  -0.141739
     4  N   -0.204475   0.049410
     5  N    0.341958  -0.008152
     6  C    1.067164  -1.031487
     7  N   -0.054503   0.070408
     8  C   -1.654003   1.368479
     9  C    1.671271  -2.157057
    10  C   -0.434188   0.799634
    11  C    0.814419  -1.140906
    12  C   -0.000980  -0.549460
    13  C    0.388358  -0.860110
    14  N   -0.308467   0.027231
    15  H    0.019060   0.119040
    16  H    0.064838   0.072096
    17  H    0.115508   0.049489
    18  H    0.138497   0.012757
    19  H    0.108929   0.044720
    20  H   -0.205161   0.386425
    21  H   -0.127457   0.316570
    22  H   -0.689314   0.834320
    23  H   -0.803782   0.975912
    24  H   -0.103596   0.256459
    25  H   -0.386726   0.644470
    26  H   -0.485591   0.662448
    27  H    0.007206   0.152147
    28  H    0.102396   0.058348
    29  H   -0.171660   0.313520
    30  H    0.145799   0.015324
 Sum of Mulliken charges =  -1.00000   1.00000

 Dipole moment (field-independent basis, Debye):
    X=             -6.4354    Y=             -5.8323    Z=             -1.1007  Tot=              8.7545
 Quadrupole moment (field-independent basis, Debye-Ang):
   XX=           -142.7089   YY=           -147.4433   ZZ=           -123.1305
   XY=             -3.3548   XZ=             -0.2391   YZ=             -7.5131

 Summary of Natural Population Analysis:

                                       Natural Population
                Natural  -----------------------------------------------
    Atom  No    Charge         Core      Valence    Rydberg      Total
 -----------------------------------------------------------------------
      C    1   -0.28105      0.99967     2.27749    0.00390     3.28105
      C    2   -0.20726      0.99960     2.20015    0.00750     3.20726
      C    3    0.17728      0.99964     1.80434    0.01873     2.82272
      N    4   -0.16615      0.99969     2.65593    0.01053     3.66615
      N    5   -0.12030      0.99960     2.60729    0.01342     3.62030
      C    6    0.21737      0.99958     1.76645    0.01660     2.78263
      N    7   -0.27024      0.99968     2.76158    0.00899     3.77024
      C    8   -0.21674      0.99960     2.20796    0.00918     3.21674
      C    9   -0.27914      0.99965     2.27413    0.00536     3.27914
      C   10   -0.06007      0.99949     2.04513    0.01545     3.06007
      C   11   -0.18337      0.99962     2.17480    0.00894     3.18337
      C   12   -0.29211      0.99965     2.28681    0.00565     3.29211
      C   13    0.16549      0.99963     1.81793    0.01695     2.83451
      N   14   -0.17207      0.99979     2.66188    0.01040     3.67207
      H   15    0.09847      0.00000     0.40040    0.00113     0.40153
      H   16    0.09355      0.00000     0.40546    0.00099     0.40645
      H   17    0.10412      0.00000     0.39456    0.00133     0.39588
      H   18    0.10502      0.00000     0.39384    0.00113     0.39498
      H   19    0.10255      0.00000     0.39623    0.00122     0.39745
      H   20    0.10877      0.00000     0.38924    0.00198     0.39123
      H   21    0.11345      0.00000     0.38523    0.00132     0.38655
      H   22    0.09955      0.00000     0.39743    0.00302     0.40045
      H   23    0.10612      0.00000     0.39054    0.00334     0.39388
      H   24    0.09958      0.00000     0.39912    0.00130     0.40042
      H   25    0.13492      0.00000     0.36080    0.00428     0.36508
      H   26    0.10552      0.00000     0.39212    0.00235     0.39448
      H   27    0.10672      0.00000     0.39133    0.00195     0.39328
      H   28    0.10027      0.00000     0.39891    0.00082     0.39973
      H   29    0.10090      0.00000     0.39824    0.00086     0.39910
      H   30    0.10883      0.00000     0.38982    0.00135     0.39117
 =======================================================================
   * Total *    0.00000     13.99488    37.82513    0.17999    52.00000

 Normal termination of Gaussian 16 at Thu Dec 10 11:41:56 2020.
