 Gaussian 16, Revision A.03,

 -----------------------------------------------------------
 # opt freq B3LYP/6-31G(d) empiricaldispersion=gd3bj scf=xqc
 -----------------------------------------------------------

 -------------------------------
 CID_136975370_JID_4894_neutraal
 -------------------------------
 Symbolic Z-matrix:
 Charge =  0 Multiplicity = 1

 SCF Done:  E(RB3LYP) =  -629.611707252     A.U. after   15 cycles
 SCF Done:  E(RB3LYP) =  -629.627648936     A.U. after   13 cycles
 SCF Done:  E(RB3LYP) =  -629.629174813     A.U. after   12 cycles
 SCF Done:  E(RB3LYP) =  -629.629385933     A.U. after   11 cycles
 SCF Done:  E(RB3LYP) =  -629.629484176     A.U. after   11 cycles
 SCF Done:  E(RB3LYP) =  -629.629502538     A.U. after    9 cycles
 SCF Done:  E(RB3LYP) =  -629.629506830     A.U. after    9 cycles
 SCF Done:  E(RB3LYP) =  -629.629509601     A.U. after    8 cycles
 SCF Done:  E(RB3LYP) =  -629.629516577     A.U. after   10 cycles
 SCF Done:  E(RB3LYP) =  -629.629519996     A.U. after    9 cycles
 SCF Done:  E(RB3LYP) =  -629.629523254     A.U. after    9 cycles
 SCF Done:  E(RB3LYP) =  -629.629527017     A.U. after   10 cycles
 SCF Done:  E(RB3LYP) =  -629.629528140     A.U. after    8 cycles
 SCF Done:  E(RB3LYP) =  -629.629528219     A.U. after    7 cycles
 SCF Done:  E(RB3LYP) =  -629.629528273     A.U. after    6 cycles
 Optimization completed.
    -- Stationary point found.
 Normal termination of Gaussian 16 at Thu Dec 10 10:49:39 2020.

 --------------------------------------------------------------------
 #N Geom=AllCheck Guess=TCheck SCRF=Check GenChk RB3LYP/6-31G(d) Freq
 --------------------------------------------------------------------

 Structure from the checkpoint file:  "JID_4894.chk"
 -------------------------------
 CID_136975370_JID_4894_neutraal
 -------------------------------
 Charge =  0 Multiplicity = 1

 SCF Done:  E(RB3LYP) =  -629.629528273     A.U. after    1 cycles

  Exact polarizability: 171.286  -0.545 132.394   0.020   0.015  78.442
 Approx polarizability: 255.883   1.492 188.581   0.043   0.034 117.434

                      1                      2                      3
                      A                      A                      A
 Frequencies --     20.6628                31.5896                70.3836
 Red. masses --      2.5542                 3.4064                 3.0266
 Frc consts  --      0.0006                 0.0020                 0.0088
 IR Inten    --      0.2580                 0.0848                 0.1351

                      4                      5                      6
                      A                      A                      A
 Frequencies --    102.7385               141.4909               144.2178
 Red. masses --      2.6345                 3.2454                 2.7063
 Frc consts  --      0.0164                 0.0383                 0.0332
 IR Inten    --      1.7386                 0.3185                 0.1182

                      7                      8                      9
                      A                      A                      A
 Frequencies --    170.6681               208.8272               221.9154
 Red. masses --      5.5229                 2.6788                 3.0348
 Frc consts  --      0.0948                 0.0688                 0.0881
 IR Inten    --      2.0964                11.0618                 0.1792

                     10                     11                     12
                      A                      A                      A
 Frequencies --    256.5772               284.2618               350.8853
 Red. masses --      1.3495                 5.1569                 2.7501
 Frc consts  --      0.0523                 0.2455                 0.1995
 IR Inten    --      5.7402                 5.0973                31.6812

                     13                     14                     15
                      A                      A                      A
 Frequencies --    369.4692               418.9399               468.8671
 Red. masses --      3.9145                 1.2599                 3.2814
 Frc consts  --      0.3148                 0.1303                 0.4250
 IR Inten    --      3.3730                30.6538                 3.0101

                     16                     17                     18
                      A                      A                      A
 Frequencies --    510.7823               542.7543               561.1802
 Red. masses --      4.4581                 6.3282                 2.3569
 Frc consts  --      0.6853                 1.0983                 0.4373
 IR Inten    --      5.3346                 1.3373                15.7086

                     19                     20                     21
                      A                      A                      A
 Frequencies --    618.1973               650.5290               654.9337
 Red. masses --      3.6317                 2.8917                 1.5281
 Frc consts  --      0.8177                 0.7210                 0.3862
 IR Inten    --      3.6332                 3.6670                51.5981

                     22                     23                     24
                      A                      A                      A
 Frequencies --    724.3380               739.9804               747.0706
 Red. masses --      2.7225                 3.6020                 2.6332
 Frc consts  --      0.8416                 1.1621                 0.8659
 IR Inten    --     10.6153                 2.9399                 3.8084

                     25                     26                     27
                      A                      A                      A
 Frequencies --    767.6545               793.4064               806.0287
 Red. masses --      1.6115                 1.1840                 2.0450
 Frc consts  --      0.5595                 0.4391                 0.7828
 IR Inten    --      0.1233                 0.1558                54.4802

                     28                     29                     30
                      A                      A                      A
 Frequencies --    816.4239               904.5177               923.9652
 Red. masses --      1.4160                 2.2632                 3.9756
 Frc consts  --      0.5561                 1.0910                 1.9997
 IR Inten    --      9.4076                 0.7100                19.2099

                     31                     32                     33
                      A                      A                      A
 Frequencies --    937.8141               959.8174               961.3522
 Red. masses --      2.6439                 1.4025                 2.7885
 Frc consts  --      1.3700                 0.7613                 1.5184
 IR Inten    --      0.0919                 5.4212                 2.4689

                     34                     35                     36
                      A                      A                      A
 Frequencies --    995.7910               998.2354              1059.6727
 Red. masses --      2.4301                 4.5514                 1.9028
 Frc consts  --      1.4197                 2.6722                 1.2589
 IR Inten    --     10.2568                 5.5602                 2.4161

                     37                     38                     39
                      A                      A                      A
 Frequencies --   1070.5933              1108.4366              1119.7903
 Red. masses --      2.9106                 2.0857                 1.5761
 Frc consts  --      1.9655                 1.5098                 1.1644
 IR Inten    --      1.2628                 8.9242                 0.0465

                     40                     41                     42
                      A                      A                      A
 Frequencies --   1155.6885              1162.1132              1215.2999
 Red. masses --      2.5732                 2.6442                 1.3223
 Frc consts  --      2.0249                 2.1040                 1.1507
 IR Inten    --      0.5417                18.4708                 0.0313

                     43                     44                     45
                      A                      A                      A
 Frequencies --   1220.7583              1254.4252              1258.2182
 Red. masses --      1.6712                 1.9365                 1.3418
 Frc consts  --      1.4674                 1.7954                 1.2516
 IR Inten    --     14.9878                31.6388                 8.8149

                     46                     47                     48
                      A                      A                      A
 Frequencies --   1268.7291              1272.3441              1294.4046
 Red. masses --      1.2596                 1.1728                 1.5395
 Frc consts  --      1.1946                 1.1186                 1.5198
 IR Inten    --      0.1661                 0.5024                 4.5339

                     49                     50                     51
                      A                      A                      A
 Frequencies --   1301.0522              1307.3716              1315.8359
 Red. masses --      1.3949                 1.1565                 2.3064
 Frc consts  --      1.3912                 1.1646                 2.3528
 IR Inten    --      0.0267                 0.0026               115.8157

                     52                     53                     54
                      A                      A                      A
 Frequencies --   1390.8237              1405.9677              1442.9105
 Red. masses --      1.5957                 1.9805                 1.2493
 Frc consts  --      1.8186                 2.3066                 1.5325
 IR Inten    --      2.2027               164.3732                 2.5308

                     55                     56                     57
                      A                      A                      A
 Frequencies --   1472.5561              1497.0551              1498.2260
 Red. masses --      2.3807                 1.8831                 1.0911
 Frc consts  --      3.0415                 2.4865                 1.4430
 IR Inten    --     10.5718                61.9764                 1.3561

                     58                     59                     60
                      A                      A                      A
 Frequencies --   1502.9623              1512.7181              1522.0432
 Red. masses --      1.1585                 1.1729                 1.0400
 Frc consts  --      1.5418                 1.5813                 1.4195
 IR Inten    --     25.3614                19.5595                 7.8600

                     61                     62                     63
                      A                      A                      A
 Frequencies --   1522.7269              1528.4073              1541.7905
 Red. masses --      1.9658                 1.1615                 1.1578
 Frc consts  --      2.6856                 1.5987                 1.6215
 IR Inten    --     19.3460                21.0237                18.1235

                     64                     65                     66
                      A                      A                      A
 Frequencies --   1637.8149              1673.1076              1803.1079
 Red. masses --      4.1867                 6.2717                 8.7806
 Frc consts  --      6.6169                10.3438                16.8198
 IR Inten    --    258.8340               543.5324               809.3004

                     67                     68                     69
                      A                      A                      A
 Frequencies --   3033.4284              3061.7216              3070.6862
 Red. masses --      1.0603                 1.1015                 1.0361
 Frc consts  --      5.7482                 6.0834                 5.7559
 IR Inten    --     19.4694                11.5225                16.3476

                     70                     71                     72
                      A                      A                      A
 Frequencies --   3073.7181              3077.3616              3082.9067
 Red. masses --      1.0625                 1.0824                 1.0651
 Frc consts  --      5.9145                 6.0396                 5.9645
 IR Inten    --     29.0246                20.4701                83.4525

                     73                     74                     75
                      A                      A                      A
 Frequencies --   3090.2081              3123.3090              3139.3997
 Red. masses --      1.0692                 1.1071                 1.1022
 Frc consts  --      6.0159                 6.3629                 6.4004
 IR Inten    --     51.6294                17.9322                32.7510

                     76                     77                     78
                      A                      A                      A
 Frequencies --   3149.8625              3165.9800              3170.9410
 Red. masses --      1.1030                 1.1006                 1.1003
 Frc consts  --      6.4477                 6.4999                 6.5185
 IR Inten    --     19.1409                 1.0096                43.5025

                     79                     80                     81
                      A                      A                      A
 Frequencies --   3223.9578              3588.2347              3636.9576
 Red. masses --      1.0913                 1.0778                 1.0769
 Frc consts  --      6.6833                 8.1762                 8.3928
 IR Inten    --      5.4565                46.5367                30.1235

 - Thermochemistry -
 -------------------
 Temperature   298.150 Kelvin.  Pressure   1.00000 Atm.
 Atom     1 has atomic number  6 and mass  12.00000

 Molecular mass:   193.12151 amu.
 Principal axes and moments of inertia in atomic units:
                           1         2         3
     Eigenvalues --  1708.102603635.607645033.21915
           X            0.99986   0.01649  -0.00000
           Y           -0.01649   0.99986  -0.00001
           Z            0.00000   0.00001   1.00000
 This molecule is an asymmetric top.
 Rotational symmetry number  1.
 Warning -- assumption of classical behavior for rotation
           may cause significant error
 Rotational temperatures (Kelvin)      0.05071     0.02382     0.01721
 Rotational constants (GHZ):           1.05658     0.49641     0.35857
 Zero-point vibrational energy     651378.0 (Joules/Mol)
                                  155.68307 (Kcal/Mol)
 Warning -- explicit consideration of  19 degrees of freedom as
           vibrations may cause significant error
 Vibrational temperatures:     29.73    45.45   101.27   147.82   203.57
          (Kelvin)            207.50   245.55   300.46   319.29   369.16
                              408.99   504.85   531.58   602.76   674.60
                              734.90   780.90   807.41   889.45   935.97
                              942.30  1042.16  1064.67  1074.87  1104.48
                             1141.53  1159.70  1174.65  1301.40  1329.38
                             1349.31  1380.96  1383.17  1432.72  1436.24
                             1524.63  1540.34  1594.79  1611.13  1662.78
                             1672.02  1748.55  1756.40  1804.84  1810.30
                             1825.42  1830.62  1862.36  1871.92  1881.02
                             1893.19  2001.09  2022.87  2076.03  2118.68
                             2153.93  2155.61  2162.43  2176.46  2189.88
                             2190.86  2199.04  2218.29  2356.45  2407.23
                             2594.27  4364.43  4405.13  4418.03  4422.39
                             4427.64  4435.62  4446.12  4493.74  4516.90
                             4531.95  4555.14  4562.28  4638.56  5162.67
                             5232.77

 Zero-point correction=                           0.248097 (Hartree/Particle)
 Thermal correction to Energy=                    0.261651
 Thermal correction to Enthalpy=                  0.262595
 Thermal correction to Gibbs Free Energy=         0.206290
 Sum of electronic and zero-point Energies=           -629.381432
 Sum of electronic and thermal Energies=              -629.367878
 Sum of electronic and thermal Enthalpies=            -629.366933
 Sum of electronic and thermal Free Energies=         -629.423238

                     E (Thermal)             CV                S
                      KCal/Mol        Cal/Mol-Kelvin    Cal/Mol-Kelvin
 Total                  164.188             51.087            118.502
 Electronic               0.000              0.000              0.000
 Translational            0.889              2.981             41.680
 Rotational               0.889              2.981             31.814
 Vibrational            162.411             45.126             45.009
 Vibration     1          0.593              1.986              6.569
 Vibration     2          0.594              1.983              5.727
 Vibration     3          0.598              1.968              4.143
 Vibration     4          0.605              1.947              3.402
 Vibration     5          0.615              1.912              2.784
 Vibration     6          0.616              1.909              2.747
 Vibration     7          0.626              1.879              2.428
 Vibration     8          0.642              1.827              2.054
 Vibration     9          0.648              1.808              1.943
 Vibration    10          0.666              1.752              1.685
 Vibration    11          0.683              1.703              1.508
 Vibration    12          0.728              1.573              1.162
 Vibration    13          0.742              1.535              1.082
 Vibration    14          0.782              1.429              0.896
 Vibration    15          0.826              1.319              0.741
 Vibration    16          0.866              1.226              0.632
 Vibration    17          0.898              1.156              0.559
 Vibration    18          0.917              1.115              0.521
 Vibration    19          0.978              0.993              0.419

                           ! Non-Optimized Parameters !
 Normal termination of Gaussian 16 at Thu Dec 10 10:57:38 2020.

 ----------------------------------------------------------------------
 # B3LYP/6-311++G(d,p) empiricaldispersion=gd3bj scf=xqc pop=npa geom=c
 heck
 ----------------------------------------------------------------------

 ---------------------------------------
 CID_136975370_JID_4894_Energie_neutraal
 ---------------------------------------
 Structure from the checkpoint file:  "JID_4894.chk"
 Charge =  0 Multiplicity = 1

 SCF Done:  E(RB3LYP) =  -629.808222750     A.U. after   16 cycles
 Normal termination of Gaussian 16 at Thu Dec 10 11:01:04 2020.

 ----------------------------------------------------------------------
 # B3LYP/6-311++G(d,p) empiricaldispersion=gd3bj scf=xqc pop=npa geom=c
 heck
 ----------------------------------------------------------------------

 -------------------------------------
 CID_136975370_JID_4894_Energie_kation
 -------------------------------------
 Structure from the checkpoint file:  "JID_4894.chk"
 Charge =  1 Multiplicity = 2

 SCF Done:  E(UB3LYP) =  -629.525738149     A.U. after   21 cycles
 Normal termination of Gaussian 16 at Thu Dec 10 11:07:04 2020.
 Gaussian 16:  ES64L-G16RevA.03 25-Dec-2016

 ----------------------------------------------------------------------
 # B3LYP/6-311++G(d,p) empiricaldispersion=gd3bj scf=xqc pop=npa geom=c
 heck
 ----------------------------------------------------------------------

 ------------------------------------
 CID_136975370_JID_4894_Energie_anion
 ------------------------------------
 Structure from the checkpoint file:  "JID_4894.chk"
 Charge = -1 Multiplicity = 2

                         Standard orientation:
 ---------------------------------------------------------------------
 Center     Atomic      Atomic             Coordinates (Angstroms)
 Number     Number       Type             X           Y           Z
 ---------------------------------------------------------------------
      1          6           0       -0.370549    3.053099   -0.002188
      2          6           0        1.072291    2.552572    0.001513
      3          6           0        1.199906    1.046917    0.000391
      4          7           0        0.135063    0.297202   -0.000241
      5          6           0        0.319673   -1.071514   -0.000795
      6          6           0        1.572875   -1.661957   -0.000535
      7          6           0        2.755721   -0.861635    0.000102
      8          8           0        3.930021   -1.215158    0.000490
      9          7           0        2.455833    0.536787    0.000381
     10          7           0       -0.820542   -1.821620   -0.001771
     11          6           0       -2.190635   -1.348591   -0.000532
     12          6           0       -2.705476   -0.369541    1.091190
     13          6           0       -3.589423    0.296572    0.001680
     14          6           0       -2.706601   -0.367576   -1.089938
     15          1           0       -0.906858    2.696987   -0.885722
     16          1           0       -0.387457    4.147560   -0.001045
     17          1           0       -0.912065    2.695014    0.877343
     18          1           0        1.612699    2.941646   -0.872821
     19          1           0        1.607457    2.939755    0.879926
     20          1           0        1.696756   -2.738760   -0.000781
     21          1           0        3.265966    1.146215    0.000980
     22          1           0       -0.679497   -2.820308   -0.001867
     23          1           0       -2.809552   -2.251071   -0.001024
     24          1           0       -3.202277   -0.812914    1.960051
     25          1           0       -1.907432    0.294731    1.422626
     26          1           0       -3.630637    1.388985    0.002676
     27          1           0       -4.613257   -0.091136    0.001868
     28          1           0       -1.908882    0.297283   -1.420965
     29          1           0       -3.204304   -0.809381   -1.959081
 ---------------------------------------------------------------------

 SCF Done:  E(UB3LYP) =  -629.799413717     A.U. after   33 cycles
 SCF Done:  E(UB3LYP) =  -629.799413717     a.u. after    1 cycles

 The electronic state is 2-A.
 Alpha  occ. eigenvalues --  -18.97794 -14.26215 -14.23557 -14.20556 -10.16976
 Alpha  occ. eigenvalues --  -10.16656 -10.15591 -10.11200 -10.09221 -10.07161
 Alpha  occ. eigenvalues --  -10.06994 -10.06504 -10.06438 -10.05866  -0.93752
 Alpha  occ. eigenvalues --   -0.89278  -0.85018  -0.78625  -0.74003  -0.70077
 Alpha  occ. eigenvalues --   -0.65627  -0.58215  -0.57917  -0.56205  -0.53467
 Alpha  occ. eigenvalues --   -0.50435  -0.47032  -0.46097  -0.43745  -0.41539
 Alpha  occ. eigenvalues --   -0.38427  -0.38199  -0.37796  -0.35366  -0.33918
 Alpha  occ. eigenvalues --   -0.32096  -0.31883  -0.30632  -0.30118  -0.29125
 Alpha  occ. eigenvalues --   -0.29008  -0.27365  -0.27215  -0.25505  -0.24414
 Alpha  occ. eigenvalues --   -0.23147  -0.21599  -0.21544  -0.18046  -0.15851
 Alpha  occ. eigenvalues --   -0.15801  -0.11378   0.03990
 Alpha virt. eigenvalues --    0.05443   0.06219   0.07109   0.08082   0.08152
 Alpha virt. eigenvalues --    0.09099   0.09465   0.09971   0.10877   0.11112
 Alpha virt. eigenvalues --    0.11476   0.11900   0.12672   0.13620   0.14275

  Beta  occ. eigenvalues --  -18.97792 -14.26185 -14.23530 -14.20552 -10.16977
  Beta  occ. eigenvalues --  -10.16594 -10.15559 -10.11178 -10.09188 -10.07151
  Beta  occ. eigenvalues --  -10.06971 -10.06495 -10.06425 -10.05849  -0.93727
  Beta  occ. eigenvalues --   -0.89226  -0.84951  -0.78575  -0.73969  -0.70010
  Beta  occ. eigenvalues --   -0.65583  -0.58161  -0.57834  -0.56173  -0.53390
  Beta  occ. eigenvalues --   -0.50376  -0.46980  -0.46045  -0.43687  -0.41471
  Beta  occ. eigenvalues --   -0.38393  -0.38078  -0.37739  -0.35310  -0.33845
  Beta  occ. eigenvalues --   -0.32066  -0.31856  -0.30572  -0.30079  -0.29105
  Beta  occ. eigenvalues --   -0.28941  -0.27308  -0.27147  -0.25446  -0.24387
  Beta  occ. eigenvalues --   -0.23070  -0.21562  -0.21473  -0.18027  -0.15837
  Beta  occ. eigenvalues --   -0.15737  -0.11294
  Beta virt. eigenvalues --    0.06363   0.06680   0.06882   0.07542   0.08461
  Beta virt. eigenvalues --    0.08716   0.09577   0.10030   0.10111   0.10961
  Beta virt. eigenvalues --    0.11528   0.11873   0.12324   0.12847   0.13936

 Mulliken charges and spin densities:
               1          2
     1  C    0.273424  -0.868255
     2  C   -0.373555   0.040669
     3  C    0.880504  -0.890413
     4  N   -0.104234   0.007528
     5  C    1.111337  -0.990418
     6  C   -0.361078   0.244515
     7  C   -0.036856  -0.025221
     8  O   -0.414882   0.005642
     9  N   -0.351539   0.159023
    10  N    0.039235  -0.079547
    11  C   -1.439150   1.168069
    12  C    1.035426  -1.184467
    13  C   -0.523057   0.162122
    14  C    1.313739  -1.463866
    15  H    0.123557   0.027316
    16  H   -0.368058   0.527393
    17  H    0.125277   0.026544
    18  H   -0.198977   0.359937
    19  H   -0.609872   0.796605
    20  H   -0.105905   0.277374
    21  H    0.189039   0.153710
    22  H   -0.064972   0.381521
    23  H   -1.166843   1.362988
    24  H    0.012252   0.139726
    25  H    0.017143   0.115329
    26  H    0.069933   0.058163
    27  H    0.013310   0.113395
    28  H   -0.000354   0.132487
    29  H   -0.084844   0.242128
 Sum of Mulliken charges =  -1.00000   1.00000

 Dipole moment (field-independent basis, Debye):
    X=             -1.3744    Y=              1.7482    Z=             -0.4094  Tot=              2.2612
 Quadrupole moment (field-independent basis, Debye-Ang):
   XX=           -155.1869   YY=           -148.3423   ZZ=           -109.6368
   XY=             -9.0332   XZ=             -3.7804   YZ=             -5.6539

 Summary of Natural Population Analysis:

                                       Natural Population
                Natural  -----------------------------------------------
    Atom  No    Charge         Core      Valence    Rydberg      Total
 -----------------------------------------------------------------------
      C    1   -0.28223      0.99967     2.27644    0.00612     3.28223
      C    2   -0.21226      0.99961     2.20426    0.00840     3.21226
      C    3    0.26529      0.99961     1.72014    0.01496     2.73471
      N    4   -0.29649      0.99963     2.78696    0.00991     3.79649
      C    5    0.22389      0.99952     1.76213    0.01447     2.77611
      C    6   -0.21355      0.99948     2.20538    0.00869     3.21355
      C    7    0.31321      0.99962     1.66532    0.02184     2.68679
      O    8   -0.33731      0.99988     3.33135    0.00609     4.33731
      N    9   -0.29946      0.99963     2.79133    0.00850     3.79946
      N   10   -0.29771      0.99965     2.78669    0.01137     3.79771
      C   11   -0.00835      0.99958     1.99286    0.01591     3.00835
      C   12   -0.19236      0.99962     2.18477    0.00797     3.19236
      C   13   -0.19293      0.99965     2.18556    0.00772     3.19293
      C   14   -0.19244      0.99962     2.18460    0.00822     3.19244
      H   15    0.10176      0.00000     0.39705    0.00119     0.39824
      H   16    0.09979      0.00000     0.39907    0.00114     0.40021
      H   17    0.10232      0.00000     0.39651    0.00117     0.39768
      H   18    0.10520      0.00000     0.39363    0.00117     0.39480
      H   19    0.11151      0.00000     0.38408    0.00441     0.38849
      H   20    0.10808      0.00000     0.39084    0.00109     0.39192
      H   21    0.20223      0.00000     0.29533    0.00243     0.29777
      H   22    0.19617      0.00000     0.29999    0.00383     0.30383
      H   23    0.10171      0.00000     0.39384    0.00445     0.39829
      H   24    0.09354      0.00000     0.40540    0.00106     0.40646
      H   25    0.10819      0.00000     0.39013    0.00168     0.39181
      H   26    0.09562      0.00000     0.40355    0.00082     0.40438
      H   27    0.09414      0.00000     0.40475    0.00111     0.40586
      H   28    0.10786      0.00000     0.39044    0.00170     0.39214
      H   29    0.09457      0.00000     0.40418    0.00125     0.40543
 =======================================================================
   * Total *    0.00000     13.99477    37.82655    0.17868    52.00000

 Normal termination of Gaussian 16 at Thu Dec 10 11:16:07 2020.
