 Gaussian 16, Revision A.03,

 -----------------------------------------------------------
 # opt freq B3LYP/6-31G(d) empiricaldispersion=gd3bj scf=xqc
 -----------------------------------------------------------

 ------------------------------
 CID_57859073_JID_8653_neutraal
 ------------------------------
 Symbolic Z-matrix:
 Charge =  0 Multiplicity = 1

 SCF Done:  E(RB3LYP) =  -1097.59196292     A.U. after   14 cycles
 SCF Done:  E(RB3LYP) =  -1097.59168570     A.U. after   12 cycles
 SCF Done:  E(RB3LYP) =  -1097.59766197     A.U. after   12 cycles
 SCF Done:  E(RB3LYP) =  -1097.59305127     A.U. after   13 cycles
 SCF Done:  E(RB3LYP) =  -1097.59857252     A.U. after   11 cycles
 SCF Done:  E(RB3LYP) =  -1097.59917909     A.U. after   12 cycles
 SCF Done:  E(RB3LYP) =  -1097.59939887     A.U. after   12 cycles
 SCF Done:  E(RB3LYP) =  -1097.59946000     A.U. after   11 cycles
 SCF Done:  E(RB3LYP) =  -1097.59958463     A.U. after   11 cycles
 SCF Done:  E(RB3LYP) =  -1097.59963058     A.U. after   11 cycles
 SCF Done:  E(RB3LYP) =  -1097.63611146     A.U. after    7 cycles
 SCF Done:  E(RB3LYP) =  -1097.63611159     A.U. after    6 cycles
 SCF Done:  E(RB3LYP) =  -1097.63611171     A.U. after    6 cycles
 SCF Done:  E(RB3LYP) =  -1097.63611176     A.U. after    7 cycles
 SCF Done:  E(RB3LYP) =  -1097.63611176     A.U. after    7 cycles
 Optimization completed.
    -- Stationary point found.
 Normal termination of Gaussian 16 at Fri Dec 11 23:01:54 2020.

 --------------------------------------------------------------------
 #N Geom=AllCheck Guess=TCheck SCRF=Check GenChk RB3LYP/6-31G(d) Freq
 --------------------------------------------------------------------

 Structure from the checkpoint file:  "JID_8653.chk"
 ------------------------------
 CID_57859073_JID_8653_neutraal
 ------------------------------
 Charge =  0 Multiplicity = 1

 SCF Done:  E(RB3LYP) =  -1097.63611176     A.U. after    1 cycles

  Exact polarizability: 202.409  14.419 163.346  -9.820   6.886 158.232
 Approx polarizability: 276.482  26.567 250.638 -27.609  17.152 252.359

                      1                      2                      3
                      A                      A                      A
 Frequencies --     21.6764                30.3823                47.7266
 Red. masses --      4.2708                 3.8792                 4.7049
 Frc consts  --      0.0012                 0.0021                 0.0063
 IR Inten    --      0.0161                 0.0252                 0.4954

                      4                      5                      6
                      A                      A                      A
 Frequencies --     61.9489               101.9847               143.2913
 Red. masses --      3.8632                 3.2097                 3.3355
 Frc consts  --      0.0087                 0.0197                 0.0404
 IR Inten    --      0.0782                 0.4235                 1.2070

                      7                      8                      9
                      A                      A                      A
 Frequencies --    182.7512               204.8221               242.8472
 Red. masses --      3.1259                 3.1448                 1.3183
 Frc consts  --      0.0615                 0.0777                 0.0458
 IR Inten    --      0.6374                 0.8248                 0.2646

                     10                     11                     12
                      A                      A                      A
 Frequencies --    248.0862               256.5654               267.8666
 Red. masses --      1.0813                 1.4653                 2.3934
 Frc consts  --      0.0392                 0.0568                 0.1012
 IR Inten    --      0.1715                 1.0139                 0.2289

                     13                     14                     15
                      A                      A                      A
 Frequencies --    280.7355               293.1678               299.7928
 Red. masses --      2.9322                 1.7391                 1.1683
 Frc consts  --      0.1362                 0.0881                 0.0619
 IR Inten    --      0.4279                 0.0157                 0.1006

                     16                     17                     18
                      A                      A                      A
 Frequencies --    324.1036               335.0068               346.6606
 Red. masses --      3.0272                 1.9831                 2.5305
 Frc consts  --      0.1874                 0.1311                 0.1792
 IR Inten    --      0.8839                 0.1062                 1.4569

                     19                     20                     21
                      A                      A                      A
 Frequencies --    402.1296               415.5567               452.3745
 Red. masses --      2.8253                 3.5352                 2.8987
 Frc consts  --      0.2692                 0.3597                 0.3495
 IR Inten    --      1.8532                 1.1323                 0.6808

                     22                     23                     24
                      A                      A                      A
 Frequencies --    458.3210               469.5642               488.5660
 Red. masses --      2.4045                 3.7121                 3.5194
 Frc consts  --      0.2976                 0.4822                 0.4949
 IR Inten    --      0.2068                 0.1772                 0.4812

                     25                     26                     27
                      A                      A                      A
 Frequencies --    517.3000               554.9054               570.5642
 Red. masses --      2.9431                 3.6142                 3.2557
 Frc consts  --      0.4640                 0.6557                 0.6245
 IR Inten    --      3.0354                 2.5798                 2.8626

                     28                     29                     30
                      A                      A                      A
 Frequencies --    590.4169               653.5349               674.8909
 Red. masses --      3.7525                 6.0140                 1.8805
 Frc consts  --      0.7707                 1.5134                 0.5046
 IR Inten    --      6.5135                 0.9296                24.7992

                     31                     32                     33
                      A                      A                      A
 Frequencies --    697.0706               704.8969               763.7999
 Red. masses --      1.5169                 3.1773                 3.6307
 Frc consts  --      0.4343                 0.9302                 1.2479
 IR Inten    --      1.5270                 0.8889                 0.1761

                     34                     35                     36
                      A                      A                      A
 Frequencies --    797.2493               801.4869               806.4897
 Red. masses --      1.5350                 2.4498                 3.0287
 Frc consts  --      0.5748                 0.9272                 1.1607
 IR Inten    --     42.2629                 0.4751                 7.7019

                     37                     38                     39
                      A                      A                      A
 Frequencies --    818.2219               840.9426               862.4761
 Red. masses --      3.1250                 2.7945                 4.6851
 Frc consts  --      1.2327                 1.1643                 2.0534
 IR Inten    --      1.3621                11.5345                38.6871

                     40                     41                     42
                      A                      A                      A
 Frequencies --    880.6522               904.7611               919.5329
 Red. masses --      3.2899                 1.2952                 2.0563
 Frc consts  --      1.5033                 0.6247                 1.0244
 IR Inten    --      5.4777                 1.8936                 1.7009

                     43                     44                     45
                      A                      A                      A
 Frequencies --    929.8654               937.4077               946.2996
 Red. masses --      2.4163                 2.7423                 1.9349
 Frc consts  --      1.2309                 1.4198                 1.0208
 IR Inten    --      0.4027                 5.8621                 0.5132

                     46                     47                     48
                      A                      A                      A
 Frequencies --    949.2340               966.6271               980.5996
 Red. masses --      1.6038                 2.2864                 1.8277
 Frc consts  --      0.8514                 1.2587                 1.0355
 IR Inten    --      0.3124                 6.4324                 2.2587

                     49                     50                     51
                      A                      A                      A
 Frequencies --    995.5529              1007.6047              1032.1554
 Red. masses --      1.8064                 1.4926                 1.3307
 Frc consts  --      1.0548                 0.8928                 0.8352
 IR Inten    --      3.4118                 4.9847                 7.9237

                     52                     53                     54
                      A                      A                      A
 Frequencies --   1035.8816              1042.7999              1074.2850
 Red. masses --      1.5730                 1.3919                 1.9267
 Frc consts  --      0.9945                 0.8918                 1.3101
 IR Inten    --      3.5174                12.4975                12.6839

                     55                     56                     57
                      A                      A                      A
 Frequencies --   1089.1126              1105.0595              1115.6932
 Red. masses --      2.0105                 1.7178                 1.1482
 Frc consts  --      1.4050                 1.2359                 0.8421
 IR Inten    --     70.6286                14.8786                 2.5094

                     58                     59                     60
                      A                      A                      A
 Frequencies --   1130.5910              1138.7364              1157.9755
 Red. masses --      2.1136                 1.5969                 1.6001
 Frc consts  --      1.5917                 1.2201                 1.2641
 IR Inten    --     20.4358                 4.9274                69.1358

                     61                     62                     63
                      A                      A                      A
 Frequencies --   1174.3317              1183.6029              1194.5862
 Red. masses --      1.2195                 2.0782                 1.5330
 Frc consts  --      0.9908                 1.7154                 1.2889
 IR Inten    --      9.7498                11.4431                 9.1836

                     64                     65                     66
                      A                      A                      A
 Frequencies --   1200.7707              1211.5562              1223.9234
 Red. masses --      2.3432                 2.2804                 2.0960
 Frc consts  --      1.9906                 1.9722                 1.8499
 IR Inten    --     33.8153                26.0158                37.5579

                     67                     68                     69
                      A                      A                      A
 Frequencies --   1243.6948              1255.5401              1290.2044
 Red. masses --      1.5937                 2.0119                 2.2196
 Frc consts  --      1.4524                 1.8686                 2.1769
 IR Inten    --      5.4333                15.5373                40.9854

                     70                     71                     72
                      A                      A                      A
 Frequencies --   1295.1106              1303.4009              1322.7940
 Red. masses --      1.4560                 1.5066                 1.6030
 Frc consts  --      1.4389                 1.5080                 1.6526
 IR Inten    --      0.5701                 0.9779                 3.7457

                     73                     74                     75
                      A                      A                      A
 Frequencies --   1340.4861              1355.1318              1371.3364
 Red. masses --      1.5197                 1.4942                 1.4013
 Frc consts  --      1.6090                 1.6167                 1.5527
 IR Inten    --      3.1038                 2.6074                 1.5212

                     76                     77                     78
                      A                      A                      A
 Frequencies --   1386.2287              1391.0131              1402.7450
 Red. masses --      1.4199                 1.4032                 1.2863
 Frc consts  --      1.6076                 1.5996                 1.4913
 IR Inten    --      2.0567                 1.6111                 2.7082

                     79                     80                     81
                      A                      A                      A
 Frequencies --   1413.7348              1425.4050              1436.4152
 Red. masses --      2.0602                 1.5980                 1.3135
 Frc consts  --      2.4260                 1.9129                 1.5967
 IR Inten    --      3.5023                 9.8335                 3.3871

                     82                     83                     84
                      A                      A                      A
 Frequencies --   1438.9987              1441.1354              1446.8794
 Red. masses --      1.2851                 1.2457                 1.2263
 Frc consts  --      1.5679                 1.5243                 1.5126
 IR Inten    --     14.0827                11.0988                 9.0796

                     85                     86                     87
                      A                      A                      A
 Frequencies --   1478.8272              1510.2001              1511.5208
 Red. masses --      6.0287                 1.0571                 1.0622
 Frc consts  --      7.7680                 1.4205                 1.4299
 IR Inten    --     25.4936                 1.5568                 1.9488

                     88                     89                     90
                      A                      A                      A
 Frequencies --   1516.0724              1519.1896              1529.2897
 Red. masses --      1.0520                 1.0589                 1.0548
 Frc consts  --      1.4246                 1.4399                 1.4534
 IR Inten    --      3.1671                 0.6844                 5.1815

                     91                     92                     93
                      A                      A                      A
 Frequencies --   1530.0496              1536.9956              1537.4541
 Red. masses --      1.0559                 1.0680                 1.0833
 Frc consts  --      1.4563                 1.4866                 1.5087
 IR Inten    --      3.4473                 7.3496                 7.0101

                     94                     95                     96
                      A                      A                      A
 Frequencies --   1541.1366              1555.1093              1597.5834
 Red. masses --      1.0563                 1.0601                 5.8922
 Frc consts  --      1.4782                 1.5105                 8.8605
 IR Inten    --      6.4231                 1.5595                 0.5543

                     97                     98                     99
                      A                      A                      A
 Frequencies --   3008.5475              3034.4789              3045.2624
 Red. masses --      1.0847                 1.0818                 1.0422
 Frc consts  --      5.7847                 5.8691                 5.6943
 IR Inten    --     10.9255                49.6605                33.7513

                    100                    101                    102
                      A                      A                      A
 Frequencies --   3046.9944              3050.6792              3059.0711
 Red. masses --      1.0812                 1.0428                 1.0598
 Frc consts  --      5.9140                 5.7180                 5.8432
 IR Inten    --      7.4423                44.9160                33.1324

                    103                    104                    105
                      A                      A                      A
 Frequencies --   3060.0451              3063.7884              3065.8016
 Red. masses --      1.0367                 1.0613                 1.0451
 Frc consts  --      5.7198                 5.8697                 5.7875
 IR Inten    --      7.6192                36.0274                19.6462

                    106                    107                    108
                      A                      A                      A
 Frequencies --   3093.3223              3094.6662              3101.4662
 Red. masses --      1.0929                 1.0948                 1.0887
 Frc consts  --      6.1614                 6.1777                 6.1700
 IR Inten    --     24.2928               105.5931                36.4551

                    109                    110                    111
                      A                      A                      A
 Frequencies --   3106.1884              3107.9033              3128.8129
 Red. masses --      1.1064                 1.1005                 1.1000
 Frc consts  --      6.2898                 6.2629                 6.3443
 IR Inten    --     35.9306                38.3426                23.7499

                    112                    113                    114
                      A                      A                      A
 Frequencies --   3130.5882              3136.6570              3139.7181
 Red. masses --      1.1021                 1.1028                 1.0966
 Frc consts  --      6.3637                 6.3926                 6.3689
 IR Inten    --     20.4318                33.9905                16.9375

                    115                    116                    117
                      A                      A                      A
 Frequencies --   3143.2837              3145.3614              3184.8328
 Red. masses --      1.1009                 1.1031                 1.0942
 Frc consts  --      6.4088                 6.4300                 6.5389
 IR Inten    --     38.9500                21.3453                14.0860

                    118                    119                    120
                      A                      A                      A
 Frequencies --   3234.4400              3271.4888              3276.0808
 Red. masses --      1.0899                 1.0972                 1.0938
 Frc consts  --      6.7177                 6.9184                 6.9166
 IR Inten    --      1.1345                 0.9305                 0.6527

 - Thermochemistry -
 -------------------
 Temperature   298.150 Kelvin.  Pressure   1.00000 Atm.
 Atom     1 has atomic number  6 and mass  12.00000

 Molecular mass:   264.15479 amu.
 Principal axes and moments of inertia in atomic units:
                           1         2         3
     Eigenvalues --  2537.714197577.355907998.15341
           X            0.99995  -0.00985  -0.00188
           Y            0.00990   0.99958   0.02706
           Z            0.00161  -0.02708   0.99963
 This molecule is an asymmetric top.
 Rotational symmetry number  1.
 Warning -- assumption of classical behavior for rotation
           may cause significant error
 Rotational temperatures (Kelvin)      0.03413     0.01143     0.01083
 Rotational constants (GHZ):           0.71117     0.23818     0.22564
 Zero-point vibrational energy     976227.7 (Joules/Mol)
                                  233.32403 (Kcal/Mol)
 Warning -- explicit consideration of  28 degrees of freedom as
           vibrations may cause significant error
 Vibrational temperatures:     31.19    43.71    68.67    89.13   146.73
          (Kelvin)            206.16   262.94   294.69   349.40   356.94
                              369.14   385.40   403.92   421.80   431.34
                              466.31   482.00   498.77   578.57   597.89
                              650.87   659.42   675.60   702.94   744.28
                              798.39   820.91   849.48   940.29   971.02
                             1002.93  1014.19  1098.94  1147.06  1153.16
                             1160.36  1177.24  1209.93  1240.91  1267.06
                             1301.75  1323.00  1337.87  1348.72  1361.51
                             1365.74  1390.76  1410.86  1432.38  1449.72
                             1485.04  1490.40  1500.36  1545.66  1566.99
                             1589.93  1605.23  1626.67  1638.39  1666.07
                             1689.60  1702.94  1718.74  1727.64  1743.16
                             1760.95  1789.40  1806.44  1856.32  1863.38
                             1875.30  1903.21  1928.66  1949.73  1973.05
                             1994.47  2001.36  2018.24  2034.05  2050.84
                             2066.68  2070.40  2073.47  2081.74  2127.70
                             2172.84  2174.74  2181.29  2185.77  2200.31
                             2201.40  2211.39  2212.05  2217.35  2237.46
                             2298.57  4328.63  4365.94  4381.45  4383.95
                             4389.25  4401.32  4402.72  4408.11  4411.00
                             4450.60  4452.53  4462.32  4469.11  4471.58
                             4501.66  4504.22  4512.95  4517.35  4522.48
                             4525.47  4582.26  4653.64  4706.94  4713.55

 Zero-point correction=                           0.371826 (Hartree/Particle)
 Thermal correction to Energy=                    0.389384
 Thermal correction to Enthalpy=                  0.390328
 Thermal correction to Gibbs Free Energy=         0.325966
 Sum of electronic and zero-point Energies=          -1097.264286
 Sum of electronic and thermal Energies=             -1097.246727
 Sum of electronic and thermal Enthalpies=           -1097.245783
 Sum of electronic and thermal Free Energies=        -1097.310145

                     E (Thermal)             CV                S
                      KCal/Mol        Cal/Mol-Kelvin    Cal/Mol-Kelvin
 Total                  244.342             70.879            135.462
 Electronic               0.000              0.000              0.000
 Translational            0.889              2.981             42.613
 Rotational               0.889              2.981             33.397
 Vibrational            242.565             64.917             59.451
 Vibration     1          0.593              1.985              6.474
 Vibration     2          0.594              1.984              5.804
 Vibration     3          0.595              1.978              4.909
 Vibration     4          0.597              1.972              4.394
 Vibration     5          0.604              1.948              3.416
 Vibration     6          0.616              1.910              2.759
 Vibration     7          0.630              1.863              2.300
 Vibration     8          0.640              1.833              2.089
 Vibration     9          0.659              1.775              1.782
 Vibration    10          0.662              1.766              1.744
 Vibration    11          0.666              1.752              1.685
 Vibration    12          0.673              1.732              1.610
 Vibration    13          0.680              1.709              1.529
 Vibration    14          0.688              1.686              1.456
 Vibration    15          0.692              1.674              1.418
 Vibration    16          0.709              1.627              1.289
 Vibration    17          0.716              1.606              1.236
 Vibration    18          0.725              1.582              1.181
 Vibration    19          0.768              1.466              0.955
 Vibration    20          0.779              1.436              0.907
 Vibration    21          0.811              1.356              0.789
 Vibration    22          0.816              1.342              0.771
 Vibration    23          0.827              1.318              0.739
 Vibration    24          0.844              1.275              0.687
 Vibration    25          0.872              1.212              0.616
 Vibration    26          0.910              1.129              0.534
 Vibration    27          0.927              1.095              0.503
 Vibration    28          0.948              1.052              0.466

 Optimization completed.
    -- Stationary point found.
 Normal termination of Gaussian 16 at Fri Dec 11 23:29:25 2020.

 ----------------------------------------------------------------------
 # B3LYP/6-311++G(d,p) empiricaldispersion=gd3bj scf=xqc pop=npa geom=c
 heck
 ----------------------------------------------------------------------

 --------------------------------------
 CID_57859073_JID_8653_Energie_neutraal
 --------------------------------------
 Structure from the checkpoint file:  "JID_8653.chk"
 Charge =  0 Multiplicity = 1

 SCF Done:  E(RB3LYP) =  -1097.84680594     A.U. after   15 cycles
 Normal termination of Gaussian 16 at Fri Dec 11 23:42:44 2020.

 ----------------------------------------------------------------------
 # B3LYP/6-311++G(d,p) empiricaldispersion=gd3bj scf=xqc pop=npa geom=c
 heck
 ----------------------------------------------------------------------

 ------------------------------------
 CID_57859073_JID_8653_Energie_kation
 ------------------------------------
 Structure from the checkpoint file:  "JID_8653.chk"
 Charge =  1 Multiplicity = 2

 SCF Done:  E(UB3LYP) =  -1097.54461672     A.U. after   31 cycles
 Normal termination of Gaussian 16 at Sat Dec 12 00:21:43 2020.
 Gaussian 16:  ES64L-G16RevA.03 25-Dec-2016

 ----------------------------------------------------------------------
 # B3LYP/6-311++G(d,p) empiricaldispersion=gd3bj scf=xqc pop=npa geom=c
 heck
 ----------------------------------------------------------------------

 -----------------------------------
 CID_57859073_JID_8653_Energie_anion
 -----------------------------------
 Structure from the checkpoint file:  "JID_8653.chk"
 Charge = -1 Multiplicity = 2

                         Standard orientation:
 ---------------------------------------------------------------------
 Center     Atomic      Atomic             Coordinates (Angstroms)
 Number     Number       Type             X           Y           Z
 ---------------------------------------------------------------------
      1          6           0        3.964574    1.082553   -0.295509
      2          6           0        3.567261   -0.370980   -0.031899
      3          6           0        2.495908   -0.984871   -1.016537
      4          6           0        1.345888   -1.386804   -0.057592
      5          6           0        2.165390   -1.953682    1.123043
      6          6           0        2.939638   -0.638497    1.366261
      7          6           0        1.766566    0.326292    1.625458
      8          6           0        0.672136   -0.182085    0.635689
      9          8           0        0.242199    0.810228   -0.292569
     10          6           0       -1.021921    1.440564   -0.026208
     11          6           0       -0.992267    2.191426    1.310526
     12          6           0       -1.189065    2.433757   -1.182685
     13          6           0       -2.121862    0.391527   -0.084097
     14          6           0       -3.172196    0.265195    0.785382
     15         16           0       -4.226283   -1.048659    0.358714
     16          6           0       -3.233851   -1.446182   -1.011585
     17          6           0       -2.165631   -0.604202   -1.119252
     18          6           0        2.140571   -0.169947   -2.261441
     19          1           0        3.098359    1.748063   -0.345810
     20          1           0        4.502998    1.174226   -1.245029
     21          1           0        4.626544    1.450965    0.497803
     22          1           0        4.482367   -0.973505   -0.100134
     23          1           0        2.904269   -1.936989   -1.382173
     24          1           0        0.617996   -2.061883   -0.517341
     25          1           0        1.552909   -2.256414    1.980424
     26          1           0        2.804039   -2.794961    0.832503
     27          1           0        3.681069   -0.655314    2.171010
     28          1           0        2.003818    1.375153    1.438790
     29          1           0        1.427342    0.245564    2.664840
     30          1           0       -0.200693   -0.553140    1.185110
     31          1           0       -0.152312    2.891993    1.313947
     32          1           0       -1.915221    2.761957    1.456655
     33          1           0       -0.876115    1.507159    2.156085
     34          1           0       -2.139469    2.968521   -1.094326
     35          1           0       -0.367504    3.157417   -1.170969
     36          1           0       -1.172922    1.906956   -2.140719
     37          1           0       -3.395522    0.866080    1.655256
     38          1           0       -3.498726   -2.278347   -1.649532
     39          1           0       -1.409702   -0.681159   -1.891610
     40          1           0        3.013710   -0.077821   -2.918835
     41          1           0        1.353518   -0.679237   -2.831099
     42          1           0        1.775343    0.827048   -2.021041
 ---------------------------------------------------------------------

 SCF Done:  E(UB3LYP) =  -1097.83307355     A.U. after   33 cycles
 SCF Done:  E(UB3LYP) =  -1097.83307354     a.u. after    1 cycles

 The electronic state is 2-A.
 Alpha  occ. eigenvalues --  -88.78837 -19.02337 -10.14738 -10.11726 -10.11052
 Alpha  occ. eigenvalues --  -10.10788 -10.09186 -10.08590 -10.07146 -10.07112
 Alpha  occ. eigenvalues --  -10.07096 -10.07011 -10.06964 -10.06896 -10.06553
 Alpha  occ. eigenvalues --  -10.06085 -10.05893 -10.05090  -7.87442  -5.83725
 Alpha  occ. eigenvalues --   -5.83360  -5.83053  -0.94009  -0.79351  -0.77507
 Alpha  occ. eigenvalues --   -0.70748  -0.66947  -0.64761  -0.64336  -0.63231
 Alpha  occ. eigenvalues --   -0.61075  -0.59799  -0.58310  -0.54013  -0.51281
 Alpha  occ. eigenvalues --   -0.48796  -0.47842  -0.46211  -0.44931  -0.42782
 Alpha  occ. eigenvalues --   -0.41621  -0.40403  -0.38594  -0.36841  -0.35064
 Alpha  occ. eigenvalues --   -0.34753  -0.33488  -0.32711  -0.32125  -0.31622
 Alpha  occ. eigenvalues --   -0.31242  -0.30923  -0.29925  -0.28759  -0.28466
 Alpha  occ. eigenvalues --   -0.28335  -0.27953  -0.27382  -0.27089  -0.26771
 Alpha  occ. eigenvalues --   -0.25565  -0.24993  -0.24558  -0.24540  -0.23193
 Alpha  occ. eigenvalues --   -0.21952  -0.20753  -0.20318  -0.18156  -0.16570
 Alpha  occ. eigenvalues --   -0.15585  -0.15027   0.04124
 Alpha virt. eigenvalues --    0.06020   0.06195   0.06630   0.06979   0.07583
 Alpha virt. eigenvalues --    0.08250   0.08562   0.08871   0.09428   0.09710
 Alpha virt. eigenvalues --    0.10290   0.10715   0.10787   0.11467   0.11589

  Beta  occ. eigenvalues --  -88.78834 -19.02332 -10.14734 -10.11723 -10.11036
  Beta  occ. eigenvalues --  -10.10768 -10.09186 -10.08581 -10.07138 -10.07097
  Beta  occ. eigenvalues --  -10.07088 -10.07002 -10.06959 -10.06868 -10.06540
  Beta  occ. eigenvalues --  -10.06069 -10.05878 -10.05076  -7.87440  -5.83723
  Beta  occ. eigenvalues --   -5.83357  -5.83050  -0.94001  -0.79334  -0.77484
  Beta  occ. eigenvalues --   -0.70733  -0.66925  -0.64740  -0.64310  -0.63205
  Beta  occ. eigenvalues --   -0.61041  -0.59766  -0.58282  -0.53974  -0.51251
  Beta  occ. eigenvalues --   -0.48768  -0.47799  -0.46178  -0.44898  -0.42758
  Beta  occ. eigenvalues --   -0.41581  -0.40375  -0.38562  -0.36822  -0.35033
  Beta  occ. eigenvalues --   -0.34724  -0.33463  -0.32692  -0.32104  -0.31596
  Beta  occ. eigenvalues --   -0.31216  -0.30901  -0.29904  -0.28732  -0.28444
  Beta  occ. eigenvalues --   -0.28311  -0.27929  -0.27362  -0.27066  -0.26747
  Beta  occ. eigenvalues --   -0.25544  -0.24975  -0.24530  -0.24519  -0.23166
  Beta  occ. eigenvalues --   -0.21935  -0.20733  -0.20296  -0.18133  -0.16553
  Beta  occ. eigenvalues --   -0.15560  -0.15000
  Beta virt. eigenvalues --    0.06070   0.06673   0.06891   0.06912   0.07359
  Beta virt. eigenvalues --    0.08030   0.08520   0.08983   0.09206   0.09626
  Beta virt. eigenvalues --    0.09980   0.10431   0.10940   0.11104   0.11714

 Mulliken charges and spin densities:
               1          2
     1  C    0.284749  -0.959413
     2  C    0.039935  -0.067384
     3  C   -0.167820   0.172591
     4  C   -0.113737   0.498697
     5  C   -0.848765  -0.077764
     6  C    0.287385   0.074896
     7  C   -0.148328  -0.323020
     8  C    0.016248  -0.800298
     9  O    0.220750   0.012417
    10  C    0.528489  -0.433871
    11  C    0.292372  -0.969504
    12  C    0.167256  -0.693804
    13  C    1.261157  -1.680584
    14  C   -1.703080   2.085015
    15  S    0.467506  -0.799508
    16  C    0.250880  -0.767947
    17  C   -0.474103   0.883391
    18  C    0.001237  -0.818911
    19  H    0.057054   0.112579
    20  H    0.052367   0.070913
    21  H   -0.118663   0.260298
    22  H   -0.085791   0.283282
    23  H   -0.120071   0.320574
    24  H   -0.050644   0.310539
    25  H   -0.236147   0.366687
    26  H   -0.153871   0.323784
    27  H   -0.284216   0.513306
    28  H    0.300874  -0.174190
    29  H   -0.281494   0.467422
    30  H    0.635774  -0.378613
    31  H   -0.039354   0.203740
    32  H   -0.121420   0.259780
    33  H   -0.117936   0.296708
    34  H    0.031186   0.125162
    35  H    0.084007   0.056661
    36  H   -0.021312   0.181228
    37  H   -0.661959   0.954157
    38  H   -0.474657   0.734185
    39  H    0.197820   0.006310
    40  H   -0.061779   0.204702
    41  H   -0.134891   0.246548
    42  H    0.242996  -0.080762
 Sum of Mulliken charges =  -1.00000   1.00000

 Dipole moment (field-independent basis, Debye):
    X=             -1.5762    Y=              1.1066    Z=             -1.5712  Tot=              2.4855
 Quadrupole moment (field-independent basis, Debye-Ang):
   XX=           -197.2675   YY=           -165.5000   ZZ=           -168.2327
   XY=              5.6770   XZ=              0.3355   YZ=             -6.7586

 Summary of Natural Population Analysis:

                                       Natural Population
                Natural  -----------------------------------------------
    Atom  No    Charge         Core      Valence    Rydberg      Total
 -----------------------------------------------------------------------
      C    1   -0.29048      0.99964     2.28469    0.00614     3.29048
      C    2   -0.10579      0.99958     2.09482    0.01138     3.10579
      C    3   -0.10499      0.99958     2.09330    0.01211     3.10499
      C    4   -0.11127      0.99956     2.09964    0.01206     3.11127
      C    5   -0.18775      0.99962     2.17931    0.00883     3.18775
      C    6   -0.10644      0.99959     2.09456    0.01229     3.10644
      C    7   -0.20386      0.99960     2.19483    0.00942     3.20386
      C    8    0.06124      0.99949     1.92262    0.01665     2.93876
      O    9   -0.31847      0.99986     3.30548    0.01313     4.31847
      C   10    0.13457      0.99948     1.84922    0.01673     2.86543
      C   11   -0.30017      0.99962     2.29259    0.00796     3.30017
      C   12   -0.28018      0.99961     2.27497    0.00561     3.28018
      C   13   -0.05524      0.99944     2.04178    0.01402     3.05524
      C   14   -0.18898      0.99944     2.17806    0.01148     3.18898
      S   15    0.19710      4.99946     2.78264    0.02080     7.80290
      C   16   -0.18998      0.99953     2.17891    0.01153     3.18998
      C   17   -0.12076      0.99947     2.11043    0.01086     3.12076
      C   18   -0.28692      0.99964     2.28086    0.00642     3.28692
      H   19    0.10032      0.00000     0.39845    0.00123     0.39968
      H   20    0.09917      0.00000     0.40004    0.00079     0.40083
      H   21    0.09885      0.00000     0.40034    0.00081     0.40115
      H   22    0.09691      0.00000     0.40175    0.00134     0.40309
      H   23    0.09617      0.00000     0.40211    0.00171     0.40383
      H   24    0.10400      0.00000     0.39431    0.00170     0.39600
      H   25    0.09945      0.00000     0.39950    0.00104     0.40055
      H   26    0.10044      0.00000     0.39835    0.00121     0.39956
      H   27    0.10054      0.00000     0.39830    0.00115     0.39946
      H   28    0.10492      0.00000     0.39364    0.00144     0.39508
      H   29    0.10124      0.00000     0.39755    0.00122     0.39876
      H   30    0.09244      0.00000     0.40505    0.00251     0.40756
      H   31    0.10557      0.00000     0.39346    0.00097     0.39443
      H   32    0.10341      0.00000     0.39544    0.00115     0.39659
      H   33    0.10586      0.00000     0.39267    0.00147     0.39414
      H   34    0.10087      0.00000     0.39834    0.00079     0.39913
      H   35    0.10220      0.00000     0.39689    0.00091     0.39780
      H   36    0.10424      0.00000     0.39474    0.00102     0.39576
      H   37    0.11543      0.00000     0.38292    0.00165     0.38457
      H   38    0.11131      0.00000     0.38752    0.00117     0.38869
      H   39    0.11458      0.00000     0.38345    0.00198     0.38542
      H   40    0.09363      0.00000     0.40559    0.00077     0.40637
      H   41    0.09838      0.00000     0.40056    0.00106     0.40162
      H   42    0.10845      0.00000     0.39029    0.00126     0.39155
 =======================================================================
   * Total *   -0.00000     21.99222    49.76999    0.23779    72.00000

 Normal termination of Gaussian 16 at Sat Dec 12 01:02:00 2020.
