 Gaussian 16, Revision A.03,

 -----------------------------------------------------------
 # opt freq B3LYP/6-31G(d) empiricaldispersion=gd3bj scf=xqc
 -----------------------------------------------------------

 ------------------------------
 CID_70559603_JID_6037_neutraal
 ------------------------------
 Symbolic Z-matrix:
 Charge =  0 Multiplicity = 1

 SCF Done:  E(RB3LYP) =  -744.352901152     A.U. after   16 cycles
 SCF Done:  E(RB3LYP) =  -744.357552680     A.U. after   13 cycles
 SCF Done:  E(RB3LYP) =  -744.356778831     A.U. after   15 cycles
 SCF Done:  E(RB3LYP) =  -744.359618332     A.U. after   13 cycles
 SCF Done:  E(RB3LYP) =  -744.360309390     A.U. after   12 cycles
 SCF Done:  E(RB3LYP) =  -744.360477641     A.U. after   13 cycles
 SCF Done:  E(RB3LYP) =  -744.360587834     A.U. after   11 cycles
 SCF Done:  E(RB3LYP) =  -744.360715206     A.U. after   11 cycles
 SCF Done:  E(RB3LYP) =  -744.360738797     A.U. after   10 cycles
 SCF Done:  E(RB3LYP) =  -744.360742323     A.U. after   10 cycles
 SCF Done:  E(RB3LYP) =  -744.360743335     A.U. after    8 cycles
 SCF Done:  E(RB3LYP) =  -744.360743715     A.U. after    8 cycles
 SCF Done:  E(RB3LYP) =  -744.360743874     A.U. after    8 cycles
 SCF Done:  E(RB3LYP) =  -744.360743983     A.U. after    7 cycles
 SCF Done:  E(RB3LYP) =  -744.360744031     A.U. after    7 cycles
 Optimization completed.
    -- Stationary point found.
 Normal termination of Gaussian 16 at Thu Dec 10 21:10:33 2020.

 --------------------------------------------------------------------
 #N Geom=AllCheck Guess=TCheck SCRF=Check GenChk RB3LYP/6-31G(d) Freq
 --------------------------------------------------------------------

 Structure from the checkpoint file:  "JID_6037.chk"
 ------------------------------
 CID_70559603_JID_6037_neutraal
 ------------------------------
 Charge =  0 Multiplicity = 1

 SCF Done:  E(RB3LYP) =  -744.360744031     A.U. after    1 cycles

  Exact polarizability: 199.065 -11.707 144.405  -6.469 -22.184  88.024
 Approx polarizability: 313.983 -10.572 239.853 -13.284 -57.754 143.979

                      1                      2                      3
                      A                      A                      A
 Frequencies --     39.5209                43.4231                49.5780
 Red. masses --      9.0559                 4.9133                 7.4708
 Frc consts  --      0.0083                 0.0055                 0.0108
 IR Inten    --      1.2398                 0.6814                 1.4692

                      4                      5                      6
                      A                      A                      A
 Frequencies --     76.2391                85.2194               111.3130
 Red. masses --      5.0769                 4.7302                 3.8366
 Frc consts  --      0.0174                 0.0202                 0.0280
 IR Inten    --      0.4390                 0.6248                 1.3646

                      7                      8                      9
                      A                      A                      A
 Frequencies --    124.5618               157.1104               203.1573
 Red. masses --      2.6893                 3.5175                 3.7523
 Frc consts  --      0.0246                 0.0512                 0.0912
 IR Inten    --      0.6752                 1.1582                 0.8355

                     10                     11                     12
                      A                      A                      A
 Frequencies --    228.2131               280.0760               295.0289
 Red. masses --      6.4127                 3.5362                 5.6022
 Frc consts  --      0.1968                 0.1634                 0.2873
 IR Inten    --      0.2850                 1.3100                 0.9143

                     13                     14                     15
                      A                      A                      A
 Frequencies --    336.4108               390.1583               399.1624
 Red. masses --      3.3420                 7.3709                 1.9436
 Frc consts  --      0.2228                 0.6611                 0.1825
 IR Inten    --      5.0263                 8.8014                20.2892

                     16                     17                     18
                      A                      A                      A
 Frequencies --    475.4616               480.7927               521.2075
 Red. masses --      3.9701                 2.6226                 4.0822
 Frc consts  --      0.5288                 0.3572                 0.6534
 IR Inten    --      0.1916                 7.9217                13.1018

                     19                     20                     21
                      A                      A                      A
 Frequencies --    537.6010               551.2236               588.8331
 Red. masses --      1.5582                 3.4203                 1.1995
 Frc consts  --      0.2653                 0.6123                 0.2450
 IR Inten    --    102.7178                17.3652                91.7861

                     22                     23                     24
                      A                      A                      A
 Frequencies --    592.9934               610.1752               646.2457
 Red. masses --      4.8232                 3.4674                 4.6570
 Frc consts  --      0.9993                 0.7606                 1.1459
 IR Inten    --     30.8809                17.1912                17.3643

                     25                     26                     27
                      A                      A                      A
 Frequencies --    676.1237               716.3427               756.0595
 Red. masses --      4.4009                 3.3858                 2.8388
 Frc consts  --      1.1853                 1.0237                 0.9561
 IR Inten    --      8.0598                18.7874                 2.7815

                     28                     29                     30
                      A                      A                      A
 Frequencies --    776.2208               787.7308               813.8654
 Red. masses --      2.0867                 2.6321                 3.3620
 Frc consts  --      0.7408                 0.9623                 1.3121
 IR Inten    --     43.2585                37.9489                10.0896

                     31                     32                     33
                      A                      A                      A
 Frequencies --    859.0135               882.9244               899.1606
 Red. masses --      4.2345                 1.4732                 2.2045
 Frc consts  --      1.8410                 0.6766                 1.0501
 IR Inten    --      5.7197                 2.8319                 5.2685

                     34                     35                     36
                      A                      A                      A
 Frequencies --    929.3657               933.0639               958.3818
 Red. masses --      3.6260                 3.4709                 1.4920
 Frc consts  --      1.8452                 1.7804                 0.8074
 IR Inten    --     13.4738                10.1889                 4.8167

                     37                     38                     39
                      A                      A                      A
 Frequencies --    977.7336               987.9714              1024.4616
 Red. masses --      1.3735                 1.2773                 1.0884
 Frc consts  --      0.7736                 0.7346                 0.6730
 IR Inten    --     30.4499                 0.1958                31.7405

                     40                     41                     42
                      A                      A                      A
 Frequencies --   1040.6515              1068.9755              1081.4837
 Red. masses --      1.1282                 1.7436                 1.8269
 Frc consts  --      0.7198                 1.1739                 1.2589
 IR Inten    --     26.4936                18.4560                13.4762

                     43                     44                     45
                      A                      A                      A
 Frequencies --   1131.0226              1194.3007              1199.6978
 Red. masses --      2.0279                 1.3086                 1.4556
 Frc consts  --      1.5284                 1.0997                 1.2344
 IR Inten    --     13.4633               116.3411               160.7855

                     46                     47                     48
                      A                      A                      A
 Frequencies --   1236.3353              1265.6797              1302.0997
 Red. masses --      1.7198                 2.3142                 1.6019
 Frc consts  --      1.5489                 2.1843                 1.6002
 IR Inten    --      6.6299                23.6773                15.8093

                     49                     50                     51
                      A                      A                      A
 Frequencies --   1320.5613              1324.6860              1348.0111
 Red. masses --      1.8125                 1.3174                 2.4780
 Frc consts  --      1.8622                 1.3620                 2.6530
 IR Inten    --      9.5151                 1.5626                 6.0121

                     52                     53                     54
                      A                      A                      A
 Frequencies --   1355.8645              1367.7859              1397.9335
 Red. masses --      2.5203                 2.4911                 2.8466
 Frc consts  --      2.7299                 2.7459                 3.2775
 IR Inten    --    194.3806                33.4582               149.1521

                     55                     56                     57
                      A                      A                      A
 Frequencies --   1453.4918              1471.6513              1513.8698
 Red. masses --      1.6971                 1.2698                 2.6188
 Frc consts  --      2.1124                 1.6203                 3.5361
 IR Inten    --     30.5645                25.3495                62.5816

                     58                     59                     60
                      A                      A                      A
 Frequencies --   1537.5152              1629.0976              1660.7184
 Red. masses --      2.6299                 5.8224                 5.7258
 Frc consts  --      3.6629                 9.1042                 9.3042
 IR Inten    --     47.5551                 4.1018                35.1643

                     61                     62                     63
                      A                      A                      A
 Frequencies --   1700.7249              1706.0680              1779.5449
 Red. masses --      5.9804                 4.4900                 8.0281
 Frc consts  --     10.1917                 7.6999                14.9789
 IR Inten    --     33.2082                40.6679               374.1320

                     64                     65                     66
                      A                      A                      A
 Frequencies --   1818.8049              3176.7852              3191.9611
 Red. masses --      9.0185                 1.0590                 1.0862
 Frc consts  --     17.5774                 6.2968                 6.5204
 IR Inten    --    465.7927                 4.2784                 1.8823

                     67                     68                     69
                      A                      A                      A
 Frequencies --   3200.5651              3206.8273              3208.5743
 Red. masses --      1.0891                 1.0932                 1.0924
 Frc consts  --      6.5732                 6.6240                 6.6263
 IR Inten    --      5.9155                 1.5381                 2.8865

                     70                     71                     72
                      A                      A                      A
 Frequencies --   3210.5735              3219.2754              3223.0041
 Red. masses --      1.0914                 1.0947                 1.0905
 Frc consts  --      6.6280                 6.6844                 6.6739
 IR Inten    --     14.3823                 7.5870                11.9709

                     73                     74                     75
                      A                      A                      A
 Frequencies --   3260.0963              3577.2278              3706.5831
 Red. masses --      1.1158                 1.0752                 1.0643
 Frc consts  --      6.9869                 8.1067                 8.6151
 IR Inten    --      6.2763                36.9869                79.1654

 - Thermochemistry -
 -------------------
 Temperature   298.150 Kelvin.  Pressure   1.00000 Atm.
 Atom     1 has atomic number  6 and mass  12.00000

 Molecular mass:   217.07389 amu.
 Principal axes and moments of inertia in atomic units:
                           1         2         3
     Eigenvalues --  2727.011964403.588706148.55822
           X            0.99966  -0.02608   0.00247
           Y            0.02607   0.99965   0.00438
           Z           -0.00259  -0.00432   0.99999
 This molecule is an asymmetric top.
 Rotational symmetry number  1.
 Warning -- assumption of classical behavior for rotation
           may cause significant error
 Rotational temperatures (Kelvin)      0.03176     0.01967     0.01409
 Rotational constants (GHZ):           0.66180     0.40983     0.29352
 Zero-point vibrational energy     549625.3 (Joules/Mol)
                                  131.36360 (Kcal/Mol)
 Warning -- explicit consideration of  23 degrees of freedom as
           vibrations may cause significant error
 Vibrational temperatures:     56.86    62.48    71.33   109.69   122.61
          (Kelvin)            160.15   179.22   226.05   292.30   328.35
                              402.97   424.48   484.02   561.35   574.31
                              684.08   691.75   749.90   773.49   793.09
                              847.20   853.19   877.91   929.80   972.79
                             1030.66  1087.80  1116.81  1133.37  1170.97
                             1235.93  1270.33  1293.69  1337.15  1342.47
                             1378.90  1406.74  1421.47  1473.97  1497.27
                             1538.02  1556.01  1627.29  1718.33  1726.10
                             1778.81  1821.03  1873.43  1899.99  1905.93
                             1939.49  1950.79  1967.94  2011.31  2091.25
                             2117.38  2178.12  2212.14  2343.91  2389.40
                             2446.96  2454.65  2560.37  2616.85  4570.69
                             4592.52  4604.90  4613.91  4616.42  4619.30
                             4631.82  4637.18  4690.55  5146.83  5332.95

 Zero-point correction=                           0.209341 (Hartree/Particle)
 Thermal correction to Energy=                    0.224199
 Thermal correction to Enthalpy=                  0.225143
 Thermal correction to Gibbs Free Energy=         0.165824
 Sum of electronic and zero-point Energies=           -744.151403
 Sum of electronic and thermal Energies=              -744.136545
 Sum of electronic and thermal Enthalpies=            -744.135601
 Sum of electronic and thermal Free Energies=         -744.194920

                     E (Thermal)             CV                S
                      KCal/Mol        Cal/Mol-Kelvin    Cal/Mol-Kelvin
 Total                  140.687             55.164            124.848
 Electronic               0.000              0.000              0.000
 Translational            0.889              2.981             42.028
 Rotational               0.889              2.981             32.668
 Vibrational            138.910             49.203             50.151
 Vibration     1          0.594              1.981              5.283
 Vibration     2          0.595              1.980              5.096
 Vibration     3          0.595              1.978              4.834
 Vibration     4          0.599              1.965              3.985
 Vibration     5          0.601              1.959              3.767
 Vibration     6          0.607              1.940              3.246
 Vibration     7          0.610              1.928              3.028
 Vibration     8          0.621              1.895              2.584
 Vibration     9          0.639              1.835              2.104
 Vibration    10          0.651              1.798              1.893
 Vibration    11          0.680              1.710              1.533
 Vibration    12          0.689              1.683              1.445
 Vibration    13          0.717              1.603              1.229
 Vibration    14          0.758              1.491              1.000
 Vibration    15          0.765              1.472              0.966
 Vibration    16          0.832              1.304              0.722
 Vibration    17          0.837              1.293              0.708
 Vibration    18          0.876              1.203              0.607
 Vibration    19          0.893              1.167              0.570
 Vibration    20          0.907              1.137              0.542
 Vibration    21          0.946              1.056              0.469
 Vibration    22          0.951              1.047              0.462
 Vibration    23          0.969              1.010              0.432

                           ! Non-Optimized Parameters !
 Normal termination of Gaussian 16 at Thu Dec 10 21:19:25 2020.

 ----------------------------------------------------------------------
 # B3LYP/6-311++G(d,p) empiricaldispersion=gd3bj scf=xqc pop=npa geom=c
 heck
 ----------------------------------------------------------------------

 --------------------------------------
 CID_70559603_JID_6037_Energie_neutraal
 --------------------------------------
 Structure from the checkpoint file:  "JID_6037.chk"
 Charge =  0 Multiplicity = 1

 SCF Done:  E(RB3LYP) =  -744.582453728     A.U. after   16 cycles
 Normal termination of Gaussian 16 at Thu Dec 10 21:22:57 2020.

 ----------------------------------------------------------------------
 # B3LYP/6-311++G(d,p) empiricaldispersion=gd3bj scf=xqc pop=npa geom=c
 heck
 ----------------------------------------------------------------------

 ------------------------------------
 CID_70559603_JID_6037_Energie_kation
 ------------------------------------
 Structure from the checkpoint file:  "JID_6037.chk"
 Charge =  1 Multiplicity = 2

 SCF Done:  E(UB3LYP) =  -744.269785385     A.U. after   27 cycles
 Normal termination of Gaussian 16 at Thu Dec 10 21:31:27 2020.
 Gaussian 16:  ES64L-G16RevA.03 25-Dec-2016

 ----------------------------------------------------------------------
 # B3LYP/6-311++G(d,p) empiricaldispersion=gd3bj scf=xqc pop=npa geom=c
 heck
 ----------------------------------------------------------------------

 -----------------------------------
 CID_70559603_JID_6037_Energie_anion
 -----------------------------------
 Structure from the checkpoint file:  "JID_6037.chk"
 Charge = -1 Multiplicity = 2

                         Standard orientation:
 ---------------------------------------------------------------------
 Center     Atomic      Atomic             Coordinates (Angstroms)
 Number     Number       Type             X           Y           Z
 ---------------------------------------------------------------------
      1          6           0        0.669739    1.422715    2.173357
      2          6           0       -0.047512    2.008910    1.212952
      3          6           0        0.440785    2.321387   -0.160757
      4          8           0        0.137397    3.375048   -0.703337
      5          7           0        1.291529    1.431186   -0.799062
      6          6           0        1.626777    0.091860   -0.481037
      7          6           0        2.979863   -0.255916   -0.412766
      8          6           0        3.362594   -1.559735   -0.111949
      9          6           0        2.388079   -2.528896    0.139583
     10          6           0        1.042545   -2.190443    0.061646
     11          6           0        0.629648   -0.886958   -0.263800
     12          6           0       -0.784405   -0.548496   -0.416775
     13          6           0       -1.814900   -1.205524    0.144077
     14          6           0       -3.223798   -0.837786   -0.062119
     15          8           0       -4.163461   -1.420655    0.444050
     16          8           0       -3.393224    0.237833   -0.878800
     17          1           0        1.663585    1.024317    1.996409
     18          1           0        0.280029    1.328559    3.182802
     19          1           0       -1.026205    2.431121    1.422003
     20          1           0        1.711486    1.832465   -1.630036
     21          1           0        3.726461    0.515183   -0.579691
     22          1           0        4.416773   -1.815740   -0.064139
     23          1           0        2.677472   -3.547670    0.378204
     24          1           0        0.287657   -2.955314    0.212509
     25          1           0       -1.009293    0.310084   -1.042405
     26          1           0       -1.675007   -2.046190    0.815463
     27          1           0       -4.355843    0.380368   -0.927455
 ---------------------------------------------------------------------

 SCF Done:  E(UB3LYP) =  -744.614162505     A.U. after   24 cycles

 The electronic state is 2-A.
 Alpha  occ. eigenvalues --  -19.02426 -18.97918 -18.95180 -14.22571 -10.16459
 Alpha  occ. eigenvalues --  -10.13946 -10.09088 -10.06904 -10.06328 -10.05479
 Alpha  occ. eigenvalues --  -10.05447 -10.04965 -10.04775 -10.04398 -10.02112
 Alpha  occ. eigenvalues --  -10.01262  -0.95927  -0.93018  -0.86582  -0.81835
 Alpha  occ. eigenvalues --   -0.72854  -0.67159  -0.66165  -0.62418  -0.60837
 Alpha  occ. eigenvalues --   -0.53578  -0.51608  -0.49878  -0.47806  -0.44637
 Alpha  occ. eigenvalues --   -0.43166  -0.41335  -0.37086  -0.36645  -0.35562
 Alpha  occ. eigenvalues --   -0.34768  -0.33953  -0.31945  -0.31521  -0.30477
 Alpha  occ. eigenvalues --   -0.30365  -0.30068  -0.29165  -0.27141  -0.25868
 Alpha  occ. eigenvalues --   -0.25362  -0.24743  -0.23050  -0.21860  -0.18695
 Alpha  occ. eigenvalues --   -0.18335  -0.17457  -0.15900  -0.14832  -0.13283
 Alpha  occ. eigenvalues --   -0.12411  -0.10262   0.02546
 Alpha virt. eigenvalues --    0.06763   0.07851   0.09191   0.09328   0.09704
 Alpha virt. eigenvalues --    0.10142   0.10769   0.12030   0.12635   0.12905
 Alpha virt. eigenvalues --    0.13211   0.13699   0.14309   0.15595   0.15952

  Beta  occ. eigenvalues --  -19.02397 -18.97913 -18.94900 -14.22535 -10.16446
  Beta  occ. eigenvalues --  -10.13813 -10.08996 -10.06907 -10.06230 -10.05521
  Beta  occ. eigenvalues --  -10.05497 -10.04904 -10.04534 -10.04233 -10.01814
  Beta  occ. eigenvalues --  -10.01041  -0.95729  -0.92993  -0.86190  -0.81717
  Beta  occ. eigenvalues --   -0.72617  -0.67015  -0.65612  -0.62238  -0.60356
  Beta  occ. eigenvalues --   -0.53246  -0.51126  -0.49776  -0.47616  -0.44473
  Beta  occ. eigenvalues --   -0.42806  -0.41133  -0.36975  -0.36514  -0.35462
  Beta  occ. eigenvalues --   -0.34657  -0.33723  -0.31822  -0.31279  -0.30420
  Beta  occ. eigenvalues --   -0.29931  -0.29421  -0.29062  -0.26866  -0.25721
  Beta  occ. eigenvalues --   -0.25145  -0.24289  -0.22880  -0.21627  -0.17870
  Beta  occ. eigenvalues --   -0.17486  -0.17123  -0.15070  -0.14463  -0.12985
  Beta  occ. eigenvalues --   -0.11840  -0.08745
  Beta virt. eigenvalues --    0.06988   0.07808   0.08299   0.09205   0.09346
  Beta virt. eigenvalues --    0.09809   0.10194   0.10816   0.12033   0.12640
  Beta virt. eigenvalues --    0.12993   0.13678   0.13992   0.15049   0.15616

 Mulliken charges and spin densities:
               1          2
     1  C   -0.573350   0.090292
     2  C    0.343718  -0.006382
     3  C   -0.239348   0.010948
     4  O   -0.332241   0.003712
     5  N   -0.267808   0.018233
     6  C    0.055149   0.085405
     7  C   -0.207454  -0.034145
     8  C   -0.328225   0.184363
     9  C   -0.503210   0.011140
    10  C   -0.464763   0.129857
    11  C    0.823436  -0.001197
    12  C   -0.334919   0.196905
    13  C   -0.094621   0.143923
    14  C   -0.206079   0.117399
    15  O   -0.400019   0.090392
    16  O   -0.221642   0.008051
    17  H    0.163218  -0.006155
    18  H    0.116778   0.000012
    19  H    0.208727   0.001154
    20  H    0.297546   0.000888
    21  H    0.137147   0.000500
    22  H    0.117948  -0.014958
    23  H    0.121266   0.004414
    24  H    0.110258  -0.011175
    25  H    0.254877  -0.012157
    26  H    0.164623  -0.011041
    27  H    0.258987  -0.000377
 Sum of Mulliken charges =  -1.00000   1.00000

 Dipole moment (field-independent basis, Debye):
    X=              4.8363    Y=              0.4709    Z=              0.1487  Tot=              4.8614
 Quadrupole moment (field-independent basis, Debye-Ang):
   XX=           -130.8029   YY=           -126.7200   ZZ=           -101.8515
   XY=             -9.1534   XZ=              3.2065   YZ=              2.5714

 Summary of Natural Population Analysis:

                                       Natural Population
                Natural  -----------------------------------------------
    Atom  No    Charge         Core      Valence    Rydberg      Total
 -----------------------------------------------------------------------
      C    1   -0.14192      0.99959     2.13583    0.00650     3.14192
      C    2   -0.13399      0.99953     2.12450    0.00996     3.13399
      C    3    0.33268      0.99964     1.64624    0.02144     2.66732
      O    4   -0.32226      0.99988     3.31588    0.00650     4.32226
      N    5   -0.31418      0.99964     2.80327    0.01126     3.81418
      C    6    0.09083      0.99943     1.89655    0.01318     2.90917
      C    7   -0.12245      0.99952     2.11482    0.00811     3.12245
      C    8   -0.06293      0.99958     2.05405    0.00931     3.06293
      C    9   -0.12709      0.99957     2.11845    0.00907     3.12709
      C   10   -0.05398      0.99954     2.04657    0.00788     3.05398
      C   11   -0.02854      0.99947     2.01790    0.01117     3.02854
      C   12   -0.02264      0.99953     2.01386    0.00926     3.02264
      C   13   -0.11363      0.99947     2.10542    0.00873     3.11363
      C   14    0.39833      0.99969     1.57711    0.02487     2.60167
      O   15   -0.30593      0.99987     3.29839    0.00768     4.30593
      O   16   -0.35564      0.99988     3.34956    0.00620     4.35564
      H   17    0.09636      0.00000     0.40263    0.00101     0.40364
      H   18    0.08929      0.00000     0.40958    0.00113     0.41071
      H   19    0.10399      0.00000     0.39494    0.00108     0.39601
      H   20    0.19381      0.00000     0.30470    0.00149     0.30619
      H   21    0.09457      0.00000     0.40442    0.00101     0.40543
      H   22    0.08963      0.00000     0.40934    0.00103     0.41037
      H   23    0.09307      0.00000     0.40594    0.00099     0.40693
      H   24    0.09739      0.00000     0.40120    0.00142     0.40261
      H   25    0.10141      0.00000     0.39703    0.00156     0.39859
      H   26    0.09300      0.00000     0.40591    0.00108     0.40700
      H   27    0.23082      0.00000     0.26602    0.00316     0.26918
 =======================================================================
   * Total *   -0.00000     15.99383    40.82010    0.18607    57.00000

 Normal termination of Gaussian 16 at Thu Dec 10 21:39:47 2020.
