 Gaussian 16, Revision A.03,

 -----------------------------------------------------------
 # opt freq B3LYP/6-31G(d) empiricaldispersion=gd3bj scf=xqc
 -----------------------------------------------------------

 ------------------------------
 CID_13215957_JID_5826_neutraal
 ------------------------------
 Symbolic Z-matrix:
 Charge =  0 Multiplicity = 1

 SCF Done:  E(RB3LYP) =  -1016.78326101     A.U. after   14 cycles
 SCF Done:  E(RB3LYP) =  -1016.77896288     A.U. after   13 cycles
 SCF Done:  E(RB3LYP) =  -1016.78746470     A.U. after   12 cycles
 SCF Done:  E(RB3LYP) =  -1016.78794295     A.U. after   12 cycles
 SCF Done:  E(RB3LYP) =  -1016.78807915     A.U. after   12 cycles
 SCF Done:  E(RB3LYP) =  -1016.78822134     A.U. after   12 cycles
 SCF Done:  E(RB3LYP) =  -1016.78842271     A.U. after   11 cycles
 SCF Done:  E(RB3LYP) =  -1016.78843637     A.U. after   10 cycles
 SCF Done:  E(RB3LYP) =  -1016.78845515     A.U. after   11 cycles
 SCF Done:  E(RB3LYP) =  -1016.78845965     A.U. after    9 cycles
 SCF Done:  E(RB3LYP) =  -1016.78846167     A.U. after    9 cycles
 SCF Done:  E(RB3LYP) =  -1016.78846357     A.U. after    8 cycles
 SCF Done:  E(RB3LYP) =  -1016.78846360     A.U. after    8 cycles
 SCF Done:  E(RB3LYP) =  -1016.78846358     A.U. after    6 cycles
 Optimization completed.
    -- Stationary point found.
 Normal termination of Gaussian 16 at Thu Dec 10 17:15:16 2020.

 --------------------------------------------------------------------
 #N Geom=AllCheck Guess=TCheck SCRF=Check GenChk RB3LYP/6-31G(d) Freq
 --------------------------------------------------------------------

 Structure from the checkpoint file:  "JID_5826.chk"
 ------------------------------
 CID_13215957_JID_5826_neutraal
 ------------------------------
 Charge =  0 Multiplicity = 1

 SCF Done:  E(RB3LYP) =  -1016.78846358     A.U. after    1 cycles

  Exact polarizability: 178.436 -16.967 140.050 -13.023 -11.504 117.837
 Approx polarizability: 251.973 -26.945 216.700 -23.573 -24.037 192.256

                      1                      2                      3
                      A                      A                      A
 Frequencies --     30.2947                59.9450                72.9831
 Red. masses --      4.3269                 3.5703                 4.6099
 Frc consts  --      0.0023                 0.0076                 0.0145
 IR Inten    --      0.3774                 0.0551                 0.1180

                      4                      5                      6
                      A                      A                      A
 Frequencies --    100.5169               116.3375               151.9426
 Red. masses --      3.9862                 1.6127                 2.0033
 Frc consts  --      0.0237                 0.0129                 0.0272
 IR Inten    --      0.3067                 1.5814                 1.0061

                      7                      8                      9
                      A                      A                      A
 Frequencies --    162.6940               170.8823               208.5147
 Red. masses --      3.3421                 1.9216                 1.2522
 Frc consts  --      0.0521                 0.0331                 0.0321
 IR Inten    --      3.1801                 1.0376                 0.6559

                     10                     11                     12
                      A                      A                      A
 Frequencies --    224.9250               243.8271               266.8294
 Red. masses --      3.0875                 1.7398                 1.7976
 Frc consts  --      0.0920                 0.0609                 0.0754
 IR Inten    --      0.2601                 2.1744                 0.2006

                     13                     14                     15
                      A                      A                      A
 Frequencies --    270.1611               292.2796               298.2211
 Red. masses --      3.6748                 1.6844                 1.4563
 Frc consts  --      0.1580                 0.0848                 0.0763
 IR Inten    --      5.6173                 2.4762                 0.6551

                     16                     17                     18
                      A                      A                      A
 Frequencies --    314.9287               323.1900               338.2822
 Red. masses --      2.7765                 4.2063                 2.8194
 Frc consts  --      0.1622                 0.2589                 0.1901
 IR Inten    --      2.3469                 7.7427                 1.0346

                     19                     20                     21
                      A                      A                      A
 Frequencies --    377.7245               415.4595               421.8317
 Red. masses --      4.6123                 4.4155                 3.0052
 Frc consts  --      0.3877                 0.4490                 0.3151
 IR Inten    --      0.3346                 2.5594                 0.1238

                     22                     23                     24
                      A                      A                      A
 Frequencies --    459.6859               514.2627               529.4237
 Red. masses --      5.6406                 3.7205                 4.0181
 Frc consts  --      0.7023                 0.5797                 0.6636
 IR Inten    --      2.9074                 7.7782                 6.1358

                     25                     26                     27
                      A                      A                      A
 Frequencies --    621.8158               632.6998               680.3961
 Red. masses --      3.6328                 6.4251                 4.3339
 Frc consts  --      0.8276                 1.5154                 1.1821
 IR Inten    --      3.1333                 0.0706                 1.7248

                     28                     29                     30
                      A                      A                      A
 Frequencies --    708.0605               722.9897               768.4341
 Red. masses --      2.3545                 4.8378                 1.6686
 Frc consts  --      0.6955                 1.4899                 0.5805
 IR Inten    --     20.3989                10.3862                27.6010

                     31                     32                     33
                      A                      A                      A
 Frequencies --    861.0477               884.9910               908.8694
 Red. masses --      1.2469                 2.9862                 2.9433
 Frc consts  --      0.5447                 1.3780                 1.4325
 IR Inten    --      0.3868                 6.1683                 1.8953

                     34                     35                     36
                      A                      A                      A
 Frequencies --    934.2609               966.8916               975.4284
 Red. masses --      1.3610                 1.4483                 1.3650
 Frc consts  --      0.6999                 0.7978                 0.7652
 IR Inten    --      2.3129                 1.1039                 0.5315

                     37                     38                     39
                      A                      A                      A
 Frequencies --    978.4405               998.4766              1022.2355
 Red. masses --      2.9418                 1.2563                 6.2672
 Frc consts  --      1.6593                 0.7379                 3.8586
 IR Inten    --     38.2308                 0.2514                 2.7584

                     40                     41                     42
                      A                      A                      A
 Frequencies --   1031.6910              1048.7566              1054.7413
 Red. masses --      3.3790                 1.4314                 2.8869
 Frc consts  --      2.1190                 0.9276                 1.8922
 IR Inten    --     16.8094                 5.8468                 3.3625

                     43                     44                     45
                      A                      A                      A
 Frequencies --   1104.9866              1113.5116              1119.2378
 Red. masses --      1.6003                 5.5915                 2.9008
 Frc consts  --      1.1513                 4.0848                 2.1410
 IR Inten    --      5.8090               176.8314                19.0006

                     46                     47                     48
                      A                      A                      A
 Frequencies --   1157.3491              1180.6022              1187.6497
 Red. masses --      3.0055                 2.1075                 1.3086
 Frc consts  --      2.3719                 1.7307                 1.0875
 IR Inten    --     83.4046                57.2580                 2.2331

                     49                     50                     51
                      A                      A                      A
 Frequencies --   1192.7110              1193.5800              1207.4050
 Red. masses --      1.3038                 1.0980                 3.4936
 Frc consts  --      1.0927                 0.9216                 3.0007
 IR Inten    --     10.0405                 0.0555                38.0425

                     52                     53                     54
                      A                      A                      A
 Frequencies --   1211.8219              1227.9799              1233.3451
 Red. masses --      1.1903                 1.4813                 1.7520
 Frc consts  --      1.0299                 1.3160                 1.5702
 IR Inten    --      5.6962                10.3361                27.8258

                     55                     56                     57
                      A                      A                      A
 Frequencies --   1245.2199              1330.1913              1357.2323
 Red. masses --      2.3870                 2.4879                 2.0847
 Frc consts  --      2.1807                 2.5937                 2.2626
 IR Inten    --     14.9607                 0.1527                 1.5419

                     58                     59                     60
                      A                      A                      A
 Frequencies --   1392.4967              1426.3704              1443.6682
 Red. masses --      1.2626                 1.2182                 1.1759
 Frc consts  --      1.4425                 1.4603                 1.4440
 IR Inten    --     37.8857                 3.3236                10.1480

                     61                     62                     63
                      A                      A                      A
 Frequencies --   1456.5506              1486.2539              1493.5652
 Red. masses --      1.1804                 2.1248                 1.1295
 Frc consts  --      1.4755                 2.7654                 1.4846
 IR Inten    --      7.1603                 6.8053                 0.3181

                     64                     65                     66
                      A                      A                      A
 Frequencies --   1503.5017              1509.7615              1513.8152
 Red. masses --      1.1605                 1.0524                 1.0501
 Frc consts  --      1.5456                 1.4133                 1.4179
 IR Inten    --      0.0668                 3.3545                 3.2504

                     67                     68                     69
                      A                      A                      A
 Frequencies --   1517.8275              1523.9619              1527.6249
 Red. masses --      1.0498                 1.2276                 1.5334
 Frc consts  --      1.4250                 1.6797                 2.1083
 IR Inten    --      3.4485                 6.6693                12.1924

                     70                     71                     72
                      A                      A                      A
 Frequencies --   1530.8934              1534.8971              1538.7711
 Red. masses --      1.0703                 1.0762                 1.0496
 Frc consts  --      1.4779                 1.4938                 1.4643
 IR Inten    --      2.1123                 4.3145                 6.8948

                     73                     74                     75
                      A                      A                      A
 Frequencies --   1547.4670              1634.0561              1645.6176
 Red. masses --      1.0548                 5.4411                 5.4316
 Frc consts  --      1.4882                 8.5599                 8.6664
 IR Inten    --     13.2391                 0.9619                 2.7258

                     76                     77                     78
                      A                      A                      A
 Frequencies --   2996.3768              3020.4453              3053.5589
 Red. masses --      1.0825                 1.0412                 1.0364
 Frc consts  --      5.7265                 5.5965                 5.6936
 IR Inten    --     41.2125                74.1109                19.9917

                     79                     80                     81
                      A                      A                      A
 Frequencies --   3060.0629              3064.0962              3087.6254
 Red. masses --      1.0384                 1.0292                 1.0974
 Frc consts  --      5.7289                 5.6932                 6.1639
 IR Inten    --     35.9928                22.3862                35.7112

                     82                     83                     84
                      A                      A                      A
 Frequencies --   3122.2605              3126.3545              3135.8065
 Red. masses --      1.1004                 1.0998                 1.1054
 Frc consts  --      6.3202                 6.3337                 6.4040
 IR Inten    --      4.9150                31.5742                28.5812

                     85                     86                     87
                      A                      A                      A
 Frequencies --   3140.5501              3145.5655              3149.9864
 Red. masses --      1.1036                 1.1061                 1.1018
 Frc consts  --      6.4131                 6.4481                 6.4415
 IR Inten    --     18.4689                34.2976                17.1592

                     88                     89                     90
                      A                      A                      A
 Frequencies --   3156.9253              3183.6616              3193.1755
 Red. masses --      1.1003                 1.0852                 1.0893
 Frc consts  --      6.4610                 6.4807                 6.5442
 IR Inten    --     18.6008                 0.3580                14.6804

                     91                     92                     93
                      A                      A                      A
 Frequencies --   3206.3557              3217.6051              3226.3760
 Red. masses --      1.0940                 1.0944                 1.0937
 Frc consts  --      6.6264                 6.6759                 6.7077
 IR Inten    --     29.0930                11.5859                 3.6248

 - Thermochemistry -
 -------------------
 Temperature   298.150 Kelvin.  Pressure   1.00000 Atm.
 Atom     1 has atomic number  6 and mass  12.00000

 Molecular mass:   226.10275 amu.
 Principal axes and moments of inertia in atomic units:
                           1         2         3
     Eigenvalues --  2279.374504161.876404827.63965
           X            0.99986  -0.01291  -0.01073
           Y            0.01221   0.99793  -0.06306
           Z            0.01153   0.06292   0.99795
 This molecule is an asymmetric top.
 Rotational symmetry number  1.
 Warning -- assumption of classical behavior for rotation
           may cause significant error
 Rotational temperatures (Kelvin)      0.03800     0.02081     0.01794
 Rotational constants (GHZ):           0.79177     0.43364     0.37384
 Zero-point vibrational energy     740142.0 (Joules/Mol)
                                  176.89819 (Kcal/Mol)
 Warning -- explicit consideration of  24 degrees of freedom as
           vibrations may cause significant error
 Vibrational temperatures:     43.59    86.25   105.01   144.62   167.38
          (Kelvin)            218.61   234.08   245.86   300.01   323.62
                              350.81   383.91   388.70   420.53   429.07
                              453.11   465.00   486.71   543.46   597.75
                              606.92   661.39   739.91   761.72   894.65
                              910.31   978.94  1018.74  1040.22  1105.61
                             1238.86  1273.30  1307.66  1344.19  1391.14
                             1403.42  1407.76  1436.59  1470.77  1484.37
                             1508.93  1517.54  1589.83  1602.09  1610.33
                             1665.17  1698.62  1708.76  1716.05  1717.30
                             1737.19  1743.54  1766.79  1774.51  1791.59
                             1913.85  1952.75  2003.49  2052.23  2077.12
                             2095.65  2138.39  2148.91  2163.20  2172.21
                             2178.04  2183.82  2192.64  2197.91  2202.61
                             2208.37  2213.95  2226.46  2351.04  2367.68
                             4311.12  4345.75  4393.39  4402.75  4408.55
                             4442.40  4492.24  4498.13  4511.73  4518.55
                             4525.77  4532.13  4542.11  4580.58  4594.27
                             4613.23  4629.42  4642.04

 Zero-point correction=                           0.281905 (Hartree/Particle)
 Thermal correction to Energy=                    0.298180
 Thermal correction to Enthalpy=                  0.299124
 Thermal correction to Gibbs Free Energy=         0.238551
 Sum of electronic and zero-point Energies=          -1016.506558
 Sum of electronic and thermal Energies=             -1016.490284
 Sum of electronic and thermal Enthalpies=           -1016.489340
 Sum of electronic and thermal Free Energies=        -1016.549912

                     E (Thermal)             CV                S
                      KCal/Mol        Cal/Mol-Kelvin    Cal/Mol-Kelvin
 Total                  187.111             61.160            127.486
 Electronic               0.000              0.000              0.000
 Translational            0.889              2.981             42.150
 Rotational               0.889              2.981             32.193
 Vibrational            185.333             55.198             53.143
 Vibration     1          0.594              1.984              5.810
 Vibration     2          0.597              1.973              4.459
 Vibration     3          0.599              1.967              4.071
 Vibration     4          0.604              1.949              3.444
 Vibration     5          0.608              1.936              3.160
 Vibration     6          0.619              1.901              2.648
 Vibration     7          0.623              1.888              2.518
 Vibration     8          0.626              1.878              2.426
 Vibration     9          0.642              1.828              2.057
 Vibration    10          0.650              1.803              1.919
 Vibration    11          0.659              1.773              1.775
 Vibration    12          0.672              1.734              1.617
 Vibration    13          0.674              1.728              1.595
 Vibration    14          0.688              1.688              1.461
 Vibration    15          0.691              1.677              1.427
 Vibration    16          0.702              1.645              1.336
 Vibration    17          0.708              1.629              1.294
 Vibration    18          0.719              1.599              1.220
 Vibration    19          0.748              1.518              1.048
 Vibration    20          0.779              1.437              0.908
 Vibration    21          0.784              1.423              0.886
 Vibration    22          0.818              1.339              0.767
 Vibration    23          0.869              1.218              0.623
 Vibration    24          0.884              1.185              0.588

                           ! Non-Optimized Parameters !
 Normal termination of Gaussian 16 at Thu Dec 10 17:27:39 2020.

 ----------------------------------------------------------------------
 # B3LYP/6-311++G(d,p) empiricaldispersion=gd3bj scf=xqc pop=npa geom=c
 heck
 ----------------------------------------------------------------------

 --------------------------------------
 CID_13215957_JID_5826_Energie_neutraal
 --------------------------------------
 Structure from the checkpoint file:  "JID_5826.chk"
 Charge =  0 Multiplicity = 1

 SCF Done:  E(RB3LYP) =  -1016.98771972     A.U. after   15 cycles
 Normal termination of Gaussian 16 at Thu Dec 10 17:34:12 2020.

 ----------------------------------------------------------------------
 # B3LYP/6-311++G(d,p) empiricaldispersion=gd3bj scf=xqc pop=npa geom=c
 heck
 ----------------------------------------------------------------------

 ------------------------------------
 CID_13215957_JID_5826_Energie_kation
 ------------------------------------
 Structure from the checkpoint file:  "JID_5826.chk"
 Charge =  1 Multiplicity = 2

 SCF Done:  E(UB3LYP) =  -1016.69388131     A.U. after   26 cycles
 Normal termination of Gaussian 16 at Thu Dec 10 17:50:47 2020.
 Gaussian 16:  ES64L-G16RevA.03 25-Dec-2016

 ----------------------------------------------------------------------
 # B3LYP/6-311++G(d,p) empiricaldispersion=gd3bj scf=xqc pop=npa geom=c
 heck
 ----------------------------------------------------------------------

 -----------------------------------
 CID_13215957_JID_5826_Energie_anion
 -----------------------------------
 Structure from the checkpoint file:  "JID_5826.chk"
 Charge = -1 Multiplicity = 2

                         Standard orientation:
 ---------------------------------------------------------------------
 Center     Atomic      Atomic             Coordinates (Angstroms)
 Number     Number       Type             X           Y           Z
 ---------------------------------------------------------------------
      1          6           0        2.726810   -1.708827   -0.467169
      2          6           0        1.487405   -1.029418    0.148648
      3          6           0        1.113373   -1.714690    1.463374
      4          6           0        1.871505    0.465162    0.404043
      5          8           0        1.636423    1.214551   -0.752418
      6          6           0        2.311218    2.464564   -0.761667
      7          8           0        1.346396    1.058217    1.573984
      8          6           0       -0.000683    1.515861    1.559351
      9         16           0        0.202944   -1.341294   -1.177783
     10          6           0       -1.313344   -0.587681   -0.612966
     11          6           0       -2.153293   -1.247315    0.294259
     12          6           0       -3.350380   -0.655642    0.699249
     13          6           0       -3.728549    0.584464    0.181452
     14          6           0       -2.908826    1.230474   -0.746417
     15          6           0       -1.704544    0.649448   -1.141076
     16          1           0        3.547063   -1.712383    0.259850
     17          1           0        3.057413   -1.174940   -1.363447
     18          1           0        2.510673   -2.746481   -0.738360
     19          1           0        1.894463   -1.544787    2.213524
     20          1           0        0.177276   -1.329422    1.872152
     21          1           0        1.006218   -2.791749    1.304500
     22          1           0        2.949763    0.463086    0.627663
     23          1           0        1.983165    3.110304    0.061346
     24          1           0        3.399501    2.324197   -0.685644
     25          1           0        2.074814    2.938887   -1.716644
     26          1           0       -0.216058    2.110656    0.667873
     27          1           0       -0.721127    0.693776    1.609293
     28          1           0       -0.108491    2.141400    2.449290
     29          1           0       -1.864340   -2.221226    0.675246
     30          1           0       -3.992091   -1.167915    1.410782
     31          1           0       -4.663556    1.041537    0.493061
     32          1           0       -3.204871    2.191896   -1.157231
     33          1           0       -1.043628    1.153304   -1.837730
 ---------------------------------------------------------------------

 SCF Done:  E(UB3LYP) =  -1016.97497327     A.U. after   33 cycles
 SCF Done:  E(UB3LYP) =  -1016.97497327     a.u. after    1 cycles

 The electronic state is 2-A.
 Alpha  occ. eigenvalues --  -88.72581 -19.03225 -19.02363 -10.16967 -10.11171
 Alpha  occ. eigenvalues --  -10.11064 -10.09896 -10.08729 -10.07268 -10.07022
 Alpha  occ. eigenvalues --  -10.06930 -10.06874 -10.06806 -10.06661 -10.06205
 Alpha  occ. eigenvalues --   -7.81200  -5.77609  -5.77232  -5.76548  -0.97307
 Alpha  occ. eigenvalues --   -0.90921  -0.75689  -0.72601  -0.66304  -0.64373
 Alpha  occ. eigenvalues --   -0.62713  -0.59731  -0.58867  -0.57940  -0.51828
 Alpha  occ. eigenvalues --   -0.50236  -0.48739  -0.44831  -0.41471  -0.40747
 Alpha  occ. eigenvalues --   -0.40530  -0.38303  -0.35929  -0.35077  -0.34442
 Alpha  occ. eigenvalues --   -0.33388  -0.33059  -0.32208  -0.31981  -0.31036
 Alpha  occ. eigenvalues --   -0.30216  -0.28657  -0.28345  -0.27701  -0.25960
 Alpha  occ. eigenvalues --   -0.25621  -0.24959  -0.24294  -0.22814  -0.21503
 Alpha  occ. eigenvalues --   -0.20134  -0.18025  -0.16969  -0.15313  -0.14664
 Alpha  occ. eigenvalues --   -0.11773   0.04506
 Alpha virt. eigenvalues --    0.06492   0.06824   0.07198   0.08276   0.08600
 Alpha virt. eigenvalues --    0.08766   0.08891   0.09932   0.10410   0.10733
 Alpha virt. eigenvalues --    0.11041   0.11446   0.12715   0.13060   0.13154

  Beta  occ. eigenvalues --  -88.72575 -19.03221 -19.02359 -10.16961 -10.11107
  Beta  occ. eigenvalues --  -10.11023 -10.09878 -10.08626 -10.07284 -10.06969
  Beta  occ. eigenvalues --  -10.06919 -10.06851 -10.06790 -10.06522 -10.06195
  Beta  occ. eigenvalues --   -7.81192  -5.77592  -5.77232  -5.76541  -0.97299
  Beta  occ. eigenvalues --   -0.90911  -0.75542  -0.72522  -0.66113  -0.64262
  Beta  occ. eigenvalues --   -0.62672  -0.59696  -0.58812  -0.57817  -0.51769
  Beta  occ. eigenvalues --   -0.50180  -0.48538  -0.44769  -0.41409  -0.40696
  Beta  occ. eigenvalues --   -0.40487  -0.38243  -0.35841  -0.34997  -0.34380
  Beta  occ. eigenvalues --   -0.33335  -0.33022  -0.32184  -0.31946  -0.30999
  Beta  occ. eigenvalues --   -0.30178  -0.28616  -0.28249  -0.27497  -0.25899
  Beta  occ. eigenvalues --   -0.25526  -0.24909  -0.24235  -0.22665  -0.21375
  Beta  occ. eigenvalues --   -0.20068  -0.18002  -0.16917  -0.15024  -0.14156
  Beta  occ. eigenvalues --   -0.11718
  Beta virt. eigenvalues --    0.06680   0.07231   0.07741   0.07855   0.08692
  Beta virt. eigenvalues --    0.08796   0.09075   0.09232   0.10137   0.10583
  Beta virt. eigenvalues --    0.11043   0.11463   0.11650   0.12858   0.13216

 Mulliken charges and spin densities:
               1          2
     1  C    0.488112  -0.987352
     2  C    0.454379   0.534474
     3  C   -0.258661  -0.393947
     4  C   -1.672731   0.411547
     5  O    0.005499   0.006984
     6  C    1.144131  -1.317298
     7  O   -0.052612   0.000605
     8  C    0.052602  -0.339491
     9  S    0.193255  -0.464318
    10  C    0.980491  -0.105440
    11  C   -0.533865   0.243168
    12  C   -0.354148  -0.046065
    13  C    0.675278  -0.830596
    14  C   -0.317707  -0.087605
    15  C   -0.627589   0.346969
    16  H   -0.200995   0.336748
    17  H    0.106996   0.069806
    18  H    0.133165   0.015408
    19  H   -0.022832   0.201274
    20  H    0.000220   0.121931
    21  H    0.092654   0.076745
    22  H   -0.138969   0.317887
    23  H   -0.215921   0.375252
    24  H   -0.368960   0.501878
    25  H   -0.255164   0.397483
    26  H   -0.030395   0.154874
    27  H    0.360214  -0.190309
    28  H   -0.195583   0.372113
    29  H    0.128988   0.032721
    30  H   -0.229961   0.392096
    31  H   -0.213514   0.356530
    32  H   -0.329927   0.496919
    33  H    0.203550  -0.000993
 Sum of Mulliken charges =  -1.00000   1.00000

 Dipole moment (field-independent basis, Debye):
    X=             -0.5386    Y=             -3.3767    Z=             -0.0712  Tot=              3.4201
 Quadrupole moment (field-independent basis, Debye-Ang):
   XX=           -167.9367   YY=           -140.2301   ZZ=           -131.5039
   XY=             -3.3826   XZ=             -0.9854   YZ=              0.7590

 Summary of Natural Population Analysis:

                                       Natural Population
                Natural  -----------------------------------------------
    Atom  No    Charge         Core      Valence    Rydberg      Total
 -----------------------------------------------------------------------
      C    1   -0.29281      0.99962     2.28504    0.00815     3.29281
      C    2   -0.09961      0.99952     2.08494    0.01514     3.09961
      C    3   -0.29312      0.99960     2.28520    0.00832     3.29312
      C    4    0.22346      0.99946     1.75435    0.02273     2.77654
      O    5   -0.29815      0.99987     3.28914    0.00914     4.29815
      C    6   -0.09983      0.99960     2.09111    0.00912     3.09983
      O    7   -0.30800      0.99988     3.29879    0.00932     4.30800
      C    8   -0.10431      0.99958     2.09553    0.00920     3.10431
      S    9    0.11075      4.99950     2.87291    0.01684     7.88925
      C   10   -0.08667      0.99939     2.07350    0.01378     3.08667
      C   11   -0.09550      0.99949     2.08522    0.01079     3.09550
      C   12   -0.11097      0.99956     2.10111    0.01031     3.11097
      C   13   -0.07858      0.99956     2.06892    0.01010     3.07858
      C   14   -0.10287      0.99956     2.09303    0.01028     3.10287
      C   15   -0.09526      0.99949     2.08415    0.01162     3.09526
      H   16    0.10277      0.00000     0.39610    0.00112     0.39723
      H   17    0.10769      0.00000     0.39135    0.00096     0.39231
      H   18    0.10304      0.00000     0.39609    0.00087     0.39696
      H   19    0.10363      0.00000     0.39526    0.00111     0.39637
      H   20    0.10723      0.00000     0.39165    0.00112     0.39277
      H   21    0.09998      0.00000     0.39915    0.00087     0.40002
      H   22    0.07920      0.00000     0.41832    0.00248     0.42080
      H   23    0.08543      0.00000     0.41314    0.00144     0.41457
      H   24    0.08158      0.00000     0.41664    0.00178     0.41842
      H   25    0.09083      0.00000     0.40802    0.00114     0.40917
      H   26    0.08946      0.00000     0.40894    0.00159     0.41054
      H   27    0.08591      0.00000     0.41243    0.00166     0.41409
      H   28    0.08649      0.00000     0.41250    0.00100     0.41351
      H   29    0.10221      0.00000     0.39644    0.00135     0.39779
      H   30    0.09908      0.00000     0.40005    0.00087     0.40092
      H   31    0.09775      0.00000     0.40125    0.00100     0.40225
      H   32    0.10004      0.00000     0.39900    0.00096     0.39996
      H   33    0.10914      0.00000     0.38958    0.00128     0.39086
 =======================================================================
   * Total *   -0.00000     18.99368    41.80888    0.19743    61.00000

 Normal termination of Gaussian 16 at Thu Dec 10 18:12:12 2020.
