 Gaussian 16, Revision A.03,

 -----------------------------------------------------------
 # opt freq B3LYP/6-31G(d) empiricaldispersion=gd3bj scf=xqc
 -----------------------------------------------------------

 -----------------------------
 CID_1426572_JID_2232_neutraal
 -----------------------------
 Symbolic Z-matrix:
 Charge =  0 Multiplicity = 1

 SCF Done:  E(RB3LYP) =  -520.095872883     A.U. after   13 cycles
 SCF Done:  E(RB3LYP) =  -520.099050837     A.U. after   12 cycles
 SCF Done:  E(RB3LYP) =  -520.100222109     A.U. after   12 cycles
 SCF Done:  E(RB3LYP) =  -520.100866427     A.U. after   11 cycles
 SCF Done:  E(RB3LYP) =  -520.101255954     A.U. after   11 cycles
 SCF Done:  E(RB3LYP) =  -520.101466981     A.U. after   12 cycles
 SCF Done:  E(RB3LYP) =  -520.101513202     A.U. after   10 cycles
 SCF Done:  E(RB3LYP) =  -520.101519490     A.U. after    9 cycles
 SCF Done:  E(RB3LYP) =  -520.101520555     A.U. after    7 cycles
 SCF Done:  E(RB3LYP) =  -520.101520748     A.U. after    7 cycles
 Optimization completed.
    -- Stationary point found.
 Normal termination of Gaussian 16 at Wed Dec  9 16:54:42 2020.

 --------------------------------------------------------------------
 #N Geom=AllCheck Guess=TCheck SCRF=Check GenChk RB3LYP/6-31G(d) Freq
 --------------------------------------------------------------------

 Structure from the checkpoint file:  "JID_2232.chk"
 -----------------------------
 CID_1426572_JID_2232_neutraal
 -----------------------------
 Charge =  0 Multiplicity = 1

 SCF Done:  E(RB3LYP) =  -520.101520748     A.U. after    1 cycles

  Exact polarizability: 142.178   2.704 118.312   3.818  -4.290  72.408
 Approx polarizability: 195.828   3.710 189.867   7.821 -12.244 107.698

                      1                      2                      3
                      A                      A                      A
 Frequencies --     38.3926                73.3433               127.8828
 Red. masses --      3.7002                 2.7940                 2.3914
 Frc consts  --      0.0032                 0.0089                 0.0230
 IR Inten    --      0.8972                 1.2299                 1.7201

                      4                      5                      6
                      A                      A                      A
 Frequencies --    135.0868               174.2015               225.5618
 Red. masses --      2.5279                 2.8972                 2.5893
 Frc consts  --      0.0272                 0.0518                 0.0776
 IR Inten    --      1.1970                 0.0277                 0.1681

                      7                      8                      9
                      A                      A                      A
 Frequencies --    269.1533               275.6513               297.2718
 Red. masses --      1.4059                 1.1867                 3.0009
 Frc consts  --      0.0600                 0.0531                 0.1562
 IR Inten    --      1.5397                 4.8077                 1.0128

                     10                     11                     12
                      A                      A                      A
 Frequencies --    315.7642               333.1316               345.8850
 Red. masses --      2.7258                 1.7117                 2.3039
 Frc consts  --      0.1601                 0.1119                 0.1624
 IR Inten    --      0.9532                39.9500                12.0101

                     13                     14                     15
                      A                      A                      A
 Frequencies --    388.4262               421.0938               434.5131
 Red. masses --      2.1255                 2.9640                 3.8293
 Frc consts  --      0.1889                 0.3097                 0.4260
 IR Inten    --     82.8477                 5.1506                11.9778

                     16                     17                     18
                      A                      A                      A
 Frequencies --    532.2670               570.1756               601.3127
 Red. masses --      3.7673                 3.1193                 3.7043
 Frc consts  --      0.6288                 0.5975                 0.7891
 IR Inten    --      3.8272                15.3034                10.7717

                     19                     20                     21
                      A                      A                      A
 Frequencies --    637.7083               724.4256               733.7865
 Red. masses --      6.3735                 1.9060                 4.5521
 Frc consts  --      1.5271                 0.5893                 1.4441
 IR Inten    --      0.3163                23.3269                 1.1680

                     22                     23                     24
                      A                      A                      A
 Frequencies --    783.3225               812.2463               878.5940
 Red. masses --      1.8177                 1.2616                 1.2464
 Frc consts  --      0.6571                 0.4904                 0.5669
 IR Inten    --     14.6465                80.5053                 0.7414

                     25                     26                     27
                      A                      A                      A
 Frequencies --    895.6709               951.4634               959.2080
 Red. masses --      2.3203                 1.3929                 1.9686
 Frc consts  --      1.0967                 0.7429                 1.0672
 IR Inten    --      9.7048                 6.3557                13.8962

                     28                     29                     30
                      A                      A                      A
 Frequencies --    990.7208               993.9602              1002.7228
 Red. masses --      1.3355                 1.5928                 2.0851
 Frc consts  --      0.7723                 0.9271                 1.2352
 IR Inten    --      2.6516                19.3365                 3.9085

                     31                     32                     33
                      A                      A                      A
 Frequencies --   1013.7130              1022.7880              1061.4255
 Red. masses --      1.2723                 5.6314                 2.4332
 Frc consts  --      0.7703                 3.4709                 1.6151
 IR Inten    --      1.6978                 0.1201                 6.5032

                     34                     35                     36
                      A                      A                      A
 Frequencies --   1079.3300              1106.8503              1126.9226
 Red. masses --      1.7597                 1.6142                 2.2935
 Frc consts  --      1.2078                 1.1652                 1.7161
 IR Inten    --     27.0345                 4.9848                20.6997

                     37                     38                     39
                      A                      A                      A
 Frequencies --   1153.9817              1176.8252              1179.6383
 Red. masses --      2.2614                 1.9003                 1.8763
 Frc consts  --      1.7743                 1.5506                 1.5384
 IR Inten    --     19.1130                71.4576                 5.1972

                     40                     41                     42
                      A                      A                      A
 Frequencies --   1193.2643              1210.2640              1216.9314
 Red. masses --      1.0989                 1.8703                 1.1460
 Frc consts  --      0.9219                 1.6141                 0.9999
 IR Inten    --      0.0140                 6.3849                 9.8982

                     43                     44                     45
                      A                      A                      A
 Frequencies --   1270.5484              1317.3177              1347.3780
 Red. masses --      2.4620                 1.5064                 2.5907
 Frc consts  --      2.3416                 1.5401                 2.7711
 IR Inten    --      9.3833                22.7875                 0.2858

                     46                     47                     48
                      A                      A                      A
 Frequencies --   1367.8584              1385.8046              1399.1506
 Red. masses --      1.9387                 1.5989                 1.3137
 Frc consts  --      2.1372                 1.8092                 1.5153
 IR Inten    --      0.7092                74.4605                 2.9615

                     49                     50                     51
                      A                      A                      A
 Frequencies --   1436.1565              1483.1435              1496.0282
 Red. masses --      1.3458                 1.1897                 2.0420
 Frc consts  --      1.6354                 1.5419                 2.6927
 IR Inten    --     13.7909                 3.1861                13.7230

                     52                     53                     54
                      A                      A                      A
 Frequencies --   1505.8852              1518.9378              1521.8296
 Red. masses --      1.2501                 1.0532                 1.0603
 Frc consts  --      1.6702                 1.4317                 1.4469
 IR Inten    --     11.6573                 9.3590                 1.5653

                     55                     56                     57
                      A                      A                      A
 Frequencies --   1528.4681              1536.7712              1544.3966
 Red. masses --      1.0839                 1.1862                 1.4690
 Frc consts  --      1.4919                 1.6505                 2.0644
 IR Inten    --      2.6270                 4.3601                24.2955

                     58                     59                     60
                      A                      A                      A
 Frequencies --   1550.0626              1641.2393              1666.0748
 Red. masses --      1.2035                 5.6386                 5.4731
 Frc consts  --      1.7037                 8.9488                 8.9510
 IR Inten    --      5.2825                 1.0785                 4.5877

                     61                     62                     63
                      A                      A                      A
 Frequencies --   2959.2983              2964.3871              3051.5732
 Red. masses --      1.0623                 1.0675                 1.0910
 Frc consts  --      5.4814                 5.5271                 5.9857
 IR Inten    --     42.7084               141.9829                33.7094

                     64                     65                     66
                      A                      A                      A
 Frequencies --   3056.1983              3077.3517              3123.8802
 Red. masses --      1.0372                 1.0742                 1.1028
 Frc consts  --      5.7082                 5.9936                 6.3407
 IR Inten    --     19.8106                35.4739                32.8041

                     67                     68                     69
                      A                      A                      A
 Frequencies --   3130.9189              3147.1189              3177.9369
 Red. masses --      1.1001                 1.1028                 1.0850
 Frc consts  --      6.3535                 6.4353                 6.4559
 IR Inten    --     25.7354                15.2187                 0.2637

                     70                     71                     72
                      A                      A                      A
 Frequencies --   3187.6666              3202.3539              3215.1446
 Red. masses --      1.0895                 1.0942                 1.0922
 Frc consts  --      6.5224                 6.6111                 6.6520
 IR Inten    --     24.1488                27.4586                 7.5252

                     73                     74                     75
                      A                      A                      A
 Frequencies --   3216.3385              3503.8436              3720.9467
 Red. masses --      1.0942                 1.0736                 1.0658
 Frc consts  --      6.6689                 7.7660                 8.6945
 IR Inten    --     19.5490                 0.1726                 8.5057

 - Thermochemistry -
 -------------------
 Temperature   298.150 Kelvin.  Pressure   1.00000 Atm.
 Atom     1 has atomic number  6 and mass  12.00000

 Molecular mass:   165.11536 amu.
 Principal axes and moments of inertia in atomic units:
                           1         2         3
     Eigenvalues --  1240.478472777.955443578.20391
           X            0.99981  -0.01932  -0.00037
           Y            0.01932   0.99965   0.01815
           Z            0.00002  -0.01815   0.99984
 This molecule is an asymmetric top.
 Rotational symmetry number  1.
 Warning -- assumption of classical behavior for rotation
           may cause significant error
 Rotational temperatures (Kelvin)      0.06982     0.03118     0.02421
 Rotational constants (GHZ):           1.45488     0.64967     0.50437
 Zero-point vibrational energy     620364.7 (Joules/Mol)
                                  148.27073 (Kcal/Mol)
 Warning -- explicit consideration of  18 degrees of freedom as
           vibrations may cause significant error
 Vibrational temperatures:     55.24   105.52   183.99   194.36   250.64
          (Kelvin)            324.53   387.25   396.60   427.71   454.31
                              479.30   497.65   558.86   605.86   625.17
                              765.81   820.36   865.15   917.52  1042.29
                             1055.76  1127.03  1168.64  1264.10  1288.67
                             1368.94  1380.09  1425.43  1430.09  1442.69
                             1458.51  1471.56  1527.15  1552.92  1592.51
                             1621.39  1660.32  1693.19  1697.24  1716.84
                             1741.30  1750.89  1828.04  1895.33  1938.58
                             1968.04  1993.86  2013.07  2066.31  2133.91
                             2152.45  2166.63  2185.41  2189.57  2199.12
                             2211.07  2222.04  2230.19  2361.38  2397.11
                             4257.77  4265.09  4390.53  4397.19  4427.62
                             4494.57  4504.69  4528.00  4572.34  4586.34
                             4607.47  4625.88  4627.59  5041.25  5353.61

 Zero-point correction=                           0.236284 (Hartree/Particle)
 Thermal correction to Energy=                    0.248347
 Thermal correction to Enthalpy=                  0.249292
 Thermal correction to Gibbs Free Energy=         0.198263
 Sum of electronic and zero-point Energies=           -519.865236
 Sum of electronic and thermal Energies=              -519.853173
 Sum of electronic and thermal Enthalpies=            -519.852229
 Sum of electronic and thermal Free Energies=         -519.903257

                     E (Thermal)             CV                S
                      KCal/Mol        Cal/Mol-Kelvin    Cal/Mol-Kelvin
 Total                  155.840             46.575            107.398
 Electronic               0.000              0.000              0.000
 Translational            0.889              2.981             41.213
 Rotational               0.889              2.981             30.890
 Vibrational            154.063             40.613             35.296
 Vibration     1          0.594              1.982              5.340
 Vibration     2          0.599              1.967              4.062
 Vibration     3          0.611              1.925              2.978
 Vibration     4          0.613              1.918              2.872
 Vibration     5          0.627              1.874              2.390
 Vibration     6          0.650              1.802              1.914
 Vibration     7          0.674              1.730              1.602
 Vibration     8          0.677              1.718              1.561
 Vibration     9          0.691              1.679              1.432
 Vibration    10          0.703              1.644              1.332
 Vibration    11          0.715              1.609              1.245
 Vibration    12          0.724              1.584              1.185
 Vibration    13          0.757              1.495              1.006
 Vibration    14          0.784              1.424              0.888
 Vibration    15          0.795              1.395              0.844
 Vibration    16          0.887              1.179              0.582
 Vibration    17          0.926              1.096              0.504
 Vibration    18          0.960              1.029              0.447

 Optimization completed.
    -- Stationary point found.
 Normal termination of Gaussian 16 at Wed Dec  9 17:01:26 2020.

 ----------------------------------------------------------------------
 # B3LYP/6-311++G(d,p) empiricaldispersion=gd3bj scf=xqc pop=npa geom=c
 heck
 ----------------------------------------------------------------------

 -------------------------------------
 CID_1426572_JID_2232_Energie_neutraal
 -------------------------------------
 Structure from the checkpoint file:  "JID_2232.chk"
 Charge =  0 Multiplicity = 1

 SCF Done:  E(RB3LYP) =  -520.256063011     A.U. after   14 cycles
 Normal termination of Gaussian 16 at Wed Dec  9 17:04:30 2020.

 ----------------------------------------------------------------------
 # B3LYP/6-311++G(d,p) empiricaldispersion=gd3bj scf=xqc pop=npa geom=c
 heck
 ----------------------------------------------------------------------

 -----------------------------------
 CID_1426572_JID_2232_Energie_kation
 -----------------------------------
 Structure from the checkpoint file:  "JID_2232.chk"
 Charge =  1 Multiplicity = 2

 SCF Done:  E(UB3LYP) =  -519.953666793     A.U. after   27 cycles
 Normal termination of Gaussian 16 at Wed Dec  9 17:12:31 2020.
 Gaussian 16:  ES64L-G16RevA.03 25-Dec-2016

 ----------------------------------------------------------------------
 # B3LYP/6-311++G(d,p) empiricaldispersion=gd3bj scf=xqc pop=npa geom=c
 heck
 ----------------------------------------------------------------------

 ----------------------------------
 CID_1426572_JID_2232_Energie_anion
 ----------------------------------
 Structure from the checkpoint file:  "JID_2232.chk"
 Charge = -1 Multiplicity = 2

                         Standard orientation:
 ---------------------------------------------------------------------
 Center     Atomic      Atomic             Coordinates (Angstroms)
 Number     Number       Type             X           Y           Z
 ---------------------------------------------------------------------
      1          6           0        0.916605    1.493907    1.438634
      2          6           0        0.619021    0.999638    0.019587
      3          6           0        1.816126    0.210463   -0.562519
      4          7           0        2.321764   -0.855968    0.296792
      5          6           0        3.397747   -1.612253   -0.334579
      6          6           0       -0.700536    0.223699   -0.004384
      7          6           0       -0.755200   -1.164146    0.182880
      8          6           0       -1.981104   -1.830318    0.172287
      9          6           0       -3.169720   -1.124852   -0.018782
     10          6           0       -3.124157    0.257941   -0.196992
     11          6           0       -1.899621    0.925551   -0.188424
     12          8           0        0.497787    2.198310   -0.766347
     13          1           0        0.981441    0.653755    2.135895
     14          1           0        0.108915    2.151438    1.771297
     15          1           0        1.854930    2.060500    1.457451
     16          1           0        1.503088   -0.248426   -1.510342
     17          1           0        2.589952    0.959804   -0.808585
     18          1           0        2.669394   -0.444577    1.160094
     19          1           0        4.234043   -0.987479   -0.698953
     20          1           0        3.796491   -2.342993    0.376087
     21          1           0        2.996747   -2.162666   -1.193429
     22          1           0        0.169208   -1.708495    0.344170
     23          1           0       -2.005625   -2.907713    0.314239
     24          1           0       -4.122498   -1.647281   -0.026636
     25          1           0       -4.042705    0.820155   -0.343454
     26          1           0       -1.863459    2.001224   -0.326409
     27          1           0        0.180474    1.930273   -1.644448
 ---------------------------------------------------------------------

 SCF Done:  E(UB3LYP) =  -520.240385688     A.U. after   33 cycles
 SCF Done:  E(UB3LYP) =  -520.240385688     a.u. after    1 cycles

 The electronic state is 2-A.
 Alpha  occ. eigenvalues --  -19.02738 -14.20029 -10.13897 -10.09254 -10.08434
 Alpha  occ. eigenvalues --  -10.08198 -10.07673 -10.07575 -10.07505 -10.07349
 Alpha  occ. eigenvalues --  -10.06819 -10.06507  -0.93287  -0.80805  -0.75814
 Alpha  occ. eigenvalues --   -0.68656  -0.64699  -0.63531  -0.59912  -0.54821
 Alpha  occ. eigenvalues --   -0.51570  -0.50579  -0.47205  -0.43532  -0.40856
 Alpha  occ. eigenvalues --   -0.38516  -0.36391  -0.35555  -0.34739  -0.33226
 Alpha  occ. eigenvalues --   -0.32049  -0.31656  -0.31096  -0.29502  -0.28375
 Alpha  occ. eigenvalues --   -0.28194  -0.26512  -0.26310  -0.25570  -0.24385
 Alpha  occ. eigenvalues --   -0.22586  -0.18854  -0.15645  -0.15136  -0.13031
 Alpha  occ. eigenvalues --    0.04464
 Alpha virt. eigenvalues --    0.06208   0.07232   0.07744   0.08143   0.08222
 Alpha virt. eigenvalues --    0.08445   0.08879   0.10022   0.10310   0.10754
 Alpha virt. eigenvalues --    0.11815   0.12364   0.12900   0.13252   0.14265

  Beta  occ. eigenvalues --  -19.02724 -14.20008 -10.13893 -10.09235 -10.08387
  Beta  occ. eigenvalues --  -10.08197 -10.07660 -10.07563 -10.07495 -10.07340
  Beta  occ. eigenvalues --  -10.06813 -10.06485  -0.93258  -0.80772  -0.75796
  Beta  occ. eigenvalues --   -0.68630  -0.64674  -0.63502  -0.59858  -0.54736
  Beta  occ. eigenvalues --   -0.51526  -0.50548  -0.47160  -0.43500  -0.40810
  Beta  occ. eigenvalues --   -0.38473  -0.36358  -0.35513  -0.34710  -0.33196
  Beta  occ. eigenvalues --   -0.32018  -0.31614  -0.31048  -0.29475  -0.28346
  Beta  occ. eigenvalues --   -0.28159  -0.26489  -0.26269  -0.25541  -0.24362
  Beta  occ. eigenvalues --   -0.22565  -0.18836  -0.15631  -0.15122  -0.12990
  Beta virt. eigenvalues --    0.06573   0.07323   0.07803   0.08107   0.08297
  Beta virt. eigenvalues --    0.08542   0.08987   0.09487   0.10585   0.10759
  Beta virt. eigenvalues --    0.11216   0.12214   0.12766   0.13204   0.13654

 Mulliken charges and spin densities:
               1          2
     1  C    0.736134  -1.417929
     2  C    1.278999  -0.811451
     3  C   -0.821534   0.076938
     4  N   -0.328290   0.187025
     5  C    1.159601  -1.540322
     6  C    0.087706   0.946057
     7  C   -1.406593   0.635123
     8  C    0.048724  -0.300685
     9  C    1.116051  -1.411516
    10  C    0.448304  -0.916211
    11  C   -0.807260   0.608841
    12  O   -0.162756  -0.018869
    13  H   -0.111481   0.253616
    14  H    0.031436   0.131951
    15  H   -0.057871   0.228498
    16  H   -0.022077   0.178879
    17  H    0.077585   0.087706
    18  H   -0.084179   0.314621
    19  H   -0.482409   0.607905
    20  H   -0.559238   0.696492
    21  H   -0.235890   0.374914
    22  H    0.513007  -0.237153
    23  H   -0.484827   0.659196
    24  H   -0.352770   0.501488
    25  H   -0.463906   0.631093
    26  H   -0.083192   0.257591
    27  H   -0.033273   0.276203
 Sum of Mulliken charges =  -1.00000   1.00000

 Dipole moment (field-independent basis, Debye):
    X=             -2.0853    Y=              2.3021    Z=             -0.1748  Tot=              3.1111
 Quadrupole moment (field-independent basis, Debye-Ang):
   XX=           -154.4898   YY=           -119.2283   ZZ=           -103.8190
   XY=              4.6091   XZ=             -1.4058   YZ=              0.7032

 Summary of Natural Population Analysis:

                                       Natural Population
                Natural  -----------------------------------------------
    Atom  No    Charge         Core      Valence    Rydberg      Total
 -----------------------------------------------------------------------
      C    1   -0.29061      0.99961     2.28369    0.00732     3.29061
      C    2    0.12237      0.99950     1.86252    0.01561     2.87763
      C    3   -0.09335      0.99958     2.08125    0.01253     3.09335
      N    4   -0.34285      0.99975     2.83102    0.01209     3.84285
      C    5   -0.17688      0.99966     2.16838    0.00884     3.17688
      C    6   -0.02875      0.99947     2.01671    0.01257     3.02875
      C    7   -0.10270      0.99951     2.09335    0.00984     3.10270
      C    8   -0.09902      0.99956     2.08897    0.01048     3.09902
      C    9   -0.10470      0.99956     2.09502    0.01013     3.10470
      C   10   -0.10105      0.99956     2.09097    0.01052     3.10105
      C   11   -0.10503      0.99951     2.09477    0.01075     3.10503
      O   12   -0.37480      0.99989     3.36815    0.00675     4.37480
      H   13    0.10409      0.00000     0.39474    0.00117     0.39591
      H   14    0.10638      0.00000     0.39266    0.00096     0.39362
      H   15    0.10269      0.00000     0.39636    0.00095     0.39731
      H   16    0.09413      0.00000     0.40425    0.00162     0.40587
      H   17    0.08905      0.00000     0.40933    0.00162     0.41095
      H   18    0.17381      0.00000     0.32239    0.00380     0.32619
      H   19    0.08069      0.00000     0.41719    0.00212     0.41931
      H   20    0.09752      0.00000     0.40083    0.00165     0.40248
      H   21    0.09090      0.00000     0.40760    0.00150     0.40910
      H   22    0.11932      0.00000     0.37873    0.00194     0.38068
      H   23    0.10042      0.00000     0.39852    0.00106     0.39958
      H   24    0.10049      0.00000     0.39819    0.00132     0.39951
      H   25    0.10035      0.00000     0.39839    0.00126     0.39965
      H   26    0.10808      0.00000     0.39067    0.00125     0.39192
      H   27    0.22946      0.00000     0.26756    0.00298     0.27054
 =======================================================================
   * Total *    0.00000     11.99515    32.85222    0.15263    45.00000

 Normal termination of Gaussian 16 at Wed Dec  9 17:22:08 2020.
