 Gaussian 16, Revision A.03,

 -----------------------------------------------------------
 # opt freq B3LYP/6-31G(d) empiricaldispersion=gd3bj scf=xqc
 -----------------------------------------------------------

 -------------------------------
 CID_103073495_JID_3255_neutraal
 -------------------------------
 Symbolic Z-matrix:
 Charge =  0 Multiplicity = 1

 SCF Done:  E(RB3LYP) =  -921.890559953     A.U. after   13 cycles
 SCF Done:  E(RB3LYP) =  -921.894731190     A.U. after   12 cycles
 SCF Done:  E(RB3LYP) =  -921.892421077     A.U. after   12 cycles
 SCF Done:  E(RB3LYP) =  -921.894400206     A.U. after   11 cycles
 SCF Done:  E(RB3LYP) =  -921.895770228     A.U. after    9 cycles
 SCF Done:  E(RB3LYP) =  -921.896849799     A.U. after   11 cycles
 SCF Done:  E(RB3LYP) =  -921.897347704     A.U. after   11 cycles
 SCF Done:  E(RB3LYP) =  -921.897637706     A.U. after   12 cycles
 SCF Done:  E(RB3LYP) =  -921.897932038     A.U. after   11 cycles
 SCF Done:  E(RB3LYP) =  -921.898786683     A.U. after   12 cycles
 SCF Done:  E(RB3LYP) =  -921.900012242     A.U. after    9 cycles
 SCF Done:  E(RB3LYP) =  -921.900014923     A.U. after    9 cycles
 SCF Done:  E(RB3LYP) =  -921.900015459     A.U. after    7 cycles
 SCF Done:  E(RB3LYP) =  -921.900015525     A.U. after    7 cycles
 SCF Done:  E(RB3LYP) =  -921.900015539     A.U. after    6 cycles
 Optimization completed.
    -- Stationary point found.
 Normal termination of Gaussian 16 at Wed Dec  9 22:40:34 2020.

 --------------------------------------------------------------------
 #N Geom=AllCheck Guess=TCheck SCRF=Check GenChk RB3LYP/6-31G(d) Freq
 --------------------------------------------------------------------

 Structure from the checkpoint file:  "JID_3255.chk"
 -------------------------------
 CID_103073495_JID_3255_neutraal
 -------------------------------
 Charge =  0 Multiplicity = 1

 SCF Done:  E(RB3LYP) =  -921.900015539     A.U. after    1 cycles

  Exact polarizability: 148.128   3.473 143.373   1.777   0.461 107.969
 Approx polarizability: 188.746   7.312 212.397   1.091   2.592 161.202

                      1                      2                      3
                      A                      A                      A
 Frequencies --     25.6512                50.6026                58.3012
 Red. masses --      4.2552                 4.1196                 4.3283
 Frc consts  --      0.0016                 0.0062                 0.0087
 IR Inten    --      0.3410                 2.1172                 0.5396

                      4                      5                      6
                      A                      A                      A
 Frequencies --     84.1827                96.2932               118.6948
 Red. masses --      3.0473                 2.6082                 3.7104
 Frc consts  --      0.0127                 0.0142                 0.0308
 IR Inten    --      0.3343                 1.2580                 1.0999

                      7                      8                      9
                      A                      A                      A
 Frequencies --    149.0419               176.3584               206.3206
 Red. masses --      2.0759                 3.2838                 2.4373
 Frc consts  --      0.0272                 0.0602                 0.0611
 IR Inten    --      1.3806                 0.2473                 1.1497

                     10                     11                     12
                      A                      A                      A
 Frequencies --    220.1160               229.3601               246.6467
 Red. masses --      1.0413                 1.4402                 1.4040
 Frc consts  --      0.0297                 0.0446                 0.0503
 IR Inten    --      0.1972                 3.2345                12.0133

                     13                     14                     15
                      A                      A                      A
 Frequencies --    262.5644               273.6183               306.4459
 Red. masses --      1.2157                 1.7849                 2.3194
 Frc consts  --      0.0494                 0.0787                 0.1283
 IR Inten    --      3.1279                 3.0815                 0.4607

                     16                     17                     18
                      A                      A                      A
 Frequencies --    348.2573               368.2860               378.9744
 Red. masses --      2.5205                 3.1401                 2.5967
 Frc consts  --      0.1801                 0.2509                 0.2197
 IR Inten    --      5.8193                 1.0029                 1.1717

                     19                     20                     21
                      A                      A                      A
 Frequencies --    394.9613               419.2436               462.3689
 Red. masses --      2.3421                 2.5706                 2.8908
 Frc consts  --      0.2153                 0.2662                 0.3641
 IR Inten    --      1.8582                 1.1924                 8.0139

                     22                     23                     24
                      A                      A                      A
 Frequencies --    467.5733               499.5389               527.6196
 Red. masses --      1.8753                 2.1525                 1.1268
 Frc consts  --      0.2416                 0.3165                 0.1848
 IR Inten    --      1.7500                 1.8775               152.7586

                     25                     26                     27
                      A                      A                      A
 Frequencies --    556.2343               595.5230               666.4042
 Red. masses --      2.5269                 3.3015                 2.5855
 Frc consts  --      0.4606                 0.6899                 0.6765
 IR Inten    --      4.1461                 1.0824                14.6375

                     28                     29                     30
                      A                      A                      A
 Frequencies --    757.5092               778.9149               808.3982
 Red. masses --      1.2514                 3.4733                 1.5313
 Frc consts  --      0.4231                 1.2416                 0.5896
 IR Inten    --     10.2364                 2.4434                 2.6191

                     31                     32                     33
                      A                      A                      A
 Frequencies --    817.5568               847.8320               853.0064
 Red. masses --      1.1670                 2.2837                 3.0430
 Frc consts  --      0.4596                 0.9672                 1.3046
 IR Inten    --      3.9486                 9.3059                 1.1601

                     34                     35                     36
                      A                      A                      A
 Frequencies --    903.6646               933.4405               937.2415
 Red. masses --      1.9522                 1.7713                 1.5949
 Frc consts  --      0.9392                 0.9093                 0.8254
 IR Inten    --      2.3681                33.3007                25.8279

                     37                     38                     39
                      A                      A                      A
 Frequencies --    952.5397               975.3013               982.8281
 Red. masses --      1.5336                 2.2657                 1.6185
 Frc consts  --      0.8198                 1.2698                 0.9211
 IR Inten    --      5.9111                12.4432                 8.9958

                     40                     41                     42
                      A                      A                      A
 Frequencies --   1007.1767              1020.1406              1031.7591
 Red. masses --      1.7388                 1.8136                 1.5142
 Frc consts  --      1.0392                 1.1120                 0.9497
 IR Inten    --     12.5988                 2.6974                 8.2539

                     43                     44                     45
                      A                      A                      A
 Frequencies --   1038.8125              1096.4809              1117.5245
 Red. masses --      1.5465                 2.3412                 2.0965
 Frc consts  --      0.9833                 1.6584                 1.5426
 IR Inten    --     20.1470                27.9314                24.0196

                     46                     47                     48
                      A                      A                      A
 Frequencies --   1151.5393              1161.4343              1196.8087
 Red. masses --      1.7534                 1.9690                 1.2079
 Frc consts  --      1.3699                 1.5649                 1.0193
 IR Inten    --     42.5289                39.6605                 5.3183

                     49                     50                     51
                      A                      A                      A
 Frequencies --   1222.7643              1252.9945              1272.8589
 Red. masses --      1.6809                 2.6160                 2.6844
 Frc consts  --      1.4807                 2.4199                 2.5624
 IR Inten    --     31.3571                 2.2285                20.9850

                     52                     53                     54
                      A                      A                      A
 Frequencies --   1296.2854              1310.8060              1338.4920
 Red. masses --      1.2166                 1.7837                 1.5443
 Frc consts  --      1.2045                 1.8057                 1.6301
 IR Inten    --     18.6225                 4.2710                 3.8235

                     55                     56                     57
                      A                      A                      A
 Frequencies --   1341.8531              1365.1758              1385.2709
 Red. masses --      1.3386                 1.3314                 1.4186
 Frc consts  --      1.4201                 1.4620                 1.6039
 IR Inten    --     20.9541                14.4891                31.2535

                     58                     59                     60
                      A                      A                      A
 Frequencies --   1400.1477              1417.0148              1424.4035
 Red. masses --      1.2667                 1.2926                 1.2582
 Frc consts  --      1.4631                 1.5291                 1.5041
 IR Inten    --     21.3458                 5.7269                 2.4687

                     61                     62                     63
                      A                      A                      A
 Frequencies --   1440.4065              1443.6153              1448.7717
 Red. masses --      1.4924                 1.2668                 1.3271
 Frc consts  --      1.8243                 1.5555                 1.6412
 IR Inten    --      5.0329                 9.0894                21.7087

                     64                     65                     66
                      A                      A                      A
 Frequencies --   1475.8210              1500.8345              1507.4861
 Red. masses --      1.1591                 1.0751                 1.1198
 Frc consts  --      1.4874                 1.4268                 1.4993
 IR Inten    --      3.2753                 9.1098                 4.3906

                     67                     68                     69
                      A                      A                      A
 Frequencies --   1509.7139              1513.6522              1515.6195
 Red. masses --      1.0810                 1.0599                 1.0605
 Frc consts  --      1.4516                 1.4308                 1.4353
 IR Inten    --      5.9458                 1.6886                 0.3750

                     70                     71                     72
                      A                      A                      A
 Frequencies --   1522.2560              1528.0227              1530.7387
 Red. masses --      1.0534                 1.0623                 1.0567
 Frc consts  --      1.4382                 1.4614                 1.4588
 IR Inten    --      1.4281                 5.5478                 6.7488

                     73                     74                     75
                      A                      A                      A
 Frequencies --   1540.8431              1543.4746              1720.6992
 Red. masses --      1.0625                 1.0839                 5.0225
 Frc consts  --      1.4863                 1.5214                 8.7615
 IR Inten    --      8.1177                 2.1990                 8.2606

                     76                     77                     78
                      A                      A                      A
 Frequencies --   2678.8599              2944.7175              2973.2694
 Red. masses --      1.0385                 1.0737                 1.0719
 Frc consts  --      4.3911                 5.4855                 5.5829
 IR Inten    --     16.3473                74.6797                69.2972

                     79                     80                     81
                      A                      A                      A
 Frequencies --   3029.1128              3050.9945              3052.3557
 Red. masses --      1.0653                 1.0352                 1.0354
 Frc consts  --      5.7589                 5.6773                 5.6836
 IR Inten    --     27.8491                 5.8898                29.6161

                     82                     83                     84
                      A                      A                      A
 Frequencies --   3058.1681              3090.3962              3094.3481
 Red. masses --      1.0357                 1.0581                 1.0902
 Frc consts  --      5.7071                 5.9538                 6.1501
 IR Inten    --     17.2091                11.4244                13.4902

                     85                     86                     87
                      A                      A                      A
 Frequencies --   3096.9246              3101.2764              3119.1604
 Red. masses --      1.0931                 1.0943                 1.1007
 Frc consts  --      6.1771                 6.2010                 6.3094
 IR Inten    --     10.8155                 6.7922                16.1731

                     88                     89                     90
                      A                      A                      A
 Frequencies --   3121.6697              3125.4125              3128.1244
 Red. masses --      1.1016                 1.1013                 1.1019
 Frc consts  --      6.3246                 6.3380                 6.3530
 IR Inten    --     39.7797                40.5508                48.4197

                     91                     92                     93
                      A                      A                      A
 Frequencies --   3132.4869              3136.4803              3144.4563
 Red. masses --      1.1034                 1.1024                 1.1075
 Frc consts  --      6.3790                 6.3895                 6.4521
 IR Inten    --     14.4190                39.7731                 5.2901

                     94                     95                     96
                      A                      A                      A
 Frequencies --   3157.6358              3237.4546              3704.9434
 Red. masses --      1.0599                 1.1161                 1.0660
 Frc consts  --      6.2263                 6.8925                 8.6214
 IR Inten    --      7.1403                10.9380               120.9310

 - Thermochemistry -
 -------------------
 Temperature   298.150 Kelvin.  Pressure   1.00000 Atm.
 Atom     1 has atomic number  6 and mass  12.00000

 Molecular mass:   203.13439 amu.
 Principal axes and moments of inertia in atomic units:
                           1         2         3
     Eigenvalues --  1849.351854084.909925095.27722
           X            0.99986  -0.01590  -0.00453
           Y            0.01592   0.99987   0.00301
           Z            0.00448  -0.00308   0.99999
 This molecule is an asymmetric top.
 Rotational symmetry number  1.
 Warning -- assumption of classical behavior for rotation
           may cause significant error
 Rotational temperatures (Kelvin)      0.04683     0.02120     0.01700
 Rotational constants (GHZ):           0.97588     0.44181     0.35420
 Zero-point vibrational energy     792570.0 (Joules/Mol)
                                  189.42878 (Kcal/Mol)
 Warning -- explicit consideration of  26 degrees of freedom as
           vibrations may cause significant error
 Vibrational temperatures:     36.91    72.81    83.88   121.12   138.54
          (Kelvin)            170.78   214.44   253.74   296.85   316.70
                              330.00   354.87   377.77   393.68   440.91
                              501.06   529.88   545.26   568.26   603.20
                              665.25   672.73   718.73   759.13   800.30
                              856.82   958.81  1089.89  1120.68  1163.10
                             1176.28  1219.84  1227.29  1300.17  1343.01
                             1348.48  1370.49  1403.24  1414.07  1449.10
                             1467.75  1484.47  1494.62  1577.59  1607.87
                             1656.81  1671.04  1721.94  1759.29  1802.78
                             1831.36  1865.07  1885.96  1925.79  1930.63
                             1964.18  1993.10  2014.50  2038.77  2049.40
                             2072.42  2077.04  2084.46  2123.38  2159.37
                             2168.94  2172.14  2177.81  2180.64  2190.19
                             2198.48  2202.39  2216.93  2220.72  2475.70
                             3854.28  4236.79  4277.87  4358.22  4389.70
                             4391.66  4400.02  4446.39  4452.08  4455.78
                             4462.05  4487.78  4491.39  4496.77  4500.67
                             4506.95  4512.70  4524.17  4543.13  4657.98
                             5330.59

 Zero-point correction=                           0.301874 (Hartree/Particle)
 Thermal correction to Energy=                    0.318324
 Thermal correction to Enthalpy=                  0.319268
 Thermal correction to Gibbs Free Energy=         0.257834
 Sum of electronic and zero-point Energies=           -921.598142
 Sum of electronic and thermal Energies=              -921.581692
 Sum of electronic and thermal Enthalpies=            -921.580747
 Sum of electronic and thermal Free Energies=         -921.642182

                     E (Thermal)             CV                S
                      KCal/Mol        Cal/Mol-Kelvin    Cal/Mol-Kelvin
 Total                  199.751             61.323            129.300
 Electronic               0.000              0.000              0.000
 Translational            0.889              2.981             41.830
 Rotational               0.889              2.981             32.021
 Vibrational            197.974             55.362             55.449
 Vibration     1          0.593              1.985              6.140
 Vibration     2          0.595              1.977              4.794
 Vibration     3          0.596              1.974              4.514
 Vibration     4          0.601              1.960              3.791
 Vibration     5          0.603              1.952              3.528
 Vibration     6          0.609              1.934              3.122
 Vibration     7          0.618              1.904              2.684
 Vibration     8          0.628              1.871              2.367
 Vibration     9          0.641              1.831              2.076
 Vibration    10          0.647              1.810              1.958
 Vibration    11          0.652              1.796              1.884
 Vibration    12          0.661              1.768              1.754
 Vibration    13          0.670              1.741              1.645
 Vibration    14          0.676              1.722              1.573
 Vibration    15          0.697              1.661              1.381
 Vibration    16          0.726              1.579              1.174
 Vibration    17          0.741              1.537              1.087
 Vibration    18          0.749              1.515              1.043
 Vibration    19          0.762              1.481              0.981
 Vibration    20          0.782              1.428              0.895
 Vibration    21          0.820              1.334              0.759
 Vibration    22          0.825              1.322              0.744
 Vibration    23          0.855              1.251              0.659
 Vibration    24          0.883              1.189              0.593
 Vibration    25          0.912              1.126              0.531
 Vibration    26          0.953              1.041              0.457

 Optimization completed.
    -- Stationary point found.
 Normal termination of Gaussian 16 at Wed Dec  9 22:52:05 2020.

 ----------------------------------------------------------------------
 # B3LYP/6-311++G(d,p) empiricaldispersion=gd3bj scf=xqc pop=npa geom=c
 heck
 ----------------------------------------------------------------------

 ---------------------------------------
 CID_103073495_JID_3255_Energie_neutraal
 ---------------------------------------
 Structure from the checkpoint file:  "JID_3255.chk"
 Charge =  0 Multiplicity = 1

 SCF Done:  E(RB3LYP) =  -922.088513918     A.U. after   15 cycles
 Normal termination of Gaussian 16 at Wed Dec  9 22:58:10 2020.

 ----------------------------------------------------------------------
 # B3LYP/6-311++G(d,p) empiricaldispersion=gd3bj scf=xqc pop=npa geom=c
 heck
 ----------------------------------------------------------------------

 -------------------------------------
 CID_103073495_JID_3255_Energie_kation
 -------------------------------------
 Structure from the checkpoint file:  "JID_3255.chk"
 Charge =  1 Multiplicity = 2

 SCF Done:  E(UB3LYP) =  -921.800504168     A.U. after   27 cycles
 Normal termination of Gaussian 16 at Wed Dec  9 23:13:52 2020.
 Gaussian 16:  ES64L-G16RevA.03 25-Dec-2016

 ----------------------------------------------------------------------
 # B3LYP/6-311++G(d,p) empiricaldispersion=gd3bj scf=xqc pop=npa geom=c
 heck
 ----------------------------------------------------------------------

 ------------------------------------
 CID_103073495_JID_3255_Energie_anion
 ------------------------------------
 Structure from the checkpoint file:  "JID_3255.chk"
 Charge = -1 Multiplicity = 2

                         Standard orientation:
 ---------------------------------------------------------------------
 Center     Atomic      Atomic             Coordinates (Angstroms)
 Number     Number       Type             X           Y           Z
 ---------------------------------------------------------------------
      1          6           0        0.029679    2.984027    0.429597
      2          6           0        0.350779    2.038247   -0.726047
      3          7           0       -0.212785    0.697303   -0.531901
      4          6           0        0.553317   -0.375034   -1.182632
      5          6           0        1.241382   -1.279628   -0.176514
      6          6           0        1.116325   -2.611955   -0.219262
      7          6           0        2.076268   -0.615756    0.880235
      8         16           0        3.611409    0.179398    0.213504
      9          6           0       -1.654852    0.630176   -0.766904
     10          6           0       -2.412425   -0.326477    0.178382
     11          6           0       -2.208639    0.074608    1.642209
     12          6           0       -3.895328   -0.325097   -0.191404
     13          8           0       -1.977299   -1.677950   -0.024435
     14          1           0       -1.048518    3.130326    0.555124
     15          1           0        0.479812    3.967378    0.252840
     16          1           0        0.422795    2.585297    1.371006
     17          1           0        0.012463    2.483454   -1.680800
     18          1           0        1.436982    1.933021   -0.798679
     19          1           0       -0.105625   -0.982455   -1.810873
     20          1           0        1.317401    0.059336   -1.841723
     21          1           0        1.625233   -3.258273    0.491962
     22          1           0        0.502287   -3.100597   -0.971390
     23          1           0        1.519406    0.212894    1.326809
     24          1           0        2.352789   -1.315360    1.672003
     25          1           0        4.122131   -0.937189   -0.348418
     26          1           0       -2.068684    1.634160   -0.629112
     27          1           0       -1.876650    0.333184   -1.806663
     28          1           0       -2.610186    1.075016    1.840885
     29          1           0       -2.713839   -0.640648    2.298918
     30          1           0       -1.141281    0.090934    1.884879
     31          1           0       -4.028571   -0.650535   -1.228518
     32          1           0       -4.440753   -1.019051    0.455184
     33          1           0       -4.329902    0.673987   -0.078685
     34          1           0       -1.080996   -1.761425    0.342021
 ---------------------------------------------------------------------

 SCF Done:  E(UB3LYP) =  -922.074576618     A.U. after   33 cycles
 SCF Done:  E(UB3LYP) =  -922.074576618     a.u. after    1 cycles

 The electronic state is 2-A.
 Alpha  occ. eigenvalues --  -88.74470 -19.01404 -14.20909 -10.12776 -10.10582
 Alpha  occ. eigenvalues --  -10.10252 -10.09645 -10.09520 -10.09327 -10.07317
 Alpha  occ. eigenvalues --  -10.06156 -10.06020 -10.05679  -7.83151  -5.79526
 Alpha  occ. eigenvalues --   -5.79177  -5.78528  -0.92077  -0.82827  -0.73051
 Alpha  occ. eigenvalues --   -0.68904  -0.66346  -0.64451  -0.60330  -0.59450
 Alpha  occ. eigenvalues --   -0.55662  -0.55501  -0.49689  -0.46926  -0.44225
 Alpha  occ. eigenvalues --   -0.40741  -0.39127  -0.38659  -0.37827  -0.35571
 Alpha  occ. eigenvalues --   -0.34845  -0.33780  -0.32274  -0.31923  -0.31096
 Alpha  occ. eigenvalues --   -0.30442  -0.29239  -0.28818  -0.28717  -0.27518
 Alpha  occ. eigenvalues --   -0.26692  -0.26051  -0.25840  -0.25433  -0.24037
 Alpha  occ. eigenvalues --   -0.23926  -0.22250  -0.17635  -0.16907  -0.14510
 Alpha  occ. eigenvalues --   -0.12185   0.04425
 Alpha virt. eigenvalues --    0.06294   0.07249   0.07285   0.07857   0.08622
 Alpha virt. eigenvalues --    0.09160   0.09534   0.09684   0.09739   0.11149
 Alpha virt. eigenvalues --    0.11270   0.12058   0.12327   0.12705   0.12774

  Beta  occ. eigenvalues --  -88.74452 -19.01393 -14.20898 -10.12771 -10.10556
  Beta  occ. eigenvalues --  -10.10245 -10.09632 -10.09515 -10.09311 -10.07277
  Beta  occ. eigenvalues --  -10.06134 -10.05985 -10.05656  -7.83129  -5.79493
  Beta  occ. eigenvalues --   -5.79161  -5.78513  -0.92056  -0.82806  -0.73014
  Beta  occ. eigenvalues --   -0.68879  -0.66295  -0.64400  -0.60295  -0.59409
  Beta  occ. eigenvalues --   -0.55605  -0.55404  -0.49629  -0.46879  -0.44160
  Beta  occ. eigenvalues --   -0.40719  -0.39098  -0.38623  -0.37795  -0.35534
  Beta  occ. eigenvalues --   -0.34813  -0.33749  -0.32236  -0.31853  -0.31058
  Beta  occ. eigenvalues --   -0.30402  -0.29186  -0.28786  -0.28681  -0.27491
  Beta  occ. eigenvalues --   -0.26652  -0.26026  -0.25813  -0.25403  -0.24001
  Beta  occ. eigenvalues --   -0.23866  -0.22231  -0.17611  -0.16835  -0.14462
  Beta  occ. eigenvalues --   -0.12129
  Beta virt. eigenvalues --    0.06580   0.07166   0.07523   0.07828   0.08160
  Beta virt. eigenvalues --    0.09060   0.09674   0.09785   0.09980   0.10075
  Beta virt. eigenvalues --    0.11493   0.11561   0.12345   0.12551   0.12919

 Mulliken charges and spin densities:
               1          2
     1  C    1.059731  -1.493506
     2  C   -0.784528   0.560516
     3  N    0.306898   0.106285
     4  C   -0.896479  -0.131933
     5  C   -0.880105   1.833264
     6  C    0.613292  -1.273036
     7  C    0.760820  -1.117215
     8  S    0.438292  -0.617366
     9  C    0.193857  -1.061815
    10  C   -1.038608   1.386674
    11  C    0.660703  -1.190422
    12  C    0.341657  -0.871032
    13  O   -0.193049  -0.003121
    14  H   -0.250838   0.377630
    15  H   -0.324632   0.469063
    16  H   -0.097861   0.239021
    17  H   -0.090503   0.205967
    18  H   -0.042542   0.167282
    19  H    0.055052   0.148660
    20  H    0.056414   0.071849
    21  H   -0.570817   0.713765
    22  H    0.194453  -0.057612
    23  H    0.355859  -0.180397
    24  H   -0.395344   0.657945
    25  H   -0.353337   0.419974
    26  H   -0.001941   0.179371
    27  H    0.147915  -0.020885
    28  H    0.076157   0.086656
    29  H   -0.085230   0.253533
    30  H   -0.295711   0.398892
    31  H   -0.012467   0.159635
    32  H    0.059980   0.096612
    33  H   -0.292131   0.435267
    34  H    0.285044   0.050480
 Sum of Mulliken charges =  -1.00000   1.00000

 Dipole moment (field-independent basis, Debye):
    X=             -0.6872    Y=             -0.5200    Z=             -2.8996  Tot=              3.0249
 Quadrupole moment (field-independent basis, Debye-Ang):
   XX=           -161.7482   YY=           -146.8907   ZZ=           -122.9549
   XY=              8.2958   XZ=             -4.0995   YZ=              2.7473

 Summary of Natural Population Analysis:

                                       Natural Population
                Natural  -----------------------------------------------
    Atom  No    Charge         Core      Valence    Rydberg      Total
 -----------------------------------------------------------------------
      C    1   -0.28763      0.99966     2.28253    0.00545     3.28763
      C    2   -0.08157      0.99961     2.07196    0.01000     3.08157
      N    3   -0.29820      0.99970     2.78392    0.01458     3.79820
      C    4   -0.10065      0.99954     2.09006    0.01105     3.10065
      C    5   -0.01629      0.99949     2.00329    0.01351     3.01629
      C    6   -0.19341      0.99948     2.18475    0.00919     3.19341
      C    7   -0.25542      0.99950     2.24412    0.01179     3.25542
      S    8   -0.02643      4.99967     3.01254    0.01422     8.02643
      C    9   -0.08810      0.99954     2.07700    0.01156     3.08810
      C   10    0.11884      0.99954     1.86685    0.01478     2.88116
      C   11   -0.29780      0.99961     2.29135    0.00684     3.29780
      C   12   -0.28947      0.99961     2.28275    0.00710     3.28947
      O   13   -0.38595      0.99989     3.37952    0.00654     4.38595
      H   14    0.09794      0.00000     0.40056    0.00150     0.40206
      H   15    0.09875      0.00000     0.40026    0.00099     0.40125
      H   16    0.09898      0.00000     0.39936    0.00166     0.40102
      H   17    0.07926      0.00000     0.41959    0.00115     0.42074
      H   18    0.10059      0.00000     0.39774    0.00168     0.39941
      H   19    0.10156      0.00000     0.39703    0.00141     0.39844
      H   20    0.10194      0.00000     0.39651    0.00155     0.39806
      H   21    0.09904      0.00000     0.39949    0.00147     0.40096
      H   22    0.09717      0.00000     0.40190    0.00093     0.40283
      H   23    0.11590      0.00000     0.38173    0.00237     0.38410
      H   24    0.10850      0.00000     0.38922    0.00228     0.39150
      H   25    0.06407      0.00000     0.43217    0.00376     0.43593
      H   26    0.10162      0.00000     0.39668    0.00169     0.39838
      H   27    0.08678      0.00000     0.41197    0.00125     0.41322
      H   28    0.10189      0.00000     0.39690    0.00121     0.39811
      H   29    0.10133      0.00000     0.39773    0.00094     0.39867
      H   30    0.10430      0.00000     0.39376    0.00195     0.39570
      H   31    0.10117      0.00000     0.39792    0.00091     0.39883
      H   32    0.10324      0.00000     0.39591    0.00085     0.39676
      H   33    0.10087      0.00000     0.39807    0.00106     0.39913
      H   34    0.23717      0.00000     0.25892    0.00391     0.26283
 =======================================================================
   * Total *    0.00000     16.99485    38.83403    0.17112    56.00000

 Normal termination of Gaussian 16 at Wed Dec  9 23:32:47 2020.
