 Gaussian 16, Revision A.03,

 -----------------------------------------------------------
 # opt freq B3LYP/6-31G(d) empiricaldispersion=gd3bj scf=xqc
 -----------------------------------------------------------

 ------------------------------
 CID_45082555_JID_2079_neutraal
 ------------------------------
 Symbolic Z-matrix:
 Charge =  0 Multiplicity = 1

 SCF Done:  E(RB3LYP) =  -554.564677929     A.U. after   17 cycles
 SCF Done:  E(RB3LYP) =  -554.593474036     A.U. after   16 cycles
 SCF Done:  E(RB3LYP) =  -554.619780976     A.U. after   16 cycles
 SCF Done:  E(RB3LYP) =  -554.628887606     A.U. after   13 cycles
 SCF Done:  E(RB3LYP) =  -554.641002023     A.U. after   14 cycles
 SCF Done:  E(RB3LYP) =  -554.647816795     A.U. after   13 cycles
 SCF Done:  E(RB3LYP) =  -554.651665198     A.U. after   13 cycles
 SCF Done:  E(RB3LYP) =  -554.653389843     A.U. after   13 cycles
 SCF Done:  E(RB3LYP) =  -554.654579330     A.U. after   12 cycles
 SCF Done:  E(RB3LYP) =  -554.655444515     A.U. after   13 cycles
 SCF Done:  E(RB3LYP) =  -554.659458950     A.U. after   11 cycles
 SCF Done:  E(RB3LYP) =  -554.659465003     A.U. after   11 cycles
 SCF Done:  E(RB3LYP) =  -554.659465724     A.U. after    9 cycles
 SCF Done:  E(RB3LYP) =  -554.659466315     A.U. after    9 cycles
 SCF Done:  E(RB3LYP) =  -554.659466402     A.U. after    7 cycles
 Optimization completed.
    -- Stationary point found.
 Normal termination of Gaussian 16 at Wed Dec  9 16:51:15 2020.

 --------------------------------------------------------------------
 #N Geom=AllCheck Guess=TCheck SCRF=Check GenChk RB3LYP/6-31G(d) Freq
 --------------------------------------------------------------------

 Structure from the checkpoint file:  "JID_2079.chk"
 ------------------------------
 CID_45082555_JID_2079_neutraal
 ------------------------------
 Charge =  0 Multiplicity = 1

 SCF Done:  E(RB3LYP) =  -554.659466402     A.U. after    1 cycles

  Exact polarizability: 170.350 -18.216  95.314   6.595  -1.907  84.689
 Approx polarizability: 221.403 -36.355 136.682  13.129  -0.249 130.851

                      1                      2                      3
                      A                      A                      A
 Frequencies --     28.5740                46.3955                87.4819
 Red. masses --      4.7716                 5.4134                 4.2385
 Frc consts  --      0.0023                 0.0069                 0.0191
 IR Inten    --      1.5985                 1.8719                 2.1513

                      4                      5                      6
                      A                      A                      A
 Frequencies --    127.8861               133.6985               151.4081
 Red. masses --      1.6506                 1.5308                 2.8174
 Frc consts  --      0.0159                 0.0161                 0.0381
 IR Inten    --      0.6866                 0.4167                 1.5066

                      7                      8                      9
                      A                      A                      A
 Frequencies --    174.8529               189.9978               211.8644
 Red. masses --      3.4608                 1.6575                 3.4874
 Frc consts  --      0.0623                 0.0353                 0.0922
 IR Inten    --      3.0107                21.9351                 4.0599

                     10                     11                     12
                      A                      A                      A
 Frequencies --    247.0514               329.0129               342.9247
 Red. masses --      1.7628                 5.1214                 3.4656
 Frc consts  --      0.0634                 0.3266                 0.2401
 IR Inten    --     22.9285                19.8312                 4.0200

                     13                     14                     15
                      A                      A                      A
 Frequencies --    356.4380               409.4784               439.5329
 Red. masses --      3.4338                 4.0089                 3.8217
 Frc consts  --      0.2570                 0.3960                 0.4350
 IR Inten    --     20.7681                 2.2113                 2.8472

                     16                     17                     18
                      A                      A                      A
 Frequencies --    504.2988               552.1322               560.0953
 Red. masses --      4.7614                 5.6544                 5.9384
 Frc consts  --      0.7134                 1.0156                 1.0976
 IR Inten    --      2.1218                 1.6985                 4.6225

                     19                     20                     21
                      A                      A                      A
 Frequencies --    630.8269               756.7677               775.9875
 Red. masses --      5.2546                 4.9080                 1.0319
 Frc consts  --      1.2320                 1.6561                 0.3661
 IR Inten    --     16.7266                27.6618                 0.7765

                     22                     23                     24
                      A                      A                      A
 Frequencies --    800.9102               841.1453               876.8125
 Red. masses --      3.1309                 3.8157                 1.9014
 Frc consts  --      1.1833                 1.5906                 0.8613
 IR Inten    --     81.1264                 8.3666                78.6307

                     25                     26                     27
                      A                      A                      A
 Frequencies --    886.8372               900.4286               952.9514
 Red. masses --      1.2270                 1.9503                 6.2051
 Frc consts  --      0.5686                 0.9316                 3.3200
 IR Inten    --     11.1806                18.0364                13.0945

                     28                     29                     30
                      A                      A                      A
 Frequencies --    953.8521              1000.9141              1016.4991
 Red. masses --      4.4995                 3.1064                 1.4066
 Frc consts  --      2.4120                 1.8336                 0.8563
 IR Inten    --      7.8683                17.6119                 2.2818

                     31                     32                     33
                      A                      A                      A
 Frequencies --   1049.5290              1061.2293              1071.6738
 Red. masses --      1.3322                 1.5577                 2.7491
 Frc consts  --      0.8646                 1.0336                 1.8602
 IR Inten    --     40.6213                 3.0193                19.0386

                     34                     35                     36
                      A                      A                      A
 Frequencies --   1079.5524              1088.6276              1153.3994
 Red. masses --      1.3944                 1.3932                 2.7456
 Frc consts  --      0.9575                 0.9728                 2.1520
 IR Inten    --      5.2293                 0.8984                33.5716

                     37                     38                     39
                      A                      A                      A
 Frequencies --   1181.9426              1186.2674              1209.6075
 Red. masses --      1.2656                 1.2761                 1.7311
 Frc consts  --      1.0417                 1.0580                 1.4923
 IR Inten    --      0.0344                 1.3109                98.1150

                     40                     41                     42
                      A                      A                      A
 Frequencies --   1236.2493              1303.7338              1372.1691
 Red. masses --      2.6710                 3.4005                 2.6716
 Frc consts  --      2.4051                 3.4054                 2.9637
 IR Inten    --    325.3672                86.2831               181.8242

                     43                     44                     45
                      A                      A                      A
 Frequencies --   1458.4599              1480.4675              1492.0891
 Red. masses --      1.1268                 1.0849                 1.2158
 Frc consts  --      1.4121                 1.4010                 1.5947
 IR Inten    --      6.3264                 0.2445                16.3161

                     46                     47                     48
                      A                      A                      A
 Frequencies --   1496.7167              1512.0035              1524.5030
 Red. masses --      1.2106                 1.0482                 1.0483
 Frc consts  --      1.5979                 1.4119                 1.4354
 IR Inten    --      8.0969                 6.2520                 8.7320

                     49                     50                     51
                      A                      A                      A
 Frequencies --   1660.7438              1677.1633              1812.1381
 Red. masses --      8.3078                 1.1192                11.4818
 Frc consts  --     13.5002                 1.8548                22.2148
 IR Inten    --      1.1863                49.4996               147.5931

                     52                     53                     54
                      A                      A                      A
 Frequencies --   2155.4666              3075.4923              3114.7899
 Red. masses --     11.6938                 1.0295                 1.0515
 Frc consts  --     32.0103                 5.7373                 6.0106
 IR Inten    --    151.3467                37.2535                22.8644

                     55                     56                     57
                      A                      A                      A
 Frequencies --   3123.5902              3125.8748              3149.8027
 Red. masses --      1.0529                 1.0523                 1.1073
 Frc consts  --      6.0525                 6.0581                 6.4725
 IR Inten    --     25.9693                21.8591                20.8686

                     58                     59                     60
                      A                      A                      A
 Frequencies --   3182.6065              3195.6943              3204.6035
 Red. masses --      1.1072                 1.1186                 1.1172
 Frc consts  --      6.6076                 6.7307                 6.7597
 IR Inten    --     19.0218                 0.2467                 4.4209

                     61                     62                     63
                      A                      A                      A
 Frequencies --   3209.1195              3477.7312              3577.0490
 Red. masses --      1.1160                 1.0492                 1.0938
 Frc consts  --      6.7716                 7.4766                 8.2456
 IR Inten    --     17.9072                 0.3817                 0.1877

 - Thermochemistry -
 -------------------
 Temperature   298.150 Kelvin.  Pressure   1.00000 Atm.
 Atom     1 has atomic number  6 and mass  12.00000

 Molecular mass:   165.07898 amu.
 Principal axes and moments of inertia in atomic units:
                           1         2         3
     Eigenvalues --  1038.482044070.822154368.73674
           X            1.00000  -0.00063  -0.00009
           Y            0.00063   0.99951  -0.03119
           Z            0.00011   0.03119   0.99951
 This molecule is an asymmetric top.
 Rotational symmetry number  1.
 Warning -- assumption of classical behavior for rotation
           may cause significant error
 Rotational temperatures (Kelvin)      0.08340     0.02128     0.01983
 Rotational constants (GHZ):           1.73786     0.44334     0.41310
 Zero-point vibrational energy     484410.7 (Joules/Mol)
                                  115.77693 (Kcal/Mol)
 Warning -- explicit consideration of  18 degrees of freedom as
           vibrations may cause significant error
 Vibrational temperatures:     41.11    66.75   125.87   184.00   192.36
          (Kelvin)            217.84   251.57   273.36   304.83   355.45
                              473.38   493.39   512.83   589.15   632.39
                              725.57   794.40   805.85   907.62  1088.82
                             1116.47  1152.33  1210.22  1261.54  1275.96
                             1295.52  1371.08  1372.38  1440.09  1462.52
                             1510.04  1526.87  1541.90  1553.24  1566.29
                             1659.48  1700.55  1706.77  1740.36  1778.69
                             1875.78  1974.25  2098.40  2130.06  2146.78
                             2153.44  2175.44  2193.42  2389.44  2413.06
                             2607.26  3101.24  4424.95  4481.49  4494.15
                             4497.44  4531.86  4579.06  4597.89  4610.71
                             4617.21  5003.68  5146.58

 Zero-point correction=                           0.184502 (Hartree/Particle)
 Thermal correction to Energy=                    0.197376
 Thermal correction to Enthalpy=                  0.198320
 Thermal correction to Gibbs Free Energy=         0.144205
 Sum of electronic and zero-point Energies=           -554.474964
 Sum of electronic and thermal Energies=              -554.462090
 Sum of electronic and thermal Enthalpies=            -554.461146
 Sum of electronic and thermal Free Energies=         -554.515262

                     E (Thermal)             CV                S
                      KCal/Mol        Cal/Mol-Kelvin    Cal/Mol-Kelvin
 Total                  123.855             46.227            113.896
 Electronic               0.000              0.000              0.000
 Translational            0.889              2.981             41.212
 Rotational               0.889              2.981             31.291
 Vibrational            122.078             40.266             41.392
 Vibration     1          0.593              1.984              5.926
 Vibration     2          0.595              1.979              4.965
 Vibration     3          0.601              1.958              3.716
 Vibration     4          0.611              1.925              2.978
 Vibration     5          0.613              1.920              2.892
 Vibration     6          0.619              1.901              2.654
 Vibration     7          0.627              1.873              2.383
 Vibration     8          0.633              1.854              2.228
 Vibration     9          0.643              1.823              2.028
 Vibration    10          0.661              1.768              1.752
 Vibration    11          0.712              1.618              1.265
 Vibration    12          0.722              1.590              1.199
 Vibration    13          0.732              1.562              1.138
 Vibration    14          0.774              1.450              0.928
 Vibration    15          0.800              1.384              0.828
 Vibration    16          0.860              1.240              0.647
 Vibration    17          0.907              1.135              0.540
 Vibration    18          0.916              1.118              0.524

                           ! Non-Optimized Parameters !
 Normal termination of Gaussian 16 at Wed Dec  9 16:55:17 2020.

 ----------------------------------------------------------------------
 # B3LYP/6-311++G(d,p) empiricaldispersion=gd3bj scf=xqc pop=npa geom=c
 heck
 ----------------------------------------------------------------------

 --------------------------------------
 CID_45082555_JID_2079_Energie_neutraal
 --------------------------------------
 Structure from the checkpoint file:  "JID_2079.chk"
 Charge =  0 Multiplicity = 1

 SCF Done:  E(RB3LYP) =  -554.824425247     A.U. after   15 cycles
 Normal termination of Gaussian 16 at Wed Dec  9 16:56:50 2020.

 ----------------------------------------------------------------------
 # B3LYP/6-311++G(d,p) empiricaldispersion=gd3bj scf=xqc pop=npa geom=c
 heck
 ----------------------------------------------------------------------

 ------------------------------------
 CID_45082555_JID_2079_Energie_kation
 ------------------------------------
 Structure from the checkpoint file:  "JID_2079.chk"
 Charge =  1 Multiplicity = 2

 SCF Done:  E(UB3LYP) =  -554.514933880     A.U. after   32 cycles
 Normal termination of Gaussian 16 at Wed Dec  9 17:01:13 2020.
 Gaussian 16:  ES64L-G16RevA.03 25-Dec-2016

 ----------------------------------------------------------------------
 # B3LYP/6-311++G(d,p) empiricaldispersion=gd3bj scf=xqc pop=npa geom=c
 heck
 ----------------------------------------------------------------------

 -----------------------------------
 CID_45082555_JID_2079_Energie_anion
 -----------------------------------
 Structure from the checkpoint file:  "JID_2079.chk"
 Charge = -1 Multiplicity = 2

                         Standard orientation:
 ---------------------------------------------------------------------
 Center     Atomic      Atomic             Coordinates (Angstroms)
 Number     Number       Type             X           Y           Z
 ---------------------------------------------------------------------
      1          6           0        3.638756    1.428222   -0.511409
      2          8           0        2.704150    0.354530   -0.698242
      3          6           0        1.753400    0.260514    0.253136
      4          8           0        1.687138    1.000838    1.212571
      5          6           0        0.828382   -0.900414    0.006594
      6          6           0        0.317755   -1.566226    1.317569
      7          6           0       -0.568278   -0.741042    0.486530
      8          6           0       -1.730911   -0.239614    0.221611
      9          6           0       -2.886828    0.265158   -0.055181
     10          6           0       -4.195763    0.142201   -0.732814
     11          6           0       -3.839810    1.388108    0.073956
     12          7           0        1.046896   -1.630608   -1.215211
     13          1           0        4.330994    1.361165   -1.350931
     14          1           0        4.168468    1.316284    0.438430
     15          1           0        3.120040    2.390244   -0.514912
     16          1           0        0.197122   -2.648913    1.293578
     17          1           0        0.672403   -1.149978    2.258766
     18          1           0       -4.221666    0.221923   -1.818346
     19          1           0       -4.928222   -0.547594   -0.316571
     20          1           0       -4.330967    1.536900    1.034060
     21          1           0       -3.624329    2.307960   -0.466906
     22          1           0        1.943326   -2.113193   -1.190155
     23          1           0        0.314041   -2.324932   -1.335117
 ---------------------------------------------------------------------

 SCF Done:  E(UB3LYP) =  -554.808302281     A.U. after   33 cycles
 SCF Done:  E(UB3LYP) =  -554.808302281     a.u. after    1 cycles

 The electronic state is 2-A.
 Alpha  occ. eigenvalues --  -19.07047 -19.00910 -14.20054 -10.20218 -10.13420
 Alpha  occ. eigenvalues --  -10.12467 -10.09627 -10.09539 -10.09403 -10.09336
 Alpha  occ. eigenvalues --  -10.08906 -10.08710  -1.01044  -0.92108  -0.82186
 Alpha  occ. eigenvalues --   -0.77696  -0.73212  -0.64661  -0.63666  -0.54071
 Alpha  occ. eigenvalues --   -0.52943  -0.52195  -0.46874  -0.44218  -0.42083
 Alpha  occ. eigenvalues --   -0.40260  -0.39257  -0.38712  -0.37687  -0.36396
 Alpha  occ. eigenvalues --   -0.34481  -0.30996  -0.30702  -0.28597  -0.27110
 Alpha  occ. eigenvalues --   -0.26311  -0.26015  -0.24446  -0.23332  -0.21084
 Alpha  occ. eigenvalues --   -0.18843  -0.15069  -0.14759  -0.13683   0.04561
 Alpha virt. eigenvalues --    0.06200   0.06911   0.07396   0.07832   0.08760
 Alpha virt. eigenvalues --    0.09244   0.09617   0.10112   0.10622   0.11241
 Alpha virt. eigenvalues --    0.11542   0.11985   0.12624   0.13095   0.13782

  Beta  occ. eigenvalues --  -19.07041 -19.00904 -14.20013 -10.20213 -10.13418
  Beta  occ. eigenvalues --  -10.12428 -10.09613 -10.09518 -10.09371 -10.09335
  Beta  occ. eigenvalues --  -10.08886 -10.08674  -1.01032  -0.92099  -0.82145
  Beta  occ. eigenvalues --   -0.77627  -0.73153  -0.64607  -0.63613  -0.54012
  Beta  occ. eigenvalues --   -0.52886  -0.52129  -0.46817  -0.44190  -0.42015
  Beta  occ. eigenvalues --   -0.40201  -0.39183  -0.38686  -0.37654  -0.36351
  Beta  occ. eigenvalues --   -0.34444  -0.30961  -0.30665  -0.28549  -0.27059
  Beta  occ. eigenvalues --   -0.26263  -0.25960  -0.24404  -0.23298  -0.21071
  Beta  occ. eigenvalues --   -0.18824  -0.14959  -0.14716  -0.13629
  Beta virt. eigenvalues --    0.06779   0.07220   0.07465   0.07932   0.08085
  Beta virt. eigenvalues --    0.09112   0.09668   0.09974   0.10590   0.11204
  Beta virt. eigenvalues --    0.11670   0.11791   0.12219   0.12812   0.13294

 Mulliken charges and spin densities:
               1          2
     1  C    1.041431  -1.299489
     2  O   -0.149602   0.050752
     3  C   -0.459379  -0.128383
     4  O   -0.293474   0.012099
     5  C   -0.713333   1.262312
     6  C    1.778057  -2.100815
     7  C   -0.454471   0.142925
     8  C    0.970899  -0.479627
     9  C   -0.184804   0.042855
    10  C    0.282058  -0.643696
    11  C   -0.558384   0.272081
    12  N   -0.443568   0.065352
    13  H   -0.384509   0.536055
    14  H   -0.288631   0.465076
    15  H   -0.110061   0.282371
    16  H   -0.372091   0.567852
    17  H   -0.041065   0.227380
    18  H    0.082205   0.050865
    19  H   -0.377543   0.530548
    20  H   -0.115946   0.262061
    21  H    0.107102   0.024885
    22  H   -0.263910   0.545120
    23  H   -0.050980   0.311421
 Sum of Mulliken charges =  -1.00000   1.00000

 Dipole moment (field-independent basis, Debye):
    X=             -2.0588    Y=              2.7507    Z=             -0.0269  Tot=              3.4359
 Quadrupole moment (field-independent basis, Debye-Ang):
   XX=           -149.6249   YY=           -108.4331   ZZ=           -100.8552
   XY=             -5.0428   XZ=              9.4102   YZ=             -3.1262

 Summary of Natural Population Analysis:

                                       Natural Population
                Natural  -----------------------------------------------
    Atom  No    Charge         Core      Valence    Rydberg      Total
 -----------------------------------------------------------------------
      C    1   -0.10402      0.99959     2.09540    0.00903     3.10402
      O    2   -0.27029      0.99986     3.26075    0.00968     4.27029
      C    3    0.40897      0.99962     1.56608    0.02533     2.59103
      O    4   -0.31112      0.99987     3.30614    0.00512     4.31112
      C    5    0.01132      0.99949     1.97375    0.01544     2.98868
      C    6   -0.18717      0.99959     2.17913    0.00845     3.18717
      C    7   -0.04029      0.99945     2.02911    0.01173     3.04029
      C    8    0.04627      0.99931     1.94725    0.00717     2.95373
      C    9   -0.04103      0.99949     2.03091    0.01062     3.04103
      C   10   -0.19320      0.99963     2.18595    0.00763     3.19320
      C   11   -0.19384      0.99963     2.18641    0.00781     3.19384
      N   12   -0.40632      0.99974     2.89612    0.01046     3.90632
      H   13    0.09371      0.00000     0.40469    0.00160     0.40629
      H   14    0.09198      0.00000     0.40663    0.00139     0.40802
      H   15    0.09064      0.00000     0.40827    0.00109     0.40936
      H   16    0.10819      0.00000     0.38897    0.00285     0.39181
      H   17    0.11365      0.00000     0.38500    0.00135     0.38635
      H   18    0.10261      0.00000     0.39645    0.00094     0.39739
      H   19    0.10801      0.00000     0.38937    0.00262     0.39199
      H   20    0.10647      0.00000     0.39209    0.00144     0.39353
      H   21    0.10268      0.00000     0.39648    0.00085     0.39732
      H   22    0.18226      0.00000     0.31349    0.00425     0.31774
      H   23    0.18056      0.00000     0.31719    0.00225     0.31944
 =======================================================================
   * Total *    0.00000     11.99527    31.85564    0.14909    44.00000

 Normal termination of Gaussian 16 at Wed Dec  9 17:05:55 2020.
