 Gaussian 16, Revision A.03,

 -----------------------------------------------------------
 # opt freq B3LYP/6-31G(d) empiricaldispersion=gd3bj scf=xqc
 -----------------------------------------------------------

 ------------------------------
 CID_70490234_JID_2758_neutraal
 ------------------------------
 Symbolic Z-matrix:
 Charge =  0 Multiplicity = 1

 SCF Done:  E(RB3LYP) =  -575.762965258     A.U. after   15 cycles
 SCF Done:  E(RB3LYP) =  -575.784207249     A.U. after   13 cycles
 SCF Done:  E(RB3LYP) =  -575.785843910     A.U. after   13 cycles
 SCF Done:  E(RB3LYP) =  -575.786188710     A.U. after   13 cycles
 SCF Done:  E(RB3LYP) =  -575.787064823     A.U. after   12 cycles
 SCF Done:  E(RB3LYP) =  -575.788345011     A.U. after   15 cycles
 SCF Done:  E(RB3LYP) =  -575.789670325     A.U. after   13 cycles
 SCF Done:  E(RB3LYP) =  -575.790406758     A.U. after   12 cycles
 SCF Done:  E(RB3LYP) =  -575.790680737     A.U. after   13 cycles
 SCF Done:  E(RB3LYP) =  -575.790901124     A.U. after   12 cycles
 SCF Done:  E(RB3LYP) =  -575.791315495     A.U. after   11 cycles
 SCF Done:  E(RB3LYP) =  -575.791318263     A.U. after   10 cycles
 SCF Done:  E(RB3LYP) =  -575.791319558     A.U. after   10 cycles
 SCF Done:  E(RB3LYP) =  -575.791319940     A.U. after    8 cycles
 SCF Done:  E(RB3LYP) =  -575.791320043     A.U. after    7 cycles
 SCF Done:  E(RB3LYP) =  -575.791320087     A.U. after    7 cycles
 Optimization completed.
    -- Stationary point found.

 1\1\GINC-NODE363\FOpt\RB3LYP\6-31G(d)\C9H12O3\VSC10255\09-Dec-2020\0\\
 # opt freq B3LYP/6-31G(d) empiricaldispersion=gd3bj scf=xqc\\CID_70490
 234_JID_2758_neutraal\\0,1\C,0.9737501928,-1.2980070631,-0.1359751966\
 C,0.1474993262,-0.027448163,-0.208383377\C,-1.1818807567,-0.0782574136
 ,-0.896228\C,-1.153177638,0.1056178763,0.6124539368\C,-1.6511006269,-0
 .9155544799,1.560460356\O,-1.9726405559,-0.6881582941,2.7088984554\O,-
 1.7366384067,-2.1705616639,1.0333864033\C,-1.6998228307,1.0386783884,-
 1.793127614\C,-1.0774463893,1.0209103681,-3.1193491345\C,-0.5504020823

 Normal termination of Gaussian 16 at Wed Dec  9 17:59:44 2020.

 --------------------------------------------------------------------
 #N Geom=AllCheck Guess=TCheck SCRF=Check GenChk RB3LYP/6-31G(d) Freq
 --------------------------------------------------------------------

 Structure from the checkpoint file:  "JID_2758.chk"
 ------------------------------
 CID_70490234_JID_2758_neutraal
 ------------------------------
 Charge =  0 Multiplicity = 1

 SCF Done:  E(RB3LYP) =  -575.791320087     A.U. after    1 cycles

  Exact polarizability: 133.137  -7.533  81.804   9.761  -0.914  82.173
 Approx polarizability: 184.773 -18.480 115.352  28.807  -3.461 126.475

                      1                      2                      3
                      A                      A                      A
 Frequencies --     33.4551                50.3008                64.7507
 Red. masses --      5.2503                 8.7064                 6.6720
 Frc consts  --      0.0035                 0.0130                 0.0165
 IR Inten    --      0.6356                 1.9381                 2.2872

                      4                      5                      6
                      A                      A                      A
 Frequencies --     78.1457               135.2221               167.5611
 Red. masses --      1.0756                 3.9403                 2.0422
 Frc consts  --      0.0039                 0.0424                 0.0338
 IR Inten    --    135.6370                 0.2172                 0.5504

                      7                      8                      9
                      A                      A                      A
 Frequencies --    172.9287               200.2577               208.1086
 Red. masses --      2.3250                 4.5699                 1.4485
 Frc consts  --      0.0410                 0.1080                 0.0370
 IR Inten    --      1.2126                 4.3648                 3.0449

                     10                     11                     12
                      A                      A                      A
 Frequencies --    245.3292               282.6810               316.6421
 Red. masses --      1.5092                 2.1163                 4.1009
 Frc consts  --      0.0535                 0.0996                 0.2423
 IR Inten    --      2.1466                 4.4707                 0.1098

                     13                     14                     15
                      A                      A                      A
 Frequencies --    340.0104               371.5802               378.8368
 Red. masses --      3.9822                 2.6236                 3.9677
 Frc consts  --      0.2712                 0.2134                 0.3355
 IR Inten    --      3.7844                 0.3429                 7.1677

                     16                     17                     18
                      A                      A                      A
 Frequencies --    401.9097               430.6957               491.2673
 Red. masses --      3.0200                 7.3809                 3.4517
 Frc consts  --      0.2874                 0.8067                 0.4908
 IR Inten    --      1.4128                 1.4740                 5.0167

                     19                     20                     21
                      A                      A                      A
 Frequencies --    541.9903               612.4307               627.3179
 Red. masses --      3.1237                 1.8174                 2.2358
 Frc consts  --      0.5406                 0.4016                 0.5184
 IR Inten    --     17.1738                60.9005                60.8304

                     22                     23                     24
                      A                      A                      A
 Frequencies --    684.4546               738.8167               797.7278
 Red. masses --      3.1185                 3.4579                 4.5279
 Frc consts  --      0.8608                 1.1121                 1.6977
 IR Inten    --     24.1314                12.1823                11.6366

                     25                     26                     27
                      A                      A                      A
 Frequencies --    823.6440               908.4279               956.5078
 Red. masses --      4.2817                 4.0769                 1.7888
 Frc consts  --      1.7114                 1.9822                 0.9643
 IR Inten    --     12.2023                18.1048                 4.8972

                     28                     29                     30
                      A                      A                      A
 Frequencies --    978.8203               988.2514              1005.9392
 Red. masses --      1.9837                 1.4589                 1.5997
 Frc consts  --      1.1198                 0.8395                 0.9538
 IR Inten    --      8.7033                 6.2753                 7.0382

                     31                     32                     33
                      A                      A                      A
 Frequencies --   1040.9055              1084.6192              1114.3926
 Red. masses --      1.5366                 2.5413                 1.2746
 Frc consts  --      0.9809                 1.7614                 0.9326
 IR Inten    --      6.1260                25.2015                40.7662

                     34                     35                     36
                      A                      A                      A
 Frequencies --   1136.3180              1160.0005              1200.6629
 Red. masses --      2.0198                 1.7915                 1.6243
 Frc consts  --      1.5366                 1.4203                 1.3796
 IR Inten    --     26.1245                56.8968               110.9132

                     37                     38                     39
                      A                      A                      A
 Frequencies --   1234.0805              1241.0822              1291.3315
 Red. masses --      1.6909                 1.7307                 1.6475
 Frc consts  --      1.5172                 1.5706                 1.6187
 IR Inten    --    178.5738               117.9688                 6.4237

                     40                     41                     42
                      A                      A                      A
 Frequencies --   1303.4187              1324.2297              1352.1717
 Red. masses --      1.5133                 1.7019                 1.6598
 Frc consts  --      1.5148                 1.7583                 1.7880
 IR Inten    --      5.5535                 3.8187                 3.4241

                     43                     44                     45
                      A                      A                      A
 Frequencies --   1376.9594              1399.9363              1439.6205
 Red. masses --      2.0433                 1.9615                 1.3005
 Frc consts  --      2.2826                 2.2649                 1.5880
 IR Inten    --     40.3725                35.0644                 5.5834

                     46                     47                     48
                      A                      A                      A
 Frequencies --   1455.3952              1479.7928              1502.0224
 Red. masses --      1.2773                 2.2102                 1.0881
 Frc consts  --      1.5940                 2.8515                 1.4464
 IR Inten    --      4.4816                 6.0770                 4.5615

                     49                     50                     51
                      A                      A                      A
 Frequencies --   1517.0172              1524.2163              1539.3774
 Red. masses --      1.0549                 1.0507                 1.0765
 Frc consts  --      1.4304                 1.4383                 1.5030
 IR Inten    --      2.4991                 6.3810                10.6821

                     52                     53                     54
                      A                      A                      A
 Frequencies --   1542.5336              1831.0369              2419.9811
 Red. masses --      1.1370                 9.1411                11.6199
 Frc consts  --      1.5940                18.0568                40.0936
 IR Inten    --      1.5956               403.2194               143.3191

                     55                     56                     57
                      A                      A                      A
 Frequencies --   3035.4219              3045.9908              3052.3681
 Red. masses --      1.0612                 1.0396                 1.0389
 Frc consts  --      5.7609                 5.6831                 5.7029
 IR Inten    --     24.9787                26.0946                26.9277

                     58                     59                     60
                      A                      A                      A
 Frequencies --   3066.5979              3100.4546              3112.4143
 Red. masses --      1.0981                 1.1020                 1.1024
 Frc consts  --      6.0842                 6.2413                 6.2917
 IR Inten    --     22.4313                18.4208                31.4114

                     61                     62                     63
                      A                      A                      A
 Frequencies --   3133.2441              3163.2887              3176.8385
 Red. masses --      1.1001                 1.0970                 1.0888
 Frc consts  --      6.3630                 6.4677                 6.4742
 IR Inten    --     25.5694                 6.4445                 4.6974

                     64                     65                     66
                      A                      A                      A
 Frequencies --   3191.6354              3692.5986              3696.9124
 Red. masses --      1.0872                 1.0641                 1.0663
 Frc consts  --      6.5249                 8.5483                 8.5865
 IR Inten    --      6.4658                60.0019                80.5987

 - Thermochemistry -
 -------------------
 Temperature   298.150 Kelvin.  Pressure   1.00000 Atm.
 Atom     1 has atomic number  6 and mass  12.00000

 Molecular mass:   168.07864 amu.
 Principal axes and moments of inertia in atomic units:
                           1         2         3
     Eigenvalues --   993.183294235.740494425.81512
           X            0.99997   0.00640  -0.00528
           Y           -0.00640   0.99998   0.00042
           Z            0.00528  -0.00038   0.99999
 This molecule is an asymmetric top.
 Rotational symmetry number  1.
 Warning -- assumption of classical behavior for rotation
           may cause significant error
 Rotational temperatures (Kelvin)      0.08721     0.02045     0.01957
 Rotational constants (GHZ):           1.81713     0.42607     0.40778
 Zero-point vibrational energy     514471.3 (Joules/Mol)
                                  122.96158 (Kcal/Mol)
 Warning -- explicit consideration of  20 degrees of freedom as
           vibrations may cause significant error
 Vibrational temperatures:     48.13    72.37    93.16   112.43   194.55
          (Kelvin)            241.08   248.81   288.13   299.42   352.97
                              406.71   455.58   489.20   534.62   545.06
                              578.26   619.68   706.82   779.80   881.15
                              902.57   984.78  1062.99  1147.75  1185.04
                             1307.03  1376.20  1408.30  1421.87  1447.32
                             1497.63  1560.53  1603.36  1634.91  1668.98
                             1727.49  1775.57  1785.64  1857.94  1875.33
                             1905.27  1945.47  1981.14  2014.20  2071.29
                             2093.99  2129.09  2161.08  2182.65  2193.01
                             2214.82  2219.36  2634.45  3481.81  4367.30
                             4382.50  4391.68  4412.15  4460.86  4478.07
                             4508.04  4551.27  4570.76  4592.05  5312.83
                             5319.03

 Zero-point correction=                           0.195952 (Hartree/Particle)
 Thermal correction to Energy=                    0.209600
 Thermal correction to Enthalpy=                  0.210544
 Thermal correction to Gibbs Free Energy=         0.154877
 Sum of electronic and zero-point Energies=           -575.595368
 Sum of electronic and thermal Energies=              -575.581721
 Sum of electronic and thermal Enthalpies=            -575.580776
 Sum of electronic and thermal Free Energies=         -575.636443

                     E (Thermal)             CV                S
                      KCal/Mol        Cal/Mol-Kelvin    Cal/Mol-Kelvin
 Total                  131.526             48.554            117.161
 Electronic               0.000              0.000              0.000
 Translational            0.889              2.981             41.266
 Rotational               0.889              2.981             31.299
 Vibrational            129.748             42.592             44.596
 Vibration     1          0.594              1.983              5.613
 Vibration     2          0.595              1.977              4.806
 Vibration     3          0.597              1.971              4.307
 Vibration     4          0.599              1.964              3.937
 Vibration     5          0.613              1.918              2.870
 Vibration     6          0.624              1.882              2.463
 Vibration     7          0.626              1.876              2.403
 Vibration     8          0.638              1.840              2.131
 Vibration     9          0.641              1.828              2.060
 Vibration    10          0.660              1.771              1.764
 Vibration    11          0.682              1.706              1.517
 Vibration    12          0.704              1.642              1.327
 Vibration    13          0.720              1.596              1.212
 Vibration    14          0.743              1.531              1.073
 Vibration    15          0.749              1.515              1.044
 Vibration    16          0.768              1.466              0.956
 Vibration    17          0.792              1.403              0.856
 Vibration    18          0.847              1.269              0.680
 Vibration    19          0.897              1.157              0.561
 Vibration    20          0.972              1.006              0.429

 Optimization completed.
    -- Stationary point found.

 1\1\GINC-NODE363\Freq\RB3LYP\6-31G(d)\C9H12O3\VSC10255\09-Dec-2020\0\\
 #N Geom=AllCheck Guess=TCheck SCRF=Check GenChk RB3LYP/6-31G(d) Freq\\
 CID_70490234_JID_2758_neutraal\\0,1\C,0.9737501928,-1.2980070631,-0.13
 59751966\C,0.1474993262,-0.027448163,-0.208383377\C,-1.1818807567,-0.0
 782574136,-0.896228\C,-1.153177638,0.1056178763,0.6124539368\C,-1.6511
 006269,-0.9155544799,1.560460356\O,-1.9726405559,-0.6881582941,2.70889
 84554\O,-1.7366384067,-2.1705616639,1.0333864033\C,-1.6998228307,1.038
 6783884,-1.793127614\C,-1.0774463893,1.0209103681,-3.1193491345\C,-0.5

 Normal termination of Gaussian 16 at Wed Dec  9 18:04:36 2020.

 ----------------------------------------------------------------------
 # B3LYP/6-311++G(d,p) empiricaldispersion=gd3bj scf=xqc pop=npa geom=c
 heck
 ----------------------------------------------------------------------

 --------------------------------------
 CID_70490234_JID_2758_Energie_neutraal
 --------------------------------------
 Structure from the checkpoint file:  "JID_2758.chk"
 Charge =  0 Multiplicity = 1

 SCF Done:  E(RB3LYP) =  -575.976650958     A.U. after   15 cycles
 Normal termination of Gaussian 16 at Wed Dec  9 18:06:32 2020.

 ----------------------------------------------------------------------
 # B3LYP/6-311++G(d,p) empiricaldispersion=gd3bj scf=xqc pop=npa geom=c
 heck
 ----------------------------------------------------------------------

 ------------------------------------
 CID_70490234_JID_2758_Energie_kation
 ------------------------------------
 Structure from the checkpoint file:  "JID_2758.chk"
 Charge =  1 Multiplicity = 2

 SCF Done:  E(UB3LYP) =  -575.653285976     A.U. after   27 cycles
 Normal termination of Gaussian 16 at Wed Dec  9 18:11:47 2020.
 Gaussian 16:  ES64L-G16RevA.03 25-Dec-2016

 -----------------------------------
 CID_70490234_JID_2758_Energie_anion
 -----------------------------------
 Structure from the checkpoint file:  "JID_2758.chk"
 Charge = -1 Multiplicity = 2

                         Standard orientation:
 ---------------------------------------------------------------------
 Center     Atomic      Atomic             Coordinates (Angstroms)
 Number     Number       Type             X           Y           Z
 ---------------------------------------------------------------------
      1          6           0        0.768298    1.718465   -1.144394
      2          6           0        0.419641    0.939203    0.109976
      3          6           0        0.017746   -0.496723   -0.029882
      4          6           0        1.354697   -0.178411    0.619729
      5          6           0        2.654894   -0.525383    0.004478
      6          8           0        3.700818   -0.617005    0.614114
      7          8           0        2.592599   -0.753194   -1.338797
      8          6           0       -1.097839   -1.133826    0.788536
      9          6           0       -2.428006   -0.772862    0.291655
     10          6           0       -3.504852   -0.461376   -0.155675
     11          8           0       -4.676209   -0.041237   -0.597366
     12          6           0       -0.222277    1.801104    1.183636
     13          1           0        1.215604    1.084853   -1.911695
     14          1           0       -0.141656    2.170664   -1.557158
     15          1           0        1.470814    2.529622   -0.916438
     16          1           0        0.091776   -0.889091   -1.040906
     17          1           0        1.409099   -0.257792    1.701219
     18          1           0        3.509417   -0.948924   -1.607349
     19          1           0       -0.975411   -2.225415    0.766577
     20          1           0       -1.004761   -0.848804    1.843749
     21          1           0       -5.120461   -0.761903   -1.075396
     22          1           0       -1.185577    2.187849    0.831468
     23          1           0       -0.402526    1.253909    2.112919
     24          1           0        0.422203    2.655380    1.421053
 ---------------------------------------------------------------------

 SCF Done:  E(UB3LYP) =  -575.969779016     A.U. after   30 cycles

 The electronic state is 2-A.
 Alpha  occ. eigenvalues --  -19.07619 -19.06613 -19.02073 -10.21522 -10.11046
 Alpha  occ. eigenvalues --  -10.10674 -10.09991 -10.09985 -10.09483 -10.07739
 Alpha  occ. eigenvalues --  -10.07070 -10.04837  -1.01638  -0.97237  -0.92611
 Alpha  occ. eigenvalues --   -0.79756  -0.68214  -0.65136  -0.61156  -0.60296
 Alpha  occ. eigenvalues --   -0.56836  -0.50042  -0.48890  -0.45345  -0.41110
 Alpha  occ. eigenvalues --   -0.40015  -0.37733  -0.37089  -0.35740  -0.35485
 Alpha  occ. eigenvalues --   -0.34025  -0.33156  -0.32129  -0.30819  -0.30317
 Alpha  occ. eigenvalues --   -0.29941  -0.29556  -0.28095  -0.25435  -0.23638
 Alpha  occ. eigenvalues --   -0.21806  -0.19817  -0.17900  -0.14868  -0.12962
 Alpha  occ. eigenvalues --    0.04217
 Alpha virt. eigenvalues --    0.05707   0.07146   0.08025   0.08213   0.09346
 Alpha virt. eigenvalues --    0.10106   0.10239   0.11391   0.11587   0.13226
 Alpha virt. eigenvalues --    0.13706   0.13857   0.14445   0.15070   0.15647

  Beta  occ. eigenvalues --  -19.07578 -19.06487 -19.02060 -10.21518 -10.11044
  Beta  occ. eigenvalues --  -10.10661 -10.09981 -10.09977 -10.09477 -10.07725
  Beta  occ. eigenvalues --  -10.07054 -10.04825  -1.01583  -0.96961  -0.92565
  Beta  occ. eigenvalues --   -0.79745  -0.68189  -0.65107  -0.61079  -0.60254
  Beta  occ. eigenvalues --   -0.56776  -0.49974  -0.48668  -0.45309  -0.41079
  Beta  occ. eigenvalues --   -0.39990  -0.37710  -0.37061  -0.35712  -0.35455
  Beta  occ. eigenvalues --   -0.33907  -0.33131  -0.32107  -0.30795  -0.30287
  Beta  occ. eigenvalues --   -0.29861  -0.29518  -0.28064  -0.25414  -0.23601
  Beta  occ. eigenvalues --   -0.21786  -0.19792  -0.17870  -0.14807  -0.12911
  Beta virt. eigenvalues --    0.06436   0.07541   0.07976   0.08058   0.08623
  Beta virt. eigenvalues --    0.09657   0.10234   0.10416   0.11406   0.11677
  Beta virt. eigenvalues --    0.13450   0.13733   0.13893   0.14491   0.15017

 Mulliken charges and spin densities:
               1          2
     1  C   -0.001652  -0.518265
     2  C    0.006957   0.502116
     3  C    0.235091  -0.449730
     4  C   -0.308251   0.233553
     5  C    0.033611  -0.295568
     6  O   -0.302808   0.003199
     7  O   -0.219718   0.018435
     8  C   -1.319627   0.527033
     9  C    2.164522  -1.590476
    10  C   -0.047912  -0.176991
    11  O   -0.317001   0.011463
    12  C   -0.250785  -0.323009
    13  H    0.025599   0.145503
    14  H    0.035168   0.116181
    15  H   -0.017160   0.150747
    16  H    0.143041   0.134561
    17  H    0.130472   0.137259
    18  H   -0.217696   0.518804
    19  H   -0.198889   0.376445
    20  H    0.191235  -0.057666
    21  H   -0.962956   1.294753
    22  H    0.014924   0.160678
    23  H    0.053855   0.072741
    24  H    0.129982   0.008236
 Sum of Mulliken charges =  -1.00000   1.00000

 Dipole moment (field-independent basis, Debye):
    X=              7.3705    Y=              3.0480    Z=              4.1706  Tot=              9.0004
 Quadrupole moment (field-independent basis, Debye-Ang):
   XX=           -187.6988   YY=            -96.1597   ZZ=            -98.6522
   XY=             -7.4226   XZ=            -12.9941   YZ=             -3.8720

 Summary of Natural Population Analysis:

                                       Natural Population
                Natural  -----------------------------------------------
    Atom  No    Charge         Core      Valence    Rydberg      Total
 -----------------------------------------------------------------------
      C    1   -0.28538      0.99961     2.28071    0.00506     3.28538
      C    2   -0.02113      0.99954     2.00962    0.01197     3.02113
      C    3   -0.08882      0.99950     2.07834    0.01098     3.08882
      C    4   -0.16241      0.99948     2.15245    0.01048     3.16241
      C    5    0.40402      0.99965     1.57140    0.02493     2.59598
      O    6   -0.31167      0.99987     3.30597    0.00583     4.31167
      O    7   -0.34897      0.99988     3.34235    0.00673     4.34897
      C    8   -0.21971      0.99958     2.21038    0.00975     3.21971
      C    9   -0.09195      0.99914     2.08404    0.00877     3.09195
      C   10    0.16949      0.99892     1.82140    0.01020     2.83051
      O   11   -0.32631      0.99986     3.31838    0.00807     4.32631
      C   12   -0.28294      0.99962     2.27831    0.00501     3.28294
      H   13    0.11248      0.00000     0.38618    0.00133     0.38752
      H   14    0.10377      0.00000     0.39518    0.00105     0.39623
      H   15    0.09651      0.00000     0.40249    0.00100     0.40349
      H   16    0.11487      0.00000     0.38346    0.00167     0.38513
      H   17    0.11227      0.00000     0.38638    0.00134     0.38773
      H   18    0.24323      0.00000     0.24770    0.00907     0.25677
      H   19    0.11230      0.00000     0.38663    0.00107     0.38770
      H   20    0.10471      0.00000     0.39395    0.00134     0.39529
      H   21    0.25844      0.00000     0.16361    0.07796     0.24156
      H   22    0.10848      0.00000     0.39052    0.00100     0.39152
      H   23    0.09991      0.00000     0.39918    0.00091     0.40009
      H   24    0.09882      0.00000     0.40027    0.00091     0.40118
 =======================================================================
   * Total *   -0.00000     11.99466    32.78890    0.21644    45.00000

 Normal termination of Gaussian 16 at Wed Dec  9 18:17:29 2020.
