 Gaussian 16, Revision A.03,

 -----------------------------------------------------------
 # opt freq B3LYP/6-31G(d) empiricaldispersion=gd3bj scf=xqc
 -----------------------------------------------------------

 -------------------------------
 CID_148241347_JID_9205_neutraal
 -------------------------------
 Symbolic Z-matrix:
 Charge =  0 Multiplicity = 1

 SCF Done:  E(RB3LYP) =  -785.692299839     A.U. after   14 cycles
 SCF Done:  E(RB3LYP) =  -785.698009859     A.U. after   12 cycles
 SCF Done:  E(RB3LYP) =  -785.698426660     A.U. after   11 cycles
 SCF Done:  E(RB3LYP) =  -785.698457845     A.U. after   10 cycles
 SCF Done:  E(RB3LYP) =  -785.698466204     A.U. after    9 cycles
 SCF Done:  E(RB3LYP) =  -785.698467443     A.U. after    8 cycles
 SCF Done:  E(RB3LYP) =  -785.698467768     A.U. after    7 cycles
 SCF Done:  E(RB3LYP) =  -785.698467955     A.U. after    7 cycles
 SCF Done:  E(RB3LYP) =  -785.698468009     A.U. after    6 cycles
 Optimization completed.
    -- Stationary point found.
 Normal termination of Gaussian 16 at Sun Dec 13 12:28:39 2020.

 --------------------------------------------------------------------
 #N Geom=AllCheck Guess=TCheck SCRF=Check GenChk RB3LYP/6-31G(d) Freq
 --------------------------------------------------------------------

 Structure from the checkpoint file:  "JID_9205.chk"
 -------------------------------
 CID_148241347_JID_9205_neutraal
 -------------------------------
 Charge =  0 Multiplicity = 1

 SCF Done:  E(RB3LYP) =  -785.698468009     A.U. after    1 cycles

  Exact polarizability: 343.918   8.193 187.107  -0.001  -0.000  69.543
 Approx polarizability: 493.758  25.120 361.630  -0.003   0.000 111.090

                      1                      2                      3
                      A                      A                      A
 Frequencies --     42.8466                87.5418                95.1632
 Red. masses --      4.2848                 3.7136                 4.2346
 Frc consts  --      0.0046                 0.0168                 0.0226
 IR Inten    --      0.4664                 2.7334                 0.0290

                      4                      5                      6
                      A                      A                      A
 Frequencies --    118.2384               149.4729               200.2775
 Red. masses --      5.1387                 4.0054                 4.2811
 Frc consts  --      0.0423                 0.0527                 0.1012
 IR Inten    --      0.1596                 2.9427                 0.3767

                      7                      8                      9
                      A                      A                      A
 Frequencies --    231.2410               233.5663               248.5799
 Red. masses --      4.1197                 2.0532                 2.2170
 Frc consts  --      0.1298                 0.0660                 0.0807
 IR Inten    --      1.9030                 0.1893                 2.1686

                     10                     11                     12
                      A                      A                      A
 Frequencies --    275.7867               286.7022               350.7288
 Red. masses --      1.6579                 6.1250                 4.3015
 Frc consts  --      0.0743                 0.2966                 0.3118
 IR Inten    --      1.2654                 1.6045                 0.4280

                     13                     14                     15
                      A                      A                      A
 Frequencies --    367.8772               421.9549               438.4117
 Red. masses --      4.4610                 3.2972                 2.8929
 Frc consts  --      0.3557                 0.3459                 0.3276
 IR Inten    --      0.5050                 5.5944                 2.2709

                     16                     17                     18
                      A                      A                      A
 Frequencies --    462.8311               503.5483               523.4825
 Red. masses --      4.9532                 6.9346                 4.0927
 Frc consts  --      0.6251                 1.0360                 0.6608
 IR Inten    --      0.7183                 1.7107                 0.0737

                     19                     20                     21
                      A                      A                      A
 Frequencies --    536.2024               546.2584               567.0844
 Red. masses --      3.2328                 5.0309                 4.7924
 Frc consts  --      0.5476                 0.8845                 0.9080
 IR Inten    --      5.3748                 1.3297                19.4625

                     22                     23                     24
                      A                      A                      A
 Frequencies --    598.4492               604.7439               652.7717
 Red. masses --      3.1480                 6.2040                 5.7514
 Frc consts  --      0.6643                 1.3368                 1.4439
 IR Inten    --      1.2394                 0.0954                15.4201

                     25                     26                     27
                      A                      A                      A
 Frequencies --    677.9730               709.9444               742.9344
 Red. masses --      3.2108                 6.8899                 3.0592
 Frc consts  --      0.8695                 2.0460                 0.9949
 IR Inten    --      3.4523                 1.5464                 0.0157

                     28                     29                     30
                      A                      A                      A
 Frequencies --    750.0610               787.6938               797.2003
 Red. masses --      5.4581                 5.7649                 3.0013
 Frc consts  --      1.8092                 2.1075                 1.1238
 IR Inten    --      2.1321                 4.1397                 5.7242

                     31                     32                     33
                      A                      A                      A
 Frequencies --    814.2265               826.3019               864.4524
 Red. masses --      1.5784                 1.6308                 1.5324
 Frc consts  --      0.6166                 0.6560                 0.6747
 IR Inten    --      7.7660                20.2058                39.7739

                     34                     35                     36
                      A                      A                      A
 Frequencies --    877.1713               879.4648               900.9473
 Red. masses --      5.0104                 1.4173                 4.7785
 Frc consts  --      2.2714                 0.6459                 2.2853
 IR Inten    --      7.8834                12.9625                 0.7525

                     37                     38                     39
                      A                      A                      A
 Frequencies --    927.0578               942.5461               942.6702
 Red. masses --      1.3206                 1.4466                 4.0034
 Frc consts  --      0.6687                 0.7572                 2.0960
 IR Inten    --      0.1710                 1.3609                 4.3608

                     40                     41                     42
                      A                      A                      A
 Frequencies --    959.7331               970.8343               978.2377
 Red. masses --      1.3531                 1.8117                 1.4967
 Frc consts  --      0.7343                 1.0061                 0.8439
 IR Inten    --      0.1867                 0.8814                 0.0021

                     43                     44                     45
                      A                      A                      A
 Frequencies --   1037.5594              1075.4319              1090.7689
 Red. masses --      5.0334                 2.8179                 2.3538
 Frc consts  --      3.1926                 1.9202                 1.6500
 IR Inten    --      1.1984                37.7222                 8.2081

                     46                     47                     48
                      A                      A                      A
 Frequencies --   1115.5341              1163.7875              1170.1082
 Red. masses --      3.5103                 2.2369                 1.1302
 Frc consts  --      2.5737                 1.7850                 0.9117
 IR Inten    --     18.6260                98.1375                 0.2090

                     49                     50                     51
                      A                      A                      A
 Frequencies --   1178.3575              1186.4853              1192.6963
 Red. masses --      1.4899                 1.2710                 1.4721
 Frc consts  --      1.2189                 1.0542                 1.2338
 IR Inten    --     11.7921                 0.8304                 6.7121

                     52                     53                     54
                      A                      A                      A
 Frequencies --   1216.7975              1223.4864              1242.4294
 Red. masses --      1.9963                 1.3931                 1.6573
 Frc consts  --      1.7415                 1.2286                 1.5073
 IR Inten    --      1.9101                 1.2664                 9.1806

                     55                     56                     57
                      A                      A                      A
 Frequencies --   1264.6371              1286.1077              1308.2267
 Red. masses --      1.9215                 2.0253                 4.0186
 Frc consts  --      1.8106                 1.9738                 4.0522
 IR Inten    --     10.5860                91.5899               130.8414

                     58                     59                     60
                      A                      A                      A
 Frequencies --   1314.4506              1335.6425              1370.7503
 Red. masses --      2.1291                 1.9498                 4.5058
 Frc consts  --      2.1673                 2.0494                 4.9881
 IR Inten    --      7.4241               105.2002                 0.9197

                     61                     62                     63
                      A                      A                      A
 Frequencies --   1391.7640              1411.4980              1424.7576
 Red. masses --      4.5855                 4.6838                 2.0984
 Frc consts  --      5.2332                 5.4980                 2.5097
 IR Inten    --     93.0865                52.8938                11.9174

                     64                     65                     66
                      A                      A                      A
 Frequencies --   1478.6765              1481.4526              1491.4272
 Red. masses --      1.1484                 3.7849                 1.9484
 Frc consts  --      1.4794                 4.8942                 2.5535
 IR Inten    --      9.3111                 4.7407                12.9889

                     67                     68                     69
                      A                      A                      A
 Frequencies --   1495.4108              1504.0808              1521.0249
 Red. masses --      2.0112                 1.9109                 1.0477
 Frc consts  --      2.6499                 2.5470                 1.4282
 IR Inten    --     60.4538                 2.4486                 5.5658

                     70                     71                     72
                      A                      A                      A
 Frequencies --   1530.2725              1539.4312              1559.0874
 Red. masses --      1.7686                 1.3070                 4.2775
 Frc consts  --      2.4401                 1.8250                 6.1260
 IR Inten    --    121.8273                 0.5096                 8.7901

                     73                     74                     75
                      A                      A                      A
 Frequencies --   1610.7893              1634.4628              1647.3082
 Red. masses --      6.9848                 6.3468                 5.7885
 Frc consts  --     10.6778                 9.9897                 9.2547
 IR Inten    --     10.8456                81.0085                 4.3401

                     76                     77                     78
                      A                      A                      A
 Frequencies --   1671.5289              1683.2077              3025.7827
 Red. masses --      6.7868                 6.9091                 1.0348
 Frc consts  --     11.1723                11.5331                 5.5817
 IR Inten    --      7.4685                88.6741                77.9784

                     79                     80                     81
                      A                      A                      A
 Frequencies --   3042.9291              3071.5002              3084.5330
 Red. masses --      1.0601                 1.1018                 1.1066
 Frc consts  --      5.7832                 6.1242                 6.2035
 IR Inten    --      9.0288                 8.7508                43.9342

                     82                     83                     84
                      A                      A                      A
 Frequencies --   3155.3251              3159.8183              3180.5302
 Red. masses --      1.0891                 1.0997                 1.0868
 Frc consts  --      6.3888                 6.4693                 6.4771
 IR Inten    --     21.8980                31.0068                 9.4144

                     85                     86                     87
                      A                      A                      A
 Frequencies --   3184.1941              3189.9641              3199.4420
 Red. masses --      1.0867                 1.0894                 1.0962
 Frc consts  --      6.4916                 6.5316                 6.6113
 IR Inten    --      3.4860                 7.9608                37.0744

                     88                     89                     90
                      A                      A                      A
 Frequencies --   3202.4672              3207.4257              3232.0051
 Red. masses --      1.0951                 1.0913                 1.0910
 Frc consts  --      6.6175                 6.6144                 6.7147
 IR Inten    --     39.6151                 5.8804                18.1226

 - Thermochemistry -
 -------------------
 Temperature   298.150 Kelvin.  Pressure   1.00000 Atm.
 Atom     1 has atomic number  6 and mass  12.00000

 Molecular mass:   247.09971 amu.
 Principal axes and moments of inertia in atomic units:
                           1         2         3
     Eigenvalues --  1341.14817********************
           X            1.00000  -0.00016   0.00000
           Y            0.00016   1.00000  -0.00000
           Z           -0.00000   0.00000   1.00000
 This molecule is an asymmetric top.
 Rotational symmetry number  1.
 Warning -- assumption of classical behavior for rotation
           may cause significant error
 Rotational temperatures (Kelvin)      0.06458     0.00862     0.00762
 Rotational constants (GHZ):           1.34567     0.17962     0.15878
 Zero-point vibrational energy     673967.5 (Joules/Mol)
                                  161.08210 (Kcal/Mol)
 Warning -- explicit consideration of  23 degrees of freedom as
           vibrations may cause significant error
 Vibrational temperatures:     61.65   125.95   136.92   170.12   215.06
          (Kelvin)            288.15   332.70   336.05   357.65   396.80
                              412.50   504.62   529.29   607.10   630.78
                              665.91   724.49   753.17   771.48   785.94
                              815.91   861.03   870.09   939.19   975.45
                             1021.45  1068.92  1079.17  1133.32  1146.99
                             1171.49  1188.86  1243.75  1262.05  1265.35
                             1296.26  1333.83  1356.11  1356.29  1380.84
                             1396.81  1407.47  1492.82  1547.31  1569.37
                             1605.00  1674.43  1683.52  1695.39  1707.09
                             1716.02  1750.70  1760.32  1787.58  1819.53
                             1850.42  1882.25  1891.20  1921.69  1972.20
                             2002.44  2030.83  2049.91  2127.49  2131.48
                             2145.83  2151.56  2164.04  2188.42  2201.72
                             2214.90  2243.18  2317.57  2351.63  2370.11
                             2404.96  2421.76  4353.43  4378.10  4419.20
                             4437.95  4539.81  4546.27  4576.07  4581.35
                             4589.65  4603.28  4607.64  4614.77  4650.13

 Zero-point correction=                           0.256701 (Hartree/Particle)
 Thermal correction to Energy=                    0.270771
 Thermal correction to Enthalpy=                  0.271715
 Thermal correction to Gibbs Free Energy=         0.215789
 Sum of electronic and zero-point Energies=           -785.441767
 Sum of electronic and thermal Energies=              -785.427697
 Sum of electronic and thermal Enthalpies=            -785.426753
 Sum of electronic and thermal Free Energies=         -785.482679

                     E (Thermal)             CV                S
                      KCal/Mol        Cal/Mol-Kelvin    Cal/Mol-Kelvin
 Total                  169.911             57.707            117.705
 Electronic               0.000              0.000              0.000
 Translational            0.889              2.981             42.415
 Rotational               0.889              2.981             33.393
 Vibrational            168.134             51.745             41.898
 Vibration     1          0.595              1.980              5.123
 Vibration     2          0.601              1.958              3.714
 Vibration     3          0.603              1.953              3.551
 Vibration     4          0.608              1.934              3.129
 Vibration     5          0.618              1.903              2.679
 Vibration     6          0.638              1.839              2.131
 Vibration     7          0.653              1.793              1.869
 Vibration     8          0.654              1.790              1.851
 Vibration     9          0.662              1.765              1.741
 Vibration    10          0.677              1.718              1.560
 Vibration    11          0.684              1.698              1.493
 Vibration    12          0.728              1.574              1.163
 Vibration    13          0.740              1.538              1.089
 Vibration    14          0.784              1.423              0.885
 Vibration    15          0.799              1.386              0.832
 Vibration    16          0.820              1.332              0.758
 Vibration    17          0.859              1.242              0.649
 Vibration    18          0.878              1.198              0.602
 Vibration    19          0.891              1.170              0.574
 Vibration    20          0.901              1.148              0.552
 Vibration    21          0.923              1.102              0.510
 Vibration    22          0.956              1.035              0.452
 Vibration    23          0.963              1.022              0.442

 Optimization completed.
    -- Stationary point found.
 Normal termination of Gaussian 16 at Sun Dec 13 12:43:22 2020.

 ----------------------------------------------------------------------
 # B3LYP/6-311++G(d,p) empiricaldispersion=gd3bj scf=xqc pop=npa geom=c
 heck
 ----------------------------------------------------------------------

 ---------------------------------------
 CID_148241347_JID_9205_Energie_neutraal
 ---------------------------------------
 Structure from the checkpoint file:  "JID_9205.chk"
 Charge =  0 Multiplicity = 1

 SCF Done:  E(RB3LYP) =  -785.891142068     A.U. after   14 cycles
 Normal termination of Gaussian 16 at Sun Dec 13 12:49:25 2020.

 ----------------------------------------------------------------------
 # B3LYP/6-311++G(d,p) empiricaldispersion=gd3bj scf=xqc pop=npa geom=c
 heck
 ----------------------------------------------------------------------

 -------------------------------------
 CID_148241347_JID_9205_Energie_kation
 -------------------------------------
 Structure from the checkpoint file:  "JID_9205.chk"
 Charge =  1 Multiplicity = 2

 SCF Done:  E(UB3LYP) =  -785.627724444     A.U. after   21 cycles
 Normal termination of Gaussian 16 at Sun Dec 13 13:02:17 2020.
 Gaussian 16:  ES64L-G16RevA.03 25-Dec-2016

 ----------------------------------------------------------------------
 # B3LYP/6-311++G(d,p) empiricaldispersion=gd3bj scf=xqc pop=npa geom=c
 heck
 ----------------------------------------------------------------------

 ------------------------------------
 CID_148241347_JID_9205_Energie_anion
 ------------------------------------
 Structure from the checkpoint file:  "JID_9205.chk"
 Charge = -1 Multiplicity = 2

                         Standard orientation:
 ---------------------------------------------------------------------
 Center     Atomic      Atomic             Coordinates (Angstroms)
 Number     Number       Type             X           Y           Z
 ---------------------------------------------------------------------
      1          6           0        6.059919   -0.093972    0.000196
      2          8           0        4.922890   -0.940393   -0.000094
      3          6           0        3.688373   -0.358555   -0.000053
      4          6           0        2.603960   -1.254352   -0.000045
      5          6           0        1.318992   -0.747588   -0.000038
      6          6           0        1.087097    0.647038   -0.000033
      7          6           0        2.162967    1.528590   -0.000042
      8          6           0        3.467950    1.026137   -0.000056
      9          6           0       -0.360223    0.875309   -0.000020
     10          6           0       -1.013967   -0.354013   -0.000014
     11          6           0       -0.005922   -1.484362   -0.000016
     12          6           0       -2.424183   -0.419343    0.000003
     13          6           0       -3.165599    0.806117    0.000014
     14          6           0       -2.470072    2.046489    0.000010
     15          6           0       -1.094367    2.085563   -0.000006
     16          6           0       -4.578231    0.705112    0.000029
     17          6           0       -5.171232   -0.536524    0.000033
     18          7           0       -4.478139   -1.708681    0.000025
     19          6           0       -3.163000   -1.634293    0.000010
     20          1           0        6.926844   -0.756702    0.000340
     21          1           0        6.088169    0.542106    0.894718
     22          1           0        6.088562    0.542206   -0.894245
     23          1           0        2.809756   -2.320388   -0.000047
     24          1           0        2.004346    2.603606   -0.000046
     25          1           0        4.301651    1.717683   -0.000081
     26          1           0       -0.113515   -2.133205   -0.879504
     27          1           0       -0.113493   -2.133155    0.879515
     28          1           0       -3.046602    2.967650    0.000020
     29          1           0       -0.573114    3.038921   -0.000008
     30          1           0       -5.185208    1.606529    0.000037
     31          1           0       -6.254302   -0.633814    0.000045
     32          1           0       -2.624005   -2.581653    0.000000
 ---------------------------------------------------------------------

 SCF Done:  E(UB3LYP) =  -785.901751649     A.U. after   24 cycles

 The electronic state is 2-A.
 Alpha  occ. eigenvalues --  -19.06069 -14.14719 -10.14618 -10.12462 -10.06697
 Alpha  occ. eigenvalues --  -10.06419 -10.06078 -10.05976 -10.05358 -10.05260
 Alpha  occ. eigenvalues --  -10.04969 -10.04358 -10.03814 -10.03537 -10.03272
 Alpha  occ. eigenvalues --  -10.03195 -10.02191 -10.02141 -10.02005  -0.97733
 Alpha  occ. eigenvalues --   -0.78503  -0.76123  -0.71782  -0.67952  -0.65983
 Alpha  occ. eigenvalues --   -0.63277  -0.62478  -0.60789  -0.58122  -0.55878
 Alpha  occ. eigenvalues --   -0.51257  -0.49398  -0.47819  -0.46279  -0.44680
 Alpha  occ. eigenvalues --   -0.42408  -0.39471  -0.38745  -0.38675  -0.37082
 Alpha  occ. eigenvalues --   -0.34863  -0.33700  -0.33059  -0.32165  -0.32090
 Alpha  occ. eigenvalues --   -0.31020  -0.29674  -0.29031  -0.27717  -0.26468
 Alpha  occ. eigenvalues --   -0.25964  -0.25727  -0.25575  -0.24114  -0.22912
 Alpha  occ. eigenvalues --   -0.21987  -0.21304  -0.20393  -0.19574  -0.15621
 Alpha  occ. eigenvalues --   -0.14399  -0.13279  -0.10784  -0.10657  -0.07495
 Alpha  occ. eigenvalues --    0.04292
 Alpha virt. eigenvalues --    0.05748   0.08183   0.08459   0.09045   0.09479
 Alpha virt. eigenvalues --    0.09708   0.09955   0.10130   0.11128   0.11278
 Alpha virt. eigenvalues --    0.12363   0.12809   0.12977   0.13741   0.13822

  Beta  occ. eigenvalues --  -19.06057 -14.14558 -10.14619 -10.12422 -10.06688
  Beta  occ. eigenvalues --  -10.06433 -10.06091 -10.05887 -10.05349 -10.05306
  Beta  occ. eigenvalues --  -10.04952 -10.04418 -10.03631 -10.03476 -10.03207
  Beta  occ. eigenvalues --  -10.03160 -10.01947 -10.01766 -10.01742  -0.97703
  Beta  occ. eigenvalues --   -0.78083  -0.75960  -0.71530  -0.67759  -0.65933
  Beta  occ. eigenvalues --   -0.63035  -0.62134  -0.60591  -0.57950  -0.55641
  Beta  occ. eigenvalues --   -0.51166  -0.48828  -0.47710  -0.46184  -0.44384
  Beta  occ. eigenvalues --   -0.42307  -0.39390  -0.38713  -0.38494  -0.36841
  Beta  occ. eigenvalues --   -0.34703  -0.33633  -0.32995  -0.31988  -0.31697
  Beta  occ. eigenvalues --   -0.30960  -0.29488  -0.28900  -0.27563  -0.26346
  Beta  occ. eigenvalues --   -0.25786  -0.25470  -0.24910  -0.24024  -0.22600
  Beta  occ. eigenvalues --   -0.21924  -0.21116  -0.19497  -0.19469  -0.14716
  Beta  occ. eigenvalues --   -0.14148  -0.12440  -0.10431  -0.09922  -0.06076
  Beta virt. eigenvalues --    0.05736   0.08161   0.08510   0.09002   0.09326
  Beta virt. eigenvalues --    0.09454   0.09721   0.09942   0.11115   0.11199
  Beta virt. eigenvalues --    0.11256   0.12333   0.12943   0.12959   0.13697

 Mulliken charges and spin densities:
               1          2
     1  C   -0.325596  -0.000118
     2  O   -0.172600   0.001362
     3  C   -0.852370   0.024576
     4  C   -0.441451  -0.009855
     5  C   -0.019210   0.043650
     6  C    0.754871   0.030755
     7  C   -0.334286  -0.015793
     8  C    0.005323   0.006184
     9  C    0.797197   0.038495
    10  C    0.084748   0.258823
    11  C   -0.376228  -0.064050
    12  C   -0.390859  -0.067813
    13  C    0.512166  -0.064581
    14  C   -0.588904   0.179041
    15  C   -0.470772   0.059435
    16  C    0.390520   0.218501
    17  C   -0.581398  -0.000399
    18  N   -0.059055   0.068394
    19  C   -0.487230   0.233160
    20  H    0.153011  -0.000017
    21  H    0.134505   0.000473
    22  H    0.134521   0.000448
    23  H    0.152643   0.000632
    24  H    0.089069   0.000688
    25  H    0.163017  -0.001001
    26  H    0.107266   0.059618
    27  H    0.107248   0.059644
    28  H    0.090590  -0.015019
    29  H    0.045807  -0.007852
    30  H    0.102316  -0.013568
    31  H    0.123475  -0.001617
    32  H    0.151666  -0.022196
 Sum of Mulliken charges =  -1.00000   1.00000

 Dipole moment (field-independent basis, Debye):
    X=              9.8072    Y=              2.6737    Z=              0.0002  Tot=             10.1651
 Quadrupole moment (field-independent basis, Debye-Ang):
   XX=           -168.7930   YY=           -126.5146   ZZ=           -122.7647
   XY=             -7.9739   XZ=              0.0017   YZ=             -0.0000

 Summary of Natural Population Analysis:

                                       Natural Population
                Natural  -----------------------------------------------
    Atom  No    Charge         Core      Valence    Rydberg      Total
 -----------------------------------------------------------------------
      C    1   -0.10050      0.99962     2.09256    0.00832     3.10050
      O    2   -0.27780      0.99985     3.26759    0.01036     4.27780
      C    3    0.15433      0.99941     1.83464    0.01162     2.84567
      C    4   -0.12806      0.99947     2.11992    0.00866     3.12806
      C    5    0.02604      0.99950     1.96664    0.00781     2.97396
      C    6   -0.02610      0.99946     2.01814    0.00850     3.02610
      C    7   -0.10571      0.99956     2.09680    0.00935     3.10571
      C    8   -0.14923      0.99945     2.14118    0.00860     3.14923
      C    9   -0.03126      0.99937     2.02235    0.00955     3.03126
      C   10    0.08250      0.99938     1.90792    0.01020     2.91750
      C   11   -0.21148      0.99954     2.20463    0.00730     3.21148
      C   12   -0.06259      0.99939     2.05238    0.01082     3.06259
      C   13   -0.02728      0.99951     2.01924    0.00853     3.02728
      C   14   -0.06235      0.99956     2.05393    0.00885     3.06235
      C   15   -0.07444      0.99945     2.06670    0.00830     3.07444
      C   16   -0.08139      0.99952     2.07331    0.00856     3.08139
      C   17    0.00678      0.99958     1.97838    0.01526     2.99322
      N   18   -0.22754      0.99971     2.71518    0.01265     3.72754
      C   19    0.09945      0.99959     1.88696    0.01400     2.90055
      H   20    0.08832      0.00000     0.41088    0.00080     0.41168
      H   21    0.08071      0.00000     0.41758    0.00171     0.41929
      H   22    0.08071      0.00000     0.41758    0.00171     0.41929
      H   23    0.10120      0.00000     0.39737    0.00143     0.39880
      H   24    0.10017      0.00000     0.39907    0.00075     0.39983
      H   25    0.09776      0.00000     0.40149    0.00076     0.40224
      H   26    0.11600      0.00000     0.38338    0.00062     0.38400
      H   27    0.11618      0.00000     0.38331    0.00051     0.38382
      H   28    0.08615      0.00000     0.41208    0.00177     0.41385
      H   29    0.08853      0.00000     0.40961    0.00186     0.41147
      H   30    0.08837      0.00000     0.40982    0.00181     0.41163
      H   31    0.07782      0.00000     0.42087    0.00132     0.42218
      H   32    0.07644      0.00000     0.42206    0.00151     0.42356
 =======================================================================
   * Total *    0.00173     18.99093    45.80354    0.20380    64.99827

 Normal termination of Gaussian 16 at Sun Dec 13 13:17:21 2020.
