 Gaussian 16, Revision A.03,

 -----------------------------------------------------------
 # opt freq B3LYP/6-31G(d) empiricaldispersion=gd3bj scf=xqc
 -----------------------------------------------------------

 ------------------------------
 CID_23238839_JID_2648_neutraal
 ------------------------------
 Symbolic Z-matrix:
 Charge =  0 Multiplicity = 1

 SCF Done:  E(RB3LYP) =  -506.435096813     A.U. after   13 cycles
 SCF Done:  E(RB3LYP) =  -506.437523225     A.U. after   12 cycles
 SCF Done:  E(RB3LYP) =  -506.437794496     A.U. after   11 cycles
 SCF Done:  E(RB3LYP) =  -506.438066129     A.U. after   11 cycles
 SCF Done:  E(RB3LYP) =  -506.438143565     A.U. after   11 cycles
 SCF Done:  E(RB3LYP) =  -506.438183124     A.U. after   10 cycles
 SCF Done:  E(RB3LYP) =  -506.438192517     A.U. after    9 cycles
 SCF Done:  E(RB3LYP) =  -506.438195665     A.U. after    9 cycles
 SCF Done:  E(RB3LYP) =  -506.438197723     A.U. after    9 cycles
 SCF Done:  E(RB3LYP) =  -506.438198660     A.U. after    9 cycles
 SCF Done:  E(RB3LYP) =  -506.438199352     A.U. after    8 cycles
 SCF Done:  E(RB3LYP) =  -506.438199651     A.U. after    9 cycles
 SCF Done:  E(RB3LYP) =  -506.438199901     A.U. after    8 cycles
 SCF Done:  E(RB3LYP) =  -506.438200021     A.U. after    8 cycles
 SCF Done:  E(RB3LYP) =  -506.438200050     A.U. after    7 cycles
 Optimization completed.
    -- Stationary point found.
 Normal termination of Gaussian 16 at Wed Dec  9 17:26:58 2020.

 --------------------------------------------------------------------
 #N Geom=AllCheck Guess=TCheck SCRF=Check GenChk RB3LYP/6-31G(d) Freq
 --------------------------------------------------------------------

 Structure from the checkpoint file:  "JID_2648.chk"
 ------------------------------
 CID_23238839_JID_2648_neutraal
 ------------------------------
 Charge =  0 Multiplicity = 1

 SCF Done:  E(RB3LYP) =  -506.438200050     A.U. after    1 cycles

  Exact polarizability: 155.642  -2.785 116.749   9.798  -4.075  90.000
 Approx polarizability: 204.772  -3.683 156.329  19.263  -3.259 135.608

                      1                      2                      3
                      A                      A                      A
 Frequencies --     14.1917                36.0648                47.4095
 Red. masses --      3.1304                 2.9282                 3.6182
 Frc consts  --      0.0004                 0.0022                 0.0048
 IR Inten    --      0.2791                 0.2999                 0.0825

                      4                      5                      6
                      A                      A                      A
 Frequencies --     73.7807               106.4781               118.1162
 Red. masses --      2.8890                 2.5599                 2.9235
 Frc consts  --      0.0093                 0.0171                 0.0240
 IR Inten    --      0.5886                 0.6500                 0.4980

                      7                      8                      9
                      A                      A                      A
 Frequencies --    135.6633               139.1162               170.4041
 Red. masses --      1.0981                 2.1604                 1.3290
 Frc consts  --      0.0119                 0.0246                 0.0227
 IR Inten    --      0.4554                 2.0083                 0.1694

                     10                     11                     12
                      A                      A                      A
 Frequencies --    203.6818               226.2251               257.0317
 Red. masses --      1.0656                 2.5474                 3.0156
 Frc consts  --      0.0260                 0.0768                 0.1174
 IR Inten    --      0.6174                 0.9767                 7.6613

                     13                     14                     15
                      A                      A                      A
 Frequencies --    295.6646               363.2412               384.6814
 Red. masses --      2.9764                 2.2276                 2.1372
 Frc consts  --      0.1533                 0.1732                 0.1863
 IR Inten    --      0.9768                 0.2926                 5.3582

                     16                     17                     18
                      A                      A                      A
 Frequencies --    388.8672               422.5172               431.6478
 Red. masses --      2.3783                 2.4102                 2.0059
 Frc consts  --      0.2119                 0.2535                 0.2202
 IR Inten    --      0.2805                 2.7315                 2.1203

                     19                     20                     21
                      A                      A                      A
 Frequencies --    465.8343               509.7917               565.1446
 Red. masses --      2.4294                 2.4996                 2.2664
 Frc consts  --      0.3106                 0.3827                 0.4265
 IR Inten    --      2.3053                 3.2312                 3.1529

                     22                     23                     24
                      A                      A                      A
 Frequencies --    608.6652               724.8961               742.3463
 Red. masses --      3.2617                 1.2029                 1.7223
 Frc consts  --      0.7120                 0.3724                 0.5592
 IR Inten    --     10.0526                 0.3362                11.8563

                     25                     26                     27
                      A                      A                      A
 Frequencies --    798.6508               843.1218               874.5880
 Red. masses --      2.4509                 1.9663                 2.2905
 Frc consts  --      0.9211                 0.8235                 1.0323
 IR Inten    --      1.1888                 0.7383                 1.3366

                     28                     29                     30
                      A                      A                      A
 Frequencies --    907.7572               917.0568               951.8138
 Red. masses --      1.5911                 1.3581                 2.3278
 Frc consts  --      0.7725                 0.6730                 1.2425
 IR Inten    --      3.4932                38.1639                14.7099

                     31                     32                     33
                      A                      A                      A
 Frequencies --    971.9229               976.5520              1004.6876
 Red. masses --      2.0820                 1.6912                 1.7324
 Frc consts  --      1.1588                 0.9502                 1.0303
 IR Inten    --     13.5802                 0.4917                14.2500

                     34                     35                     36
                      A                      A                      A
 Frequencies --   1026.8014              1040.3358              1051.2607
 Red. masses --      1.4436                 1.6545                 1.5283
 Frc consts  --      0.8968                 1.0550                 0.9951
 IR Inten    --      3.8495                 1.3895                 0.3142

                     37                     38                     39
                      A                      A                      A
 Frequencies --   1082.7358              1096.0400              1101.3697
 Red. masses --      1.6508                 1.7005                 2.1552
 Frc consts  --      1.1402                 1.2036                 1.5403
 IR Inten    --      0.3112                 2.9263                 1.1662

                     40                     41                     42
                      A                      A                      A
 Frequencies --   1127.6982              1158.1188              1179.9710
 Red. masses --      2.4593                 3.3730                 1.6039
 Frc consts  --      1.8427                 2.6654                 1.3157
 IR Inten    --      5.6019               101.6137                11.7057

                     43                     44                     45
                      A                      A                      A
 Frequencies --   1192.1557              1200.2338              1229.2729
 Red. masses --      1.2680                 1.1934                 1.5968
 Frc consts  --      1.0618                 1.0129                 1.4216
 IR Inten    --      1.6758                 1.2570                25.8857

                     46                     47                     48
                      A                      A                      A
 Frequencies --   1252.5740              1298.9746              1321.9883
 Red. masses --      1.8658                 1.7879                 1.3059
 Frc consts  --      1.7248                 1.7774                 1.3447
 IR Inten    --     12.1015                 4.5171                 4.2881

                     49                     50                     51
                      A                      A                      A
 Frequencies --   1330.3556              1358.1268              1378.2755
 Red. masses --      1.2021                 1.3569                 1.3726
 Frc consts  --      1.2535                 1.4746                 1.5363
 IR Inten    --      4.3237                 0.4403                 7.5373

                     52                     53                     54
                      A                      A                      A
 Frequencies --   1396.3632              1397.8930              1432.7091
 Red. masses --      1.3851                 1.4127                 1.2976
 Frc consts  --      1.5912                 1.6265                 1.5693
 IR Inten    --     13.9417                23.5872                12.8467

                     55                     56                     57
                      A                      A                      A
 Frequencies --   1440.1193              1446.9658              1471.1451
 Red. masses --      1.2425                 1.3759                 1.2052
 Frc consts  --      1.5182                 1.6973                 1.5368
 IR Inten    --      3.2095                 2.5305                 0.8569

                     58                     59                     60
                      A                      A                      A
 Frequencies --   1495.8227              1508.1828              1512.3572
 Red. masses --      1.1301                 1.0647                 1.0686
 Frc consts  --      1.4897                 1.4268                 1.4400
 IR Inten    --      0.2016                 2.2924                 4.3724

                     61                     62                     63
                      A                      A                      A
 Frequencies --   1513.5696              1514.3334              1515.3546
 Red. masses --      1.0486                 1.0546                 1.0846
 Frc consts  --      1.4153                 1.4249                 1.4673
 IR Inten    --      5.6993                 2.3857                 1.5737

                     64                     65                     66
                      A                      A                      A
 Frequencies --   1519.9403              1521.8372              1532.4580
 Red. masses --      1.0885                 1.0715                 1.0960
 Frc consts  --      1.4817                 1.4621                 1.5165
 IR Inten    --      7.3189                 6.8757                 7.5054

                     67                     68                     69
                      A                      A                      A
 Frequencies --   1538.9597              1541.5763              1736.6683
 Red. masses --      1.0828                 1.0533                 4.8565
 Frc consts  --      1.5110                 1.4748                 8.6299
 IR Inten    --     11.5489                 2.7756                12.7051

                     70                     71                     72
                      A                      A                      A
 Frequencies --   1762.7906              2964.2619              3002.9295
 Red. masses --      6.6417                 1.0696                 1.0424
 Frc consts  --     12.1600                 5.5376                 5.5382
 IR Inten    --      2.3434                64.3575                73.7926

                     73                     74                     75
                      A                      A                      A
 Frequencies --   3028.5860              3035.0078              3036.9460
 Red. masses --      1.0427                 1.0611                 1.0402
 Frc consts  --      5.6348                 5.7587                 5.6528
 IR Inten    --     41.8808                20.5081                24.4274

                     76                     77                     78
                      A                      A                      A
 Frequencies --   3040.5209              3047.1815              3049.2551
 Red. masses --      1.0653                 1.0900                 1.0603
 Frc consts  --      5.8024                 5.9634                 5.8084
 IR Inten    --     24.9288                29.8408                17.8019

                     79                     80                     81
                      A                      A                      A
 Frequencies --   3062.9809              3068.9116              3076.5884
 Red. masses --      1.0972                 1.0995                 1.1012
 Frc consts  --      6.0648                 6.1013                 6.1410
 IR Inten    --     46.2358                26.2730                37.4787

                     82                     83                     84
                      A                      A                      A
 Frequencies --   3087.6370              3089.4616              3091.3761
 Red. masses --      1.0976                 1.0973                 1.1025
 Frc consts  --      6.1652                 6.1710                 6.2075
 IR Inten    --     37.0842                39.9133                40.7717

                     85                     86                     87
                      A                      A                      A
 Frequencies --   3125.2196              3138.8793              3147.7355
 Red. masses --      1.1014                 1.0991                 1.0946
 Frc consts  --      6.3378                 6.3803                 6.3900
 IR Inten    --     32.6536                31.3219                22.7655

                     88                     89                     90
                      A                      A                      A
 Frequencies --   3153.0298              3177.7842              3228.7563
 Red. masses --      1.0600                 1.0861                 1.1157
 Frc consts  --      6.2089                 6.4622                 6.8530
 IR Inten    --     11.1165                 9.2536                21.4438

 - Thermochemistry -
 -------------------
 Temperature   298.150 Kelvin.  Pressure   1.00000 Atm.
 Atom     1 has atomic number  6 and mass  12.00000

 Molecular mass:   168.15142 amu.
 Principal axes and moments of inertia in atomic units:
                           1         2         3
     Eigenvalues --  1352.806193973.537464886.35150
           X            0.99996  -0.00756  -0.00392
           Y            0.00748   0.99981  -0.01791
           Z            0.00405   0.01788   0.99983
 This molecule is an asymmetric top.
 Rotational symmetry number  1.
 Warning -- assumption of classical behavior for rotation
           may cause significant error
 Rotational temperatures (Kelvin)      0.06403     0.02180     0.01773
 Rotational constants (GHZ):           1.33407     0.45419     0.36934
 Zero-point vibrational energy     762954.3 (Joules/Mol)
                                  182.35045 (Kcal/Mol)
 Warning -- explicit consideration of  22 degrees of freedom as
           vibrations may cause significant error
 Vibrational temperatures:     20.42    51.89    68.21   106.15   153.20
          (Kelvin)            169.94   195.19   200.16   245.17   293.05
                              325.49   369.81   425.40   522.62   553.47
                              559.49   607.91   621.04   670.23   733.48
                              813.12   875.73  1042.96  1068.07  1149.08
                             1213.06  1258.34  1306.06  1319.44  1369.45
                             1398.38  1405.04  1445.52  1477.34  1496.81
                             1512.53  1557.82  1576.96  1584.63  1622.51
                             1666.27  1697.72  1715.25  1726.87  1768.65
                             1802.17  1868.93  1902.05  1914.08  1954.04
                             1983.03  2009.06  2011.26  2061.35  2072.01
                             2081.86  2116.65  2152.16  2169.94  2175.94
                             2177.69  2178.79  2180.26  2186.86  2189.58
                             2204.87  2214.22  2217.98  2498.68  2536.26
                             4264.91  4320.55  4357.46  4366.70  4369.49
                             4374.63  4384.21  4387.20  4406.95  4415.48
                             4426.52  4442.42  4445.05  4447.80  4496.49
                             4516.15  4528.89  4536.51  4572.12  4645.46

 Zero-point correction=                           0.290594 (Hartree/Particle)
 Thermal correction to Energy=                    0.305638
 Thermal correction to Enthalpy=                  0.306582
 Thermal correction to Gibbs Free Energy=         0.246527
 Sum of electronic and zero-point Energies=           -506.147606
 Sum of electronic and thermal Energies=              -506.132562
 Sum of electronic and thermal Enthalpies=            -506.131618
 Sum of electronic and thermal Free Energies=         -506.191673

                     E (Thermal)             CV                S
                      KCal/Mol        Cal/Mol-Kelvin    Cal/Mol-Kelvin
 Total                  191.791             53.875            126.398
 Electronic               0.000              0.000              0.000
 Translational            0.889              2.981             41.267
 Rotational               0.889              2.981             31.641
 Vibrational            190.013             47.914             53.490
 Vibration     1          0.593              1.986              7.316
 Vibration     2          0.594              1.982              5.464
 Vibration     3          0.595              1.979              4.923
 Vibration     4          0.599              1.966              4.050
 Vibration     5          0.605              1.944              3.332
 Vibration     6          0.608              1.934              3.131
 Vibration     7          0.613              1.918              2.864
 Vibration     8          0.615              1.914              2.816
 Vibration     9          0.626              1.879              2.431
 Vibration    10          0.639              1.835              2.100
 Vibration    11          0.650              1.801              1.909
 Vibration    12          0.667              1.751              1.682
 Vibration    13          0.690              1.682              1.441
 Vibration    14          0.737              1.548              1.108
 Vibration    15          0.754              1.503              1.021
 Vibration    16          0.757              1.494              1.004
 Vibration    17          0.785              1.421              0.883
 Vibration    18          0.793              1.401              0.853
 Vibration    19          0.823              1.326              0.749
 Vibration    20          0.865              1.228              0.634
 Vibration    21          0.921              1.107              0.514
 Vibration    22          0.968              1.013              0.435

                           ! Non-Optimized Parameters !
 Normal termination of Gaussian 16 at Wed Dec  9 17:35:23 2020.

 ----------------------------------------------------------------------
 # B3LYP/6-311++G(d,p) empiricaldispersion=gd3bj scf=xqc pop=npa geom=c
 heck
 ----------------------------------------------------------------------

 --------------------------------------
 CID_23238839_JID_2648_Energie_neutraal
 --------------------------------------
 Structure from the checkpoint file:  "JID_2648.chk"
 Charge =  0 Multiplicity = 1

 SCF Done:  E(RB3LYP) =  -506.583615396     A.U. after   14 cycles
 Normal termination of Gaussian 16 at Wed Dec  9 17:38:47 2020.

 ----------------------------------------------------------------------
 # B3LYP/6-311++G(d,p) empiricaldispersion=gd3bj scf=xqc pop=npa geom=c
 heck
 ----------------------------------------------------------------------

 ------------------------------------
 CID_23238839_JID_2648_Energie_kation
 ------------------------------------
 Structure from the checkpoint file:  "JID_2648.chk"
 Charge =  1 Multiplicity = 2

 SCF Done:  E(UB3LYP) =  -506.282713182     A.U. after   22 cycles
 Normal termination of Gaussian 16 at Wed Dec  9 17:46:42 2020.
 Gaussian 16:  ES64L-G16RevA.03 25-Dec-2016

 ----------------------------------------------------------------------
 # B3LYP/6-311++G(d,p) empiricaldispersion=gd3bj scf=xqc pop=npa geom=c
 heck
 ----------------------------------------------------------------------

 -----------------------------------
 CID_23238839_JID_2648_Energie_anion
 -----------------------------------
 Structure from the checkpoint file:  "JID_2648.chk"
 Charge = -1 Multiplicity = 2

                         Standard orientation:
 ---------------------------------------------------------------------
 Center     Atomic      Atomic             Coordinates (Angstroms)
 Number     Number       Type             X           Y           Z
 ---------------------------------------------------------------------
      1          6           0       -2.333797    1.854872   -0.213539
      2          6           0       -3.001116    0.551965    0.147523
      3          6           0       -4.229919    0.250223   -0.282691
      4          6           0       -2.216816   -0.413001    1.020494
      5          6           0       -1.557923   -1.565137    0.234945
      6          6           0       -0.525639   -1.128474   -0.824072
      7          6           0        0.638194   -0.376003   -0.240333
      8          6           0        1.879213   -0.828904   -0.025065
      9          6           0        2.374941   -2.217369   -0.331889
     10          6           0        2.928331    0.063261    0.616538
     11          8           0        2.596545    1.436478    0.676838
     12          6           0        2.807167    2.111266   -0.549770
     13          1           0       -2.980865    2.482774   -0.833807
     14          1           0       -1.395644    1.691130   -0.757926
     15          1           0       -2.071469    2.420346    0.690802
     16          1           0       -4.717786   -0.682160   -0.006966
     17          1           0       -4.794028    0.921498   -0.925187
     18          1           0       -1.446783    0.130420    1.581369
     19          1           0       -2.890053   -0.855514    1.764506
     20          1           0       -1.065244   -2.238319    0.948769
     21          1           0       -2.347571   -2.143024   -0.261893
     22          1           0       -0.184376   -2.018678   -1.362971
     23          1           0       -1.032800   -0.499180   -1.567930
     24          1           0        0.441645    0.647743    0.070602
     25          1           0        3.179346   -2.192918   -1.080154
     26          1           0        2.800726   -2.685345    0.566842
     27          1           0        1.587232   -2.875648   -0.703929
     28          1           0        3.089526   -0.253478    1.656326
     29          1           0        3.892932   -0.073279    0.095094
     30          1           0        3.868211    2.078188   -0.843883
     31          1           0        2.204704    1.684789   -1.363137
     32          1           0        2.514111    3.152647   -0.394078
 ---------------------------------------------------------------------

 SCF Done:  E(UB3LYP) =  -506.568027549     A.U. after   33 cycles
 SCF Done:  E(UB3LYP) =  -506.568027550     a.u. after    1 cycles

 The electronic state is 2-A.
 Alpha  occ. eigenvalues --  -19.02763 -10.11740 -10.11051 -10.08592 -10.07303
 Alpha  occ. eigenvalues --  -10.06989 -10.06958 -10.06843 -10.06634 -10.06269
 Alpha  occ. eigenvalues --  -10.05927 -10.05696  -0.93992  -0.72764  -0.70880
 Alpha  occ. eigenvalues --   -0.66811  -0.61997  -0.60629  -0.58886  -0.56508
 Alpha  occ. eigenvalues --   -0.53880  -0.49327  -0.43129  -0.41180  -0.39262
 Alpha  occ. eigenvalues --   -0.38310  -0.38158  -0.36772  -0.35448  -0.34251
 Alpha  occ. eigenvalues --   -0.32642  -0.32072  -0.31477  -0.30595  -0.29952
 Alpha  occ. eigenvalues --   -0.28104  -0.27791  -0.26819  -0.26612  -0.26277
 Alpha  occ. eigenvalues --   -0.24476  -0.22990  -0.22547  -0.21364  -0.16568
 Alpha  occ. eigenvalues --   -0.15476  -0.13673   0.04462
 Alpha virt. eigenvalues --    0.06443   0.06668   0.07759   0.08152   0.08669
 Alpha virt. eigenvalues --    0.08885   0.09897   0.10161   0.10355   0.10637
 Alpha virt. eigenvalues --    0.11084   0.11825   0.12042   0.12311   0.12713

  Beta  occ. eigenvalues --  -19.02756 -10.11720 -10.11019 -10.08588 -10.07299
  Beta  occ. eigenvalues --  -10.06977 -10.06935 -10.06827 -10.06620 -10.06222
  Beta  occ. eigenvalues --  -10.05902 -10.05691  -0.93977  -0.72740  -0.70855
  Beta  occ. eigenvalues --   -0.66781  -0.61958  -0.60578  -0.58841  -0.56454
  Beta  occ. eigenvalues --   -0.53821  -0.49274  -0.43080  -0.41129  -0.39236
  Beta  occ. eigenvalues --   -0.38276  -0.38124  -0.36747  -0.35412  -0.34223
  Beta  occ. eigenvalues --   -0.32605  -0.32032  -0.31430  -0.30566  -0.29917
  Beta  occ. eigenvalues --   -0.28071  -0.27754  -0.26788  -0.26585  -0.26249
  Beta  occ. eigenvalues --   -0.24448  -0.22961  -0.22516  -0.21331  -0.16548
  Beta  occ. eigenvalues --   -0.15423  -0.13643
  Beta virt. eigenvalues --    0.06479   0.07225   0.07444   0.08058   0.08719
  Beta virt. eigenvalues --    0.09154   0.09204   0.10158   0.10562   0.10698
  Beta virt. eigenvalues --    0.10975   0.11321   0.12056   0.12429   0.12626

 Mulliken charges and spin densities:
               1          2
     1  C   -0.010121  -0.810794
     2  C   -0.593904   1.318590
     3  C    0.706743  -1.380570
     4  C   -0.333004   0.156569
     5  C    0.808176  -1.363148
     6  C   -2.424222   2.345048
     7  C    0.218718   0.039281
     8  C   -0.044081   0.273664
     9  C    2.694030  -3.471040
    10  C   -1.022154   0.340513
    11  O   -0.142088   0.038955
    12  C    0.622684  -0.930141
    13  H   -0.285376   0.422215
    14  H    0.089030   0.066603
    15  H   -0.060926   0.220722
    16  H   -0.049841   0.170885
    17  H   -0.026192   0.139382
    18  H   -0.007645   0.134605
    19  H   -0.245006   0.446539
    20  H   -0.138729   0.282242
    21  H   -0.073131   0.212732
    22  H   -0.169165   0.390389
    23  H   -0.033080   0.173199
    24  H    1.088599  -0.915451
    25  H   -0.310617   0.457171
    26  H   -0.319730   0.469736
    27  H   -0.154064   0.253924
    28  H   -0.114532   0.299844
    29  H    0.020178   0.125030
    30  H   -0.357407   0.476419
    31  H   -0.246496   0.380017
    32  H   -0.086643   0.236867
 Sum of Mulliken charges =  -1.00000   1.00000

 Dipole moment (field-independent basis, Debye):
    X=             -1.9558    Y=              1.1348    Z=              0.2400  Tot=              2.2738
 Quadrupole moment (field-independent basis, Debye-Ang):
   XX=           -151.8082   YY=           -128.8450   ZZ=           -110.3267
   XY=              3.9168   XZ=              4.9478   YZ=              2.0112

 Summary of Natural Population Analysis:

                                       Natural Population
                Natural  -----------------------------------------------
    Atom  No    Charge         Core      Valence    Rydberg      Total
 -----------------------------------------------------------------------
      C    1   -0.29991      0.99961     2.29395    0.00635     3.29991
      C    2    0.00398      0.99953     1.98630    0.01019     2.99602
      C    3   -0.20323      0.99947     2.19598    0.00777     3.20323
      C    4   -0.20826      0.99958     2.19891    0.00978     3.20826
      C    5   -0.17703      0.99962     2.16890    0.00852     3.17703
      C    6   -0.20577      0.99961     2.19747    0.00870     3.20577
      C    7   -0.10406      0.99944     2.09501    0.00961     3.10406
      C    8   -0.02034      0.99948     2.01025    0.01061     3.02034
      C    9   -0.30136      0.99962     2.29525    0.00649     3.30136
      C   10   -0.01575      0.99952     2.00294    0.01329     3.01575
      O   11   -0.29755      0.99989     3.28810    0.00956     4.29755
      C   12   -0.10048      0.99961     2.09140    0.00947     3.10048
      H   13    0.10055      0.00000     0.39841    0.00104     0.39945
      H   14    0.10409      0.00000     0.39415    0.00177     0.39591
      H   15    0.10341      0.00000     0.39537    0.00122     0.39659
      H   16    0.09237      0.00000     0.40649    0.00114     0.40763
      H   17    0.09112      0.00000     0.40781    0.00107     0.40888
      H   18    0.10087      0.00000     0.39743    0.00169     0.39913
      H   19    0.10432      0.00000     0.39447    0.00121     0.39568
      H   20    0.09753      0.00000     0.40113    0.00133     0.40247
      H   21    0.09493      0.00000     0.40370    0.00137     0.40507
      H   22    0.10144      0.00000     0.39729    0.00127     0.39856
      H   23    0.09955      0.00000     0.39909    0.00136     0.40045
      H   24    0.09847      0.00000     0.39879    0.00273     0.40153
      H   25    0.10406      0.00000     0.39436    0.00158     0.39594
      H   26    0.10423      0.00000     0.39400    0.00177     0.39577
      H   27    0.10503      0.00000     0.39373    0.00123     0.39497
      H   28    0.09458      0.00000     0.40390    0.00153     0.40542
      H   29    0.08152      0.00000     0.41679    0.00169     0.41848
      H   30    0.07819      0.00000     0.42031    0.00150     0.42181
      H   31    0.08408      0.00000     0.41422    0.00170     0.41592
      H   32    0.08942      0.00000     0.40941    0.00116     0.41058
 =======================================================================
   * Total *   -0.00000     11.99498    34.86529    0.13973    47.00000

 Normal termination of Gaussian 16 at Wed Dec  9 17:58:00 2020.
