 Gaussian 16, Revision A.03,

 -----------------------------------------------------------
 # opt freq B3LYP/6-31G(d) empiricaldispersion=gd3bj scf=xqc
 -----------------------------------------------------------

 -------------------------------
 CID_16784101_JID_10607_neutraal
 -------------------------------
 Symbolic Z-matrix:
 Charge =  0 Multiplicity = 1

 SCF Done:  E(RB3LYP) =  -1254.28201699     A.U. after   15 cycles
 SCF Done:  E(RB3LYP) =  -1254.29312431     A.U. after   13 cycles
 SCF Done:  E(RB3LYP) =  -1254.29404370     A.U. after   13 cycles
 SCF Done:  E(RB3LYP) =  -1254.29392411     A.U. after   13 cycles
 SCF Done:  E(RB3LYP) =  -1254.29521831     A.U. after   11 cycles
 SCF Done:  E(RB3LYP) =  -1254.29552759     A.U. after   12 cycles
 SCF Done:  E(RB3LYP) =  -1254.29567608     A.U. after   12 cycles
 SCF Done:  E(RB3LYP) =  -1254.29577314     A.U. after   11 cycles
 SCF Done:  E(RB3LYP) =  -1254.29587651     A.U. after   12 cycles
 SCF Done:  E(RB3LYP) =  -1254.29601580     A.U. after   12 cycles
 SCF Done:  E(RB3LYP) =  -1254.29652008     A.U. after    8 cycles
 SCF Done:  E(RB3LYP) =  -1254.29652130     A.U. after    8 cycles
 SCF Done:  E(RB3LYP) =  -1254.29652222     A.U. after    9 cycles
 SCF Done:  E(RB3LYP) =  -1254.29652254     A.U. after    8 cycles
 SCF Done:  E(RB3LYP) =  -1254.29652263     A.U. after    8 cycles
 Optimization completed.
    -- Stationary point found.
 Normal termination of Gaussian 16 at Sun Dec 13 13:26:07 2020.

 --------------------------------------------------------------------
 #N Geom=AllCheck Guess=TCheck SCRF=Check GenChk RB3LYP/6-31G(d) Freq
 --------------------------------------------------------------------

 Structure from the checkpoint file:  "JID_10607.chk"
 -------------------------------
 CID_16784101_JID_10607_neutraal
 -------------------------------
 Charge =  0 Multiplicity = 1

 SCF Done:  E(RB3LYP) =  -1254.29652263     A.U. after    1 cycles

  Exact polarizability: 277.155  29.174 186.825 -21.313  21.088 125.311
 Approx polarizability: 396.915  53.609 321.717 -46.685  57.687 216.657

                      1                      2                      3
                      A                      A                      A
 Frequencies --     14.2809                29.1279                35.0201
 Red. masses --      5.8319                 3.7970                 6.0997
 Frc consts  --      0.0007                 0.0019                 0.0044
 IR Inten    --      1.1384                 0.2196                 0.5876

                      4                      5                      6
                      A                      A                      A
 Frequencies --     79.1797                88.8920                95.4694
 Red. masses --      3.6333                 1.8749                 2.2635
 Frc consts  --      0.0134                 0.0087                 0.0122
 IR Inten    --      1.2604                 0.3439                 1.3997

                      7                      8                      9
                      A                      A                      A
 Frequencies --    126.3419               147.9315               165.8083
 Red. masses --      1.5468                 1.9082                 4.0444
 Frc consts  --      0.0145                 0.0246                 0.0655
 IR Inten    --      0.4863                 0.5318                 3.1230

                     10                     11                     12
                      A                      A                      A
 Frequencies --    193.5856               199.0078               221.8565
 Red. masses --      5.8535                 4.2529                 4.4852
 Frc consts  --      0.1292                 0.0992                 0.1301
 IR Inten    --      1.9166                 4.3078                 2.1871

                     13                     14                     15
                      A                      A                      A
 Frequencies --    242.9621               268.1976               284.7900
 Red. masses --      5.5181                 2.7611                 1.0508
 Frc consts  --      0.1919                 0.1170                 0.0502
 IR Inten    --      7.6719                 1.3473                22.2064

                     16                     17                     18
                      A                      A                      A
 Frequencies --    307.5055               326.4844               347.6451
 Red. masses --      4.1391                 5.3864                 8.4970
 Frc consts  --      0.2306                 0.3383                 0.6050
 IR Inten    --      2.2288                 1.0803                 1.7364

                     19                     20                     21
                      A                      A                      A
 Frequencies --    395.5860               409.2748               428.1984
 Red. masses --      5.5592                 3.9222                 5.9208
 Frc consts  --      0.5126                 0.3871                 0.6396
 IR Inten    --      1.0874                12.4553                 1.5823

                     22                     23                     24
                      A                      A                      A
 Frequencies --    436.1848               443.9558               528.7037
 Red. masses --      3.1445                 6.4473                 5.2226
 Frc consts  --      0.3525                 0.7487                 0.8601
 IR Inten    --      7.7486                 2.7094                20.4460

                     25                     26                     27
                      A                      A                      A
 Frequencies --    531.5911               548.3200               577.4632
 Red. masses --      2.8131                 2.3252                 6.0278
 Frc consts  --      0.4684                 0.4119                 1.1843
 IR Inten    --     49.8511               112.7590                10.9344

                     28                     29                     30
                      A                      A                      A
 Frequencies --    595.2812               613.8113               629.1644
 Red. masses --      2.2368                 4.4254                 4.6417
 Frc consts  --      0.4670                 0.9824                 1.0826
 IR Inten    --    145.1965                23.4531                22.6095

                     31                     32                     33
                      A                      A                      A
 Frequencies --    636.1899               640.5068               657.2204
 Red. masses --      5.0770                 1.9216                 3.7991
 Frc consts  --      1.2107                 0.4645                 0.9668
 IR Inten    --     19.7460               235.6924                25.4185

                     34                     35                     36
                      A                      A                      A
 Frequencies --    689.6438               715.0011               732.0338
 Red. masses --      6.2214                 6.2123                 4.8865
 Frc consts  --      1.7434                 1.8712                 1.5428
 IR Inten    --     27.6030                19.7641                 7.1644

                     37                     38                     39
                      A                      A                      A
 Frequencies --    754.9293               785.3869               811.3184
 Red. masses --      5.0946                 4.0426                 4.5895
 Frc consts  --      1.7107                 1.4692                 1.7799
 IR Inten    --     20.2547                27.6451                 2.2022

                     40                     41                     42
                      A                      A                      A
 Frequencies --    821.3964               822.9132               838.6856
 Red. masses --      1.4817                 1.4249                 1.6201
 Frc consts  --      0.5890                 0.5685                 0.6714
 IR Inten    --     15.1475                 8.5102                46.1676

                     43                     44                     45
                      A                      A                      A
 Frequencies --    891.6906               945.2497               949.3806
 Red. masses --      5.3359                 1.2919                 2.4580
 Frc consts  --      2.4997                 0.6801                 1.3053
 IR Inten    --     34.5227                 0.2618                 5.5543

                     46                     47                     48
                      A                      A                      A
 Frequencies --    951.7941              1022.0264              1046.7077
 Red. masses --      6.0684                 3.0317                 1.5281
 Frc consts  --      3.2390                 1.8658                 0.9864
 IR Inten    --      9.7255                 3.8522                20.3431

                     49                     50                     51
                      A                      A                      A
 Frequencies --   1071.0071              1077.8300              1084.6763
 Red. masses --      2.8316                 1.4618                 3.0790
 Frc consts  --      1.9137                 1.0005                 2.1343
 IR Inten    --     11.8221                 0.0899                76.8290

                     52                     53                     54
                      A                      A                      A
 Frequencies --   1085.3891              1119.0127              1167.7921
 Red. masses --      1.8488                 1.4407                 1.2279
 Frc consts  --      1.2832                 1.0629                 0.9866
 IR Inten    --     51.6170                 0.8131                 5.7489

                     55                     56                     57
                      A                      A                      A
 Frequencies --   1182.0846              1187.4728              1250.2859
 Red. masses --      2.0937                 2.2141                 5.3546
 Frc consts  --      1.7237                 1.8395                 4.9317
 IR Inten    --     83.6542                54.0517               207.5148

                     58                     59                     60
                      A                      A                      A
 Frequencies --   1269.7736              1270.9966              1323.7350
 Red. masses --      4.6016                 1.8093                 5.6117
 Frc consts  --      4.3713                 1.7221                 5.7935
 IR Inten    --    211.7578                22.7284                28.7994

                     61                     62                     63
                      A                      A                      A
 Frequencies --   1331.4628              1342.9354              1375.7405
 Red. masses --      1.8563                 4.4037                 6.2096
 Frc consts  --      1.9389                 4.6793                 6.9244
 IR Inten    --     43.7328               227.6457                 3.0258

                     64                     65                     66
                      A                      A                      A
 Frequencies --   1420.4249              1445.2371              1446.6433
 Red. masses --      1.9831                 1.7665                 1.4526
 Frc consts  --      2.3574                 2.1739                 1.7911
 IR Inten    --    104.9214                97.6553                20.0629

                     67                     68                     69
                      A                      A                      A
 Frequencies --   1479.0091              1489.4324              1502.2087
 Red. masses --      1.8187                 2.9651                 1.0455
 Frc consts  --      2.3439                 3.8755                 1.3901
 IR Inten    --     86.0426                57.3635                 3.9447

                     70                     71                     72
                      A                      A                      A
 Frequencies --   1502.4449              1516.9138              1518.6547
 Red. masses --      1.0877                 1.0766                 3.4930
 Frc consts  --      1.4467                 1.4596                 4.7465
 IR Inten    --     17.1755                 8.3596                79.6979

                     73                     74                     75
                      A                      A                      A
 Frequencies --   1521.9305              1609.6665              1626.3743
 Red. masses --      1.1071                 7.6119                 6.4699
 Frc consts  --      1.5109                11.6203                10.0830
 IR Inten    --      8.3556                94.5170                39.1485

                     76                     77                     78
                      A                      A                      A
 Frequencies --   1635.7671              1672.4201              1678.1424
 Red. masses --      7.0757                 4.6095                 6.4985
 Frc consts  --     11.1548                 7.5961                10.7825
 IR Inten    --    153.1001               129.5123                20.8583

                     79                     80                     81
                      A                      A                      A
 Frequencies --   1696.0047              1765.8803              3045.5824
 Red. masses --      1.2585                 8.5714                 1.0381
 Frc consts  --      2.1329                15.7481                 5.6734
 IR Inten    --    153.3029               397.4748                32.7691

                     82                     83                     84
                      A                      A                      A
 Frequencies --   3049.1017              3095.5756              3097.6379
 Red. masses --      1.0407                 1.1016                 1.1008
 Frc consts  --      5.7006                 6.2196                 6.2233
 IR Inten    --     31.9178                14.6497                14.6680

                     85                     86                     87
                      A                      A                      A
 Frequencies --   3143.6426              3185.1762              3186.5797
 Red. masses --      1.0994                 1.0889                 1.0970
 Frc consts  --      6.4012                 6.5087                 6.5633
 IR Inten    --     10.1567                17.5413                 0.0130

                     88                     89                     90
                      A                      A                      A
 Frequencies --   3194.0721              3220.4119              3288.0520
 Red. masses --      1.0908                 1.0933                 1.0973
 Frc consts  --      6.5566                 6.6808                 6.9893
 IR Inten    --     14.0659                 6.0899                 2.3702

                     91                     92                     93
                      A                      A                      A
 Frequencies --   3551.3748              3570.5086              3649.9425
 Red. masses --      1.0479                 1.0753                 1.0981
 Frc consts  --      7.7872                 8.0765                 8.6193
 IR Inten    --     21.4935                43.6163                 9.0452

 - Thermochemistry -
 -------------------
 Temperature   298.150 Kelvin.  Pressure   1.00000 Atm.
 Atom     1 has atomic number  6 and mass  12.00000

 Molecular mass:   287.07285 amu.
 Principal axes and moments of inertia in atomic units:
                           1         2         3
     Eigenvalues --  3183.83803********************
           X            1.00000  -0.00040  -0.00115
           Y            0.00038   0.99992  -0.01293
           Z            0.00115   0.01293   0.99992
 This molecule is an asymmetric top.
 Rotational symmetry number  1.
 Warning -- assumption of classical behavior for rotation
           may cause significant error
 Rotational temperatures (Kelvin)      0.02720     0.00863     0.00728
 Rotational constants (GHZ):           0.56684     0.17975     0.15173
 Zero-point vibrational energy     663740.2 (Joules/Mol)
                                  158.63772 (Kcal/Mol)
 Warning -- explicit consideration of  29 degrees of freedom as
           vibrations may cause significant error
 Vibrational temperatures:     20.55    41.91    50.39   113.92   127.90
          (Kelvin)            137.36   181.78   212.84   238.56   278.53
                              286.33   319.20   349.57   385.88   409.75
                              442.43   469.74   500.18   569.16   588.86
                              616.08   627.57   638.75   760.69   764.84
                              788.91   830.84   856.48   883.14   905.23
                              915.34   921.55   945.59   992.24  1028.73
                             1053.23  1086.17  1130.00  1167.31  1181.81
                             1183.99  1206.68  1282.94  1360.00  1365.95
                             1369.42  1470.47  1505.98  1540.94  1550.76
                             1560.61  1561.63  1610.01  1680.19  1700.76
                             1708.51  1798.88  1826.92  1828.68  1904.56
                             1915.68  1932.18  1979.38  2043.67  2079.37
                             2081.40  2127.96  2142.96  2161.34  2161.68
                             2182.50  2185.01  2189.72  2315.95  2339.99
                             2353.50  2406.24  2414.47  2440.17  2540.71
                             4381.91  4386.98  4453.84  4456.81  4523.00
                             4582.76  4584.78  4595.56  4633.45  4730.77
                             5109.64  5137.17  5251.45

 Zero-point correction=                           0.252805 (Hartree/Particle)
 Thermal correction to Energy=                    0.271196
 Thermal correction to Enthalpy=                  0.272140
 Thermal correction to Gibbs Free Energy=         0.204277
 Sum of electronic and zero-point Energies=          -1254.043717
 Sum of electronic and thermal Energies=             -1254.025327
 Sum of electronic and thermal Enthalpies=           -1254.024382
 Sum of electronic and thermal Free Energies=        -1254.092245

                     E (Thermal)             CV                S
                      KCal/Mol        Cal/Mol-Kelvin    Cal/Mol-Kelvin
 Total                  170.178             69.589            142.829
 Electronic               0.000              0.000              0.000
 Translational            0.889              2.981             42.861
 Rotational               0.889              2.981             34.296
 Vibrational            168.401             63.628             65.672
 Vibration     1          0.593              1.986              7.303
 Vibration     2          0.593              1.984              5.888
 Vibration     3          0.594              1.982              5.523
 Vibration     4          0.600              1.963              3.911
 Vibration     5          0.602              1.957              3.684
 Vibration     6          0.603              1.952              3.545
 Vibration     7          0.611              1.927              3.001
 Vibration     8          0.617              1.905              2.699
 Vibration     9          0.624              1.884              2.482
 Vibration    10          0.635              1.849              2.193
 Vibration    11          0.637              1.841              2.142
 Vibration    12          0.648              1.808              1.944
 Vibration    13          0.659              1.774              1.781
 Vibration    14          0.673              1.732              1.608
 Vibration    15          0.683              1.702              1.505
 Vibration    16          0.697              1.659              1.376
 Vibration    17          0.710              1.623              1.277
 Vibration    18          0.725              1.580              1.177
 Vibration    19          0.762              1.480              0.979
 Vibration    20          0.774              1.450              0.929
 Vibration    21          0.790              1.409              0.865
 Vibration    22          0.797              1.391              0.839
 Vibration    23          0.803              1.374              0.814
 Vibration    24          0.884              1.186              0.590
 Vibration    25          0.887              1.180              0.584
 Vibration    26          0.904              1.143              0.548
 Vibration    27          0.934              1.080              0.490
 Vibration    28          0.953              1.042              0.458
 Vibration    29          0.973              1.003              0.427

 Optimization completed.
    -- Stationary point found.
 Normal termination of Gaussian 16 at Sun Dec 13 13:42:01 2020.

 ----------------------------------------------------------------------
 # B3LYP/6-311++G(d,p) empiricaldispersion=gd3bj scf=xqc pop=npa geom=c
 heck
 ----------------------------------------------------------------------

 ---------------------------------------
 CID_16784101_JID_10607_Energie_neutraal
 ---------------------------------------
 Structure from the checkpoint file:  "JID_10607.chk"
 Charge =  0 Multiplicity = 1

 SCF Done:  E(RB3LYP) =  -1254.55944434     A.U. after   17 cycles
 Normal termination of Gaussian 16 at Sun Dec 13 13:49:27 2020.

 ----------------------------------------------------------------------
 # B3LYP/6-311++G(d,p) empiricaldispersion=gd3bj scf=xqc pop=npa geom=c
 heck
 ----------------------------------------------------------------------

 -------------------------------------
 CID_16784101_JID_10607_Energie_kation
 -------------------------------------
 Structure from the checkpoint file:  "JID_10607.chk"
 Charge =  1 Multiplicity = 2

 SCF Done:  E(UB3LYP) =  -1254.29235485     A.U. after   27 cycles
 Normal termination of Gaussian 16 at Sun Dec 13 14:06:31 2020.
 Gaussian 16:  ES64L-G16RevA.03 25-Dec-2016

 ----------------------------------------------------------------------
 # B3LYP/6-311++G(d,p) empiricaldispersion=gd3bj scf=xqc pop=npa geom=c
 heck
 ----------------------------------------------------------------------

 ------------------------------------
 CID_16784101_JID_10607_Energie_anion
 ------------------------------------
 Structure from the checkpoint file:  "JID_10607.chk"
 Charge = -1 Multiplicity = 2

                         Standard orientation:
 ---------------------------------------------------------------------
 Center     Atomic      Atomic             Coordinates (Angstroms)
 Number     Number       Type             X           Y           Z
 ---------------------------------------------------------------------
      1          6           0       -2.288114    3.283987   -1.371052
      2          6           0       -2.489876    1.925832   -0.803528
      3          6           0       -1.805283    0.759048   -0.885212
      4          6           0       -2.534095   -0.208180   -0.098160
      5          6           0       -3.628111    0.453218    0.408252
      6          8           0       -3.603569    1.749309   -0.005037
      7          6           0       -4.756889    0.050336    1.284182
      8          6           0       -2.275397   -1.638054    0.107115
      9          8           0       -3.133808   -2.449968    0.431884
     10          7           0       -0.985493   -2.119379   -0.177366
     11          6           0        0.216950   -1.448308   -0.016430
     12          7           0        0.431094   -0.464014    0.788990
     13          6           0        1.723156    0.020329    0.651490
     14          6           0        2.540868   -0.662050   -0.282521
     15         16           0        1.598053   -1.926984   -1.057158
     16          6           0        3.873451   -0.320009   -0.488730
     17          6           0        4.411469    0.749376    0.241705
     18          6           0        3.598721    1.440588    1.168292
     19          6           0        2.275179    1.083373    1.375344
     20          7           0        5.723821    1.172254    0.013145
     21          1           0       -3.130373    3.585144   -2.006014
     22          1           0       -2.185422    4.037418   -0.580505
     23          1           0       -1.378308    3.297786   -1.976993
     24          1           0       -0.895259    0.595699   -1.441696
     25          1           0       -4.798184    0.679715    2.181249
     26          1           0       -5.714129    0.160330    0.759632
     27          1           0       -4.637245   -0.994762    1.568953
     28          1           0       -0.953324   -3.133406   -0.165663
     29          1           0        4.486984   -0.853741   -1.208716
     30          1           0        4.026581    2.270646    1.724475
     31          1           0        1.658049    1.612382    2.094050
     32          1           0        6.341416    0.460549   -0.357274
     33          1           0        6.151279    1.660324    0.790385
 ---------------------------------------------------------------------

 SCF Done:  E(UB3LYP) =  -1254.56314930     A.U. after   33 cycles
 SCF Done:  E(UB3LYP) =  -1254.56314930     a.u. after    1 cycles

 The electronic state is 2-A.
 Alpha  occ. eigenvalues --  -88.75969 -19.07400 -18.96121 -14.23127 -14.21442
 Alpha  occ. eigenvalues --  -14.18346 -10.14318 -10.13981 -10.11934 -10.11289
 Alpha  occ. eigenvalues --  -10.10373 -10.09652 -10.08918 -10.08675 -10.06783
 Alpha  occ. eigenvalues --  -10.06746 -10.06393 -10.06331 -10.06082 -10.05926
 Alpha  occ. eigenvalues --   -7.84613  -5.80910  -5.80597  -5.80141  -1.00090
 Alpha  occ. eigenvalues --   -0.91845  -0.86018  -0.81727  -0.79544  -0.72347
 Alpha  occ. eigenvalues --   -0.69802  -0.69368  -0.68320  -0.63577  -0.62327
 Alpha  occ. eigenvalues --   -0.61044  -0.56639  -0.53387  -0.51531  -0.49384
 Alpha  occ. eigenvalues --   -0.48874  -0.47078  -0.42458  -0.41437  -0.40274
 Alpha  occ. eigenvalues --   -0.39860  -0.38161  -0.36909  -0.36475  -0.35089
 Alpha  occ. eigenvalues --   -0.33229  -0.32873  -0.32539  -0.32229  -0.31992
 Alpha  occ. eigenvalues --   -0.30912  -0.29976  -0.29366  -0.29281  -0.29060
 Alpha  occ. eigenvalues --   -0.28759  -0.28189  -0.27452  -0.26205  -0.25555
 Alpha  occ. eigenvalues --   -0.22998  -0.20604  -0.19280  -0.17668  -0.15958
 Alpha  occ. eigenvalues --   -0.15488  -0.14011  -0.12713  -0.11312  -0.09044
 Alpha  occ. eigenvalues --    0.03770
 Alpha virt. eigenvalues --    0.05446   0.06994   0.07778   0.08367   0.08656
 Alpha virt. eigenvalues --    0.08768   0.09058   0.09338   0.10076   0.10935
 Alpha virt. eigenvalues --    0.11135   0.11689   0.12071   0.12168   0.12679

  Beta  occ. eigenvalues --  -88.75955 -19.07349 -18.95852 -14.23217 -14.21379
  Beta  occ. eigenvalues --  -14.18233 -10.14046 -10.13702 -10.11971 -10.11063
  Beta  occ. eigenvalues --  -10.10250 -10.09621 -10.08915 -10.08682 -10.06801
  Beta  occ. eigenvalues --  -10.06750 -10.06411 -10.06253 -10.06062 -10.05972
  Beta  occ. eigenvalues --   -7.84601  -5.80902  -5.80596  -5.80094  -0.99973
  Beta  occ. eigenvalues --   -0.91384  -0.85725  -0.81602  -0.79416  -0.72238
  Beta  occ. eigenvalues --   -0.69782  -0.69191  -0.68203  -0.63515  -0.62221
  Beta  occ. eigenvalues --   -0.60854  -0.56476  -0.53026  -0.51323  -0.49268
  Beta  occ. eigenvalues --   -0.48736  -0.46951  -0.42348  -0.41342  -0.40175
  Beta  occ. eigenvalues --   -0.39772  -0.38043  -0.36657  -0.36294  -0.34848
  Beta  occ. eigenvalues --   -0.33143  -0.32718  -0.32495  -0.32059  -0.31646
  Beta  occ. eigenvalues --   -0.30710  -0.29694  -0.29261  -0.29153  -0.28937
  Beta  occ. eigenvalues --   -0.28596  -0.27923  -0.27066  -0.25732  -0.25282
  Beta  occ. eigenvalues --   -0.22919  -0.20065  -0.18959  -0.17374  -0.15598
  Beta  occ. eigenvalues --   -0.15293  -0.13791  -0.12459  -0.10732  -0.08558
  Beta virt. eigenvalues --    0.06378   0.06971   0.08093   0.08206   0.08351
  Beta virt. eigenvalues --    0.08847   0.08933   0.09267   0.09957   0.10649
  Beta virt. eigenvalues --    0.10934   0.11378   0.11837   0.12121   0.12310

 Mulliken charges and spin densities:
               1          2
     1  C   -0.671392   0.000449
     2  C   -0.435481  -0.008004
     3  C    0.499037   0.018081
     4  C    1.212897  -0.067385
     5  C   -0.705240   0.125362
     6  O   -0.004770   0.010169
     7  C   -0.556228  -0.014164
     8  C   -0.448597   0.160347
     9  O   -0.370864   0.097404
    10  N   -0.200230  -0.033531
    11  C    0.261974   0.039069
    12  N    0.220458   0.061161
    13  C   -1.495686  -0.449668
    14  C    2.855532  -0.582530
    15  S   -0.487193   0.052099
    16  C   -0.687238   0.588872
    17  C   -0.067352  -0.217819
    18  C    0.340383  -0.336744
    19  C   -1.195158   0.460909
    20  N   -0.265838  -0.039517
    21  H    0.137575   0.003485
    22  H    0.151510  -0.001771
    23  H    0.152580   0.003013
    24  H    0.163871   0.005819
    25  H    0.135466   0.006537
    26  H    0.123259   0.016439
    27  H    0.204215   0.001887
    28  H    0.254558   0.061703
    29  H   -0.054176   0.200984
    30  H    0.016226   0.126164
    31  H    0.130573   0.021913
    32  H   -0.159835   0.401354
    33  H   -0.054838   0.287914
 Sum of Mulliken charges =  -1.00000   1.00000

 Dipole moment (field-independent basis, Debye):
    X=             -3.0041    Y=              2.3518    Z=             -1.2022  Tot=              4.0001
 Quadrupole moment (field-independent basis, Debye-Ang):
   XX=           -216.1800   YY=           -146.2246   ZZ=           -136.6064
   XY=            -17.0314   XZ=              2.0834   YZ=              1.4691

 Summary of Natural Population Analysis:

                                       Natural Population
                Natural  -----------------------------------------------
    Atom  No    Charge         Core      Valence    Rydberg      Total
 -----------------------------------------------------------------------
      C    1   -0.30228      0.99963     2.29842    0.00423     3.30228
      C    2    0.12819      0.99947     1.86010    0.01224     2.87181
      C    3   -0.12191      0.99947     2.11518    0.00726     3.12191
      C    4   -0.11867      0.99942     2.11067    0.00858     3.11867
      C    5    0.22432      0.99946     1.76371    0.01251     2.77568
      O    6   -0.24604      0.99985     3.23785    0.00834     4.24604
      C    7   -0.31364      0.99963     2.30948    0.00453     3.31364
      C    8    0.37872      0.99962     1.60130    0.02037     2.62128
      O    9   -0.29891      0.99988     3.29344    0.00559     4.29891
      N   10   -0.34005      0.99963     2.82895    0.01147     3.84005
      C   11    0.18190      0.99960     1.79827    0.02023     2.81810
      N   12   -0.23493      0.99961     2.72475    0.01057     3.73493
      C   13    0.03872      0.99943     1.94774    0.01411     2.96128
      C   14   -0.08567      0.99941     2.07574    0.01052     3.08567
      S   15    0.14508      4.99946     2.83704    0.01843     7.85492
      C   16   -0.14247      0.99946     2.13254    0.01047     3.14247
      C   17    0.10092      0.99951     1.88860    0.01098     2.89908
      C   18   -0.13917      0.99954     2.12975    0.00988     3.13917
      C   19   -0.07206      0.99953     2.06437    0.00816     3.07206
      N   20   -0.39740      0.99972     2.88737    0.01031     3.89740
      H   21    0.09963      0.00000     0.39911    0.00126     0.40037
      H   22    0.10204      0.00000     0.39681    0.00115     0.39796
      H   23    0.10729      0.00000     0.39203    0.00068     0.39271
      H   24    0.11219      0.00000     0.38702    0.00079     0.38781
      H   25    0.10164      0.00000     0.39734    0.00102     0.39836
      H   26    0.10284      0.00000     0.39606    0.00110     0.39716
      H   27    0.12516      0.00000     0.37400    0.00084     0.37484
      H   28    0.19950      0.00000     0.29880    0.00170     0.30050
      H   29    0.09897      0.00000     0.39939    0.00164     0.40103
      H   30    0.09593      0.00000     0.40320    0.00087     0.40407
      H   31    0.10178      0.00000     0.39688    0.00133     0.39822
      H   32    0.18478      0.00000     0.31196    0.00326     0.31522
      H   33    0.18360      0.00000     0.31393    0.00246     0.31640
 =======================================================================
   * Total *    0.00000     23.99131    50.77181    0.23688    75.00000

 Normal termination of Gaussian 16 at Sun Dec 13 14:26:43 2020.
