 Gaussian 16, Revision A.03,

 -----------------------------------------------------------
 # opt freq B3LYP/6-31G(d) empiricaldispersion=gd3bj scf=xqc
 -----------------------------------------------------------

 -------------------------------
 CID_101057273_JID_3055_neutraal
 -------------------------------
 Symbolic Z-matrix:
 Charge =  0 Multiplicity = 1

 SCF Done:  E(RB3LYP) =  -539.716269448     A.U. after   15 cycles
 SCF Done:  E(RB3LYP) =  -539.719480487     A.U. after   13 cycles
 SCF Done:  E(RB3LYP) =  -539.718880730     A.U. after   13 cycles
 SCF Done:  E(RB3LYP) =  -539.720188316     A.U. after   12 cycles
 SCF Done:  E(RB3LYP) =  -539.720691338     A.U. after   12 cycles
 SCF Done:  E(RB3LYP) =  -539.721320677     A.U. after   13 cycles
 SCF Done:  E(RB3LYP) =  -539.721833578     A.U. after   13 cycles
 SCF Done:  E(RB3LYP) =  -539.722263054     A.U. after   13 cycles
 SCF Done:  E(RB3LYP) =  -539.722482350     A.U. after   13 cycles
 SCF Done:  E(RB3LYP) =  -539.722543030     A.U. after   12 cycles
 SCF Done:  E(RB3LYP) =  -539.722938256     A.U. after   11 cycles
 SCF Done:  E(RB3LYP) =  -539.722904290     A.U. after   13 cycles
 SCF Done:  E(RB3LYP) =  -539.722947237     A.U. after   12 cycles
 SCF Done:  E(RB3LYP) =  -539.722947266     A.U. after    8 cycles
 SCF Done:  E(RB3LYP) =  -539.722947794     A.U. after    9 cycles
 SCF Done:  E(RB3LYP) =  -539.722947883     A.U. after    8 cycles
 Optimization completed.
    -- Stationary point found.
 Normal termination of Gaussian 16 at Wed Dec  9 22:25:49 2020.

 --------------------------------------------------------------------
 #N Geom=AllCheck Guess=TCheck SCRF=Check GenChk RB3LYP/6-31G(d) Freq
 --------------------------------------------------------------------

 Structure from the checkpoint file:  "JID_3055.chk"
 -------------------------------
 CID_101057273_JID_3055_neutraal
 -------------------------------
 Charge =  0 Multiplicity = 1

 SCF Done:  E(RB3LYP) =  -539.722947883     A.U. after    1 cycles

  Exact polarizability: 167.613  -0.591 136.305  -6.061  -7.602  71.973
 Approx polarizability: 250.731  10.245 224.510 -17.460 -24.470 113.973

                      1                      2                      3
                      A                      A                      A
 Frequencies --     50.3583                77.0534                96.2385
 Red. masses --      4.0654                 2.8739                 3.5100
 Frc consts  --      0.0061                 0.0101                 0.0192
 IR Inten    --      3.5223                 0.7106                 1.3116

                      4                      5                      6
                      A                      A                      A
 Frequencies --    120.7318               134.4220               182.1410
 Red. masses --      1.8555                 3.8322                 1.8012
 Frc consts  --      0.0159                 0.0408                 0.0352
 IR Inten    --      0.2250                 1.4881                 0.4497

                      7                      8                      9
                      A                      A                      A
 Frequencies --    223.6700               264.3721               316.3187
 Red. masses --      2.6192                 2.6035                 5.0506
 Frc consts  --      0.0772                 0.1072                 0.2977
 IR Inten    --      2.3387                 0.5008                 1.0953

                     10                     11                     12
                      A                      A                      A
 Frequencies --    331.5437               394.9602               399.6963
 Red. masses --      3.2227                 3.7524                 4.6014
 Frc consts  --      0.2087                 0.3449                 0.4331
 IR Inten    --      3.4084                 0.3402                 1.2871

                     13                     14                     15
                      A                      A                      A
 Frequencies --    484.5746               533.2145               562.3453
 Red. masses --      2.9384                 3.7337                 2.9527
 Frc consts  --      0.4065                 0.6254                 0.5501
 IR Inten    --      5.8544                 3.5180                 0.6497

                     16                     17                     18
                      A                      A                      A
 Frequencies --    595.8327               628.2168               681.3985
 Red. masses --      3.6653                 3.1140                 5.2362
 Frc consts  --      0.7667                 0.7241                 1.4324
 IR Inten    --     12.4498                 3.2606                 1.3482

                     19                     20                     21
                      A                      A                      A
 Frequencies --    745.6676               760.6931               777.3767
 Red. masses --      2.2064                 3.5207                 1.6065
 Frc consts  --      0.7228                 1.2003                 0.5720
 IR Inten    --     14.0586                 7.5557                31.9961

                     22                     23                     24
                      A                      A                      A
 Frequencies --    796.6262               883.6034               893.7143
 Red. masses --      1.5608                 1.2178                 1.3942
 Frc consts  --      0.5836                 0.5602                 0.6561
 IR Inten    --      5.2007                10.2008                 0.9843

                     25                     26                     27
                      A                      A                      A
 Frequencies --    897.5370               923.6377               953.9749
 Red. masses --      2.9131                 3.0371                 2.0686
 Frc consts  --      1.3826                 1.5265                 1.1092
 IR Inten    --      4.4077                 9.0631                 2.7509

                     28                     29                     30
                      A                      A                      A
 Frequencies --    960.0135               990.3578               993.0833
 Red. masses --      1.3920                 1.8308                 1.5597
 Frc consts  --      0.7559                 1.0580                 0.9063
 IR Inten    --      1.3656                 8.9300                10.6887

                     31                     32                     33
                      A                      A                      A
 Frequencies --   1045.9055              1055.8275              1057.7989
 Red. masses --      1.8078                 1.8770                 4.0714
 Frc consts  --      1.1652                 1.2328                 2.6841
 IR Inten    --      7.2363                 0.4017                 1.0855

                     34                     35                     36
                      A                      A                      A
 Frequencies --   1074.9075              1106.8744              1111.9366
 Red. masses --      3.0120                 1.3943                 1.6236
 Frc consts  --      2.0504                 1.0065                 1.1827
 IR Inten    --      4.9104                 5.1357                 0.1827

                     37                     38                     39
                      A                      A                      A
 Frequencies --   1140.4108              1182.1745              1197.1888
 Red. masses --      1.7611                 1.1657                 1.0951
 Frc consts  --      1.3494                 0.9599                 0.9248
 IR Inten    --      6.5860                 0.5317                 0.5786

                     40                     41                     42
                      A                      A                      A
 Frequencies --   1223.5695              1227.9438              1267.2070
 Red. masses --      1.4063                 1.6194                 2.1118
 Frc consts  --      1.2404                 1.4387                 1.9980
 IR Inten    --      1.0227                 2.7076                47.2552

                     43                     44                     45
                      A                      A                      A
 Frequencies --   1289.0525              1300.2416              1334.4305
 Red. masses --      1.8963                 2.5507                 2.3317
 Frc consts  --      1.8566                 2.5407                 2.4463
 IR Inten    --      9.5781                80.0941                 8.0528

                     46                     47                     48
                      A                      A                      A
 Frequencies --   1348.6168              1413.9046              1489.1048
 Red. masses --      7.9304                 1.2642                 2.1637
 Frc consts  --      8.4981                 1.4891                 2.8268
 IR Inten    --      1.0799                36.4556                 5.4805

                     49                     50                     51
                      A                      A                      A
 Frequencies --   1497.7447              1500.3192              1508.4168
 Red. masses --      1.0815                 1.1042                 1.1056
 Frc consts  --      1.4293                 1.4645                 1.4821
 IR Inten    --      1.7114                 9.2169                 3.6087

                     52                     53                     54
                      A                      A                      A
 Frequencies --   1516.9296              1525.0975              1620.3126
 Red. masses --      1.5614                 1.4954                 5.6889
 Frc consts  --      2.1168                 2.0492                 8.7999
 IR Inten    --      7.3447                 1.2034                 1.6181

                     55                     56                     57
                      A                      A                      A
 Frequencies --   1653.2882              1688.2138              1784.6030
 Red. masses --      5.6002                 7.1574                11.3008
 Frc consts  --      9.0188                12.0188                21.2052
 IR Inten    --     17.4862                 1.2008               176.5872

                     58                     59                     60
                      A                      A                      A
 Frequencies --   3052.6073              3053.3706              3072.6994
 Red. masses --      1.0452                 1.0568                 1.0596
 Frc consts  --      5.7383                 5.8048                 5.8944
 IR Inten    --      3.9942                63.6476                29.6763

                     61                     62                     63
                      A                      A                      A
 Frequencies --   3092.9742              3121.2049              3128.2709
 Red. masses --      1.1076                 1.1049                 1.0887
 Frc consts  --      6.2429                 6.3420                 6.2769
 IR Inten    --     15.2626                29.5971                10.9583

                     64                     65                     66
                      A                      A                      A
 Frequencies --   3174.9889              3188.0144              3197.2428
 Red. masses --      1.1054                 1.0856                 1.0964
 Frc consts  --      6.5653                 6.5009                 6.6036
 IR Inten    --      6.3742                 1.4344                13.4560

                     67                     68                     69
                      A                      A                      A
 Frequencies --   3200.0660              3209.4113              3218.7843
 Red. masses --      1.0901                 1.0938                 1.0958
 Frc consts  --      6.5772                 6.6380                 6.6892
 IR Inten    --     10.5119                19.6941                16.7066

 - Thermochemistry -
 -------------------
 Temperature   298.150 Kelvin.  Pressure   1.00000 Atm.
 Atom     1 has atomic number  6 and mass  12.00000

 Molecular mass:   172.08882 amu.
 Principal axes and moments of inertia in atomic units:
                           1         2         3
     Eigenvalues --  1666.363202446.331243745.46512
           X            0.99962  -0.02762   0.00213
           Y            0.02758   0.99947   0.01724
           Z           -0.00260  -0.01717   0.99985
 This molecule is an asymmetric top.
 Rotational symmetry number  1.
 Warning -- assumption of classical behavior for rotation
           may cause significant error
 Rotational temperatures (Kelvin)      0.05198     0.03541     0.02313
 Rotational constants (GHZ):           1.08304     0.73773     0.48185
 Zero-point vibrational energy     541459.9 (Joules/Mol)
                                  129.41203 (Kcal/Mol)
 Warning -- explicit consideration of  16 degrees of freedom as
           vibrations may cause significant error
 Vibrational temperatures:     72.45   110.86   138.47   173.71   193.40
          (Kelvin)            262.06   321.81   380.37   455.11   477.02
                              568.26   575.07   697.19   767.18   809.09
                              857.27   903.86   980.38  1072.85  1094.47
                             1118.47  1146.17  1271.31  1285.86  1291.36
                             1328.91  1372.56  1381.25  1424.90  1428.83
                             1504.82  1519.10  1521.94  1546.55  1592.55
                             1599.83  1640.80  1700.89  1722.49  1760.44
                             1766.74  1823.23  1854.66  1870.76  1919.95
                             1940.36  2034.29  2142.49  2154.92  2158.62
                             2170.28  2182.52  2194.28  2331.27  2378.71
                             2428.96  2567.65  4392.02  4393.12  4420.93
                             4450.10  4490.72  4500.88  4568.10  4586.84
                             4600.12  4604.18  4617.63  4631.11

 Zero-point correction=                           0.206231 (Hartree/Particle)
 Thermal correction to Energy=                    0.217900
 Thermal correction to Enthalpy=                  0.218845
 Thermal correction to Gibbs Free Energy=         0.168068
 Sum of electronic and zero-point Energies=           -539.516717
 Sum of electronic and thermal Energies=              -539.505048
 Sum of electronic and thermal Enthalpies=            -539.504103
 Sum of electronic and thermal Free Energies=         -539.554880

                     E (Thermal)             CV                S
                      KCal/Mol        Cal/Mol-Kelvin    Cal/Mol-Kelvin
 Total                  136.735             44.495            106.868
 Electronic               0.000              0.000              0.000
 Translational            0.889              2.981             41.336
 Rotational               0.889              2.981             31.102
 Vibrational            134.957             38.533             34.429
 Vibration     1          0.595              1.977              4.803
 Vibration     2          0.599              1.964              3.965
 Vibration     3          0.603              1.952              3.529
 Vibration     4          0.609              1.932              3.089
 Vibration     5          0.613              1.919              2.882
 Vibration     6          0.630              1.864              2.306
 Vibration     7          0.649              1.805              1.929
 Vibration     8          0.671              1.738              1.633
 Vibration     9          0.703              1.642              1.329
 Vibration    10          0.714              1.613              1.253
 Vibration    11          0.762              1.481              0.981
 Vibration    12          0.766              1.471              0.964
 Vibration    13          0.841              1.284              0.698
 Vibration    14          0.888              1.177              0.580
 Vibration    15          0.918              1.113              0.519
 Vibration    16          0.954              1.041              0.457

 Optimization completed.
    -- Stationary point found.
 Normal termination of Gaussian 16 at Wed Dec  9 22:31:59 2020.

 ----------------------------------------------------------------------
 # B3LYP/6-311++G(d,p) empiricaldispersion=gd3bj scf=xqc pop=npa geom=c
 heck
 ----------------------------------------------------------------------

 ---------------------------------------
 CID_101057273_JID_3055_Energie_neutraal
 ---------------------------------------
 Structure from the checkpoint file:  "JID_3055.chk"
 Charge =  0 Multiplicity = 1

 SCF Done:  E(RB3LYP) =  -539.865557513     A.U. after   15 cycles
 Normal termination of Gaussian 16 at Wed Dec  9 22:34:07 2020.

 ----------------------------------------------------------------------
 # B3LYP/6-311++G(d,p) empiricaldispersion=gd3bj scf=xqc pop=npa geom=c
 heck
 ----------------------------------------------------------------------

 -------------------------------------
 CID_101057273_JID_3055_Energie_kation
 -------------------------------------
 Structure from the checkpoint file:  "JID_3055.chk"
 Charge =  1 Multiplicity = 2

 SCF Done:  E(UB3LYP) =  -539.560830158     A.U. after   25 cycles
 Normal termination of Gaussian 16 at Wed Dec  9 22:39:04 2020.
 Gaussian 16:  ES64L-G16RevA.03 25-Dec-2016

 ----------------------------------------------------------------------
 # B3LYP/6-311++G(d,p) empiricaldispersion=gd3bj scf=xqc pop=npa geom=c
 heck
 ----------------------------------------------------------------------

 ------------------------------------
 CID_101057273_JID_3055_Energie_anion
 ------------------------------------
 Structure from the checkpoint file:  "JID_3055.chk"
 Charge = -1 Multiplicity = 2

                         Standard orientation:
 ---------------------------------------------------------------------
 Center     Atomic      Atomic             Coordinates (Angstroms)
 Number     Number       Type             X           Y           Z
 ---------------------------------------------------------------------
      1          6           0       -0.536571    2.197247    1.147413
      2          6           0        0.430509    1.851577    0.026954
      3          8           0        0.864505    2.716483   -0.715291
      4          6           0        0.967885    0.449254   -0.033197
      5          6           0        2.359619    0.321463   -0.122670
      6          6           0        2.968600   -0.929057   -0.068875
      7          6           0        2.179207   -2.074310    0.052705
      8          6           0        0.792329   -1.961495    0.091579
      9          6           0        0.160880   -0.707552    0.047583
     10          6           0       -1.302930   -0.658995   -0.017305
     11          6           0       -2.291867   -1.392223    0.534193
     12          6           0       -3.405348   -0.689220   -0.216759
     13          6           0       -2.264034    0.164954   -0.874957
     14          1           0        0.069594    2.485680    2.016874
     15          1           0       -1.165449    1.359277    1.452680
     16          1           0       -1.145130    3.058456    0.861373
     17          1           0        2.954241    1.224766   -0.214993
     18          1           0        4.050149   -1.010836   -0.123860
     19          1           0        2.642269   -3.056211    0.092957
     20          1           0        0.172983   -2.853120    0.121911
     21          1           0       -2.297166   -2.199768    1.261944
     22          1           0       -4.113376   -0.119643    0.397338
     23          1           0       -3.974856   -1.310313   -0.918351
     24          1           0       -2.145223    0.021139   -1.954608
     25          1           0       -2.313739    1.238857   -0.670931
 ---------------------------------------------------------------------

 SCF Done:  E(UB3LYP) =  -539.872759261     A.U. after   29 cycles

 The electronic state is 2-A.
 Alpha  occ. eigenvalues --  -18.93072 -10.07667 -10.04902 -10.04361 -10.03520
 Alpha  occ. eigenvalues --  -10.02911 -10.02456 -10.02450 -10.02353 -10.02309
 Alpha  occ. eigenvalues --  -10.02256 -10.02186 -10.01397  -0.87000  -0.73115
 Alpha  occ. eigenvalues --   -0.70367  -0.61883  -0.60687  -0.58116  -0.52683
 Alpha  occ. eigenvalues --   -0.51724  -0.47144  -0.45859  -0.40307  -0.37942
 Alpha  occ. eigenvalues --   -0.36565  -0.33842  -0.32687  -0.31497  -0.30276
 Alpha  occ. eigenvalues --   -0.29083  -0.28263  -0.26991  -0.25260  -0.24964
 Alpha  occ. eigenvalues --   -0.23701  -0.22825  -0.22167  -0.20631  -0.19983
 Alpha  occ. eigenvalues --   -0.19256  -0.18035  -0.14029  -0.11228  -0.09101
 Alpha  occ. eigenvalues --   -0.08600   0.05039
 Alpha virt. eigenvalues --    0.08629   0.09369   0.10049   0.10487   0.11071
 Alpha virt. eigenvalues --    0.11287   0.11626   0.12541   0.13582   0.13712
 Alpha virt. eigenvalues --    0.14571   0.15077   0.15566   0.15723   0.16712

  Beta  occ. eigenvalues --  -18.92684 -10.07400 -10.04913 -10.04352 -10.03508
  Beta  occ. eigenvalues --  -10.02983 -10.02477 -10.02466 -10.02137 -10.02135
  Beta  occ. eigenvalues --  -10.02061 -10.01998 -10.01203  -0.86271  -0.72893
  Beta  occ. eigenvalues --   -0.70075  -0.61344  -0.60381  -0.57906  -0.52468
  Beta  occ. eigenvalues --   -0.51516  -0.46586  -0.45685  -0.39986  -0.37664
  Beta  occ. eigenvalues --   -0.36246  -0.33672  -0.32447  -0.31211  -0.30096
  Beta  occ. eigenvalues --   -0.28669  -0.28041  -0.26651  -0.25009  -0.24741
  Beta  occ. eigenvalues --   -0.23564  -0.22633  -0.21474  -0.20467  -0.19482
  Beta  occ. eigenvalues --   -0.18307  -0.17598  -0.13068  -0.10332  -0.08333
  Beta  occ. eigenvalues --   -0.07676
  Beta virt. eigenvalues --    0.08519   0.09260   0.10013   0.10445   0.10614
  Beta virt. eigenvalues --    0.11131   0.11363   0.12085   0.12529   0.13535
  Beta virt. eigenvalues --    0.13659   0.14525   0.15107   0.15906   0.16928

 Mulliken charges and spin densities:
               1          2
     1  C   -0.633183  -0.031910
     2  C   -0.289204   0.161827
     3  O   -0.349248   0.138080
     4  C    0.759938   0.126616
     5  C   -0.176266   0.008358
     6  C   -0.398803   0.099592
     7  C   -0.360821   0.159251
     8  C   -0.330615  -0.058591
     9  C    0.434065   0.162683
    10  C    0.071351  -0.021240
    11  C   -0.226265   0.222472
    12  C   -0.363949  -0.116444
    13  C   -0.494540   0.028135
    14  H    0.127608   0.018543
    15  H    0.150787   0.010189
    16  H    0.101571   0.027082
    17  H    0.145694   0.007477
    18  H    0.104053  -0.007857
    19  H    0.102856  -0.011823
    20  H    0.107966   0.006539
    21  H    0.106200  -0.004634
    22  H    0.091979   0.017935
    23  H    0.076558   0.028130
    24  H    0.127351   0.013560
    25  H    0.114915   0.016029
 Sum of Mulliken charges =  -1.00000   1.00000

 Dipole moment (field-independent basis, Debye):
    X=             -1.9873    Y=             -2.6409    Z=              1.2889  Tot=              3.5475
 Quadrupole moment (field-independent basis, Debye-Ang):
   XX=           -101.1369   YY=           -105.4408   ZZ=            -89.2298
   XY=             -3.1143   XZ=              2.0619   YZ=              4.7018

 Summary of Natural Population Analysis:

                                       Natural Population
                Natural  -----------------------------------------------
    Atom  No    Charge         Core      Valence    Rydberg      Total
 -----------------------------------------------------------------------
      C    1   -0.33237      0.99963     2.32831    0.00443     3.33237
      C    2    0.31099      0.99965     1.66918    0.02019     2.68901
      O    3   -0.26907      0.99988     3.26223    0.00697     4.26907
      C    4   -0.01699      0.99944     2.00587    0.01167     3.01699
      C    5   -0.08931      0.99953     2.08132    0.00845     3.08931
      C    6   -0.09652      0.99957     2.08740    0.00955     3.09652
      C    7   -0.07646      0.99957     2.06745    0.00944     3.07646
      C    8   -0.10730      0.99954     2.09999    0.00777     3.10730
      C    9    0.00172      0.99945     1.98890    0.00993     2.99828
      C   10   -0.00687      0.99949     1.99417    0.01321     3.00687
      C   11   -0.06181      0.99946     2.05504    0.00731     3.06181
      C   12   -0.19997      0.99967     2.19280    0.00750     3.19997
      C   13   -0.18703      0.99962     2.18045    0.00696     3.18703
      H   14    0.10541      0.00000     0.39380    0.00079     0.39459
      H   15    0.10557      0.00000     0.39281    0.00161     0.39443
      H   16    0.09918      0.00000     0.39838    0.00244     0.40082
      H   17    0.10024      0.00000     0.39864    0.00112     0.39976
      H   18    0.08807      0.00000     0.41087    0.00106     0.41193
      H   19    0.08693      0.00000     0.41203    0.00104     0.41307
      H   20    0.09323      0.00000     0.40524    0.00153     0.40677
      H   21    0.08526      0.00000     0.41373    0.00101     0.41474
      H   22    0.08897      0.00000     0.40936    0.00167     0.41103
      H   23    0.08748      0.00000     0.41045    0.00207     0.41252
      H   24    0.09307      0.00000     0.40524    0.00170     0.40693
      H   25    0.09760      0.00000     0.40000    0.00240     0.40240
 =======================================================================
   * Total *    0.00000     12.99449    32.86367    0.14183    46.00000

 Normal termination of Gaussian 16 at Wed Dec  9 22:44:41 2020.
