 Gaussian 16, Revision A.03,

 -----------------------------------------------------------
 # opt freq B3LYP/6-31G(d) empiricaldispersion=gd3bj scf=xqc
 -----------------------------------------------------------

 ------------------------------
 CID_88885100_JID_2617_neutraal
 ------------------------------
 Symbolic Z-matrix:
 Charge =  0 Multiplicity = 1

 SCF Done:  E(RB3LYP) =  -589.412341141     A.U. after   17 cycles
 SCF Done:  E(RB3LYP) =  -589.417948561     A.U. after   17 cycles
 SCF Done:  E(RB3LYP) =  -589.419328893     A.U. after   18 cycles
 SCF Done:  E(RB3LYP) =  -589.417213778     A.U. after   15 cycles
 SCF Done:  E(RB3LYP) =  -589.419710420     A.U. after   14 cycles
 SCF Done:  E(RB3LYP) =  -589.419807564     A.U. after   13 cycles
 SCF Done:  E(RB3LYP) =  -589.419811294     A.U. after   11 cycles
 SCF Done:  E(RB3LYP) =  -589.419812635     A.U. after   11 cycles
 SCF Done:  E(RB3LYP) =  -589.419813133     A.U. after    8 cycles
 SCF Done:  E(RB3LYP) =  -589.419813263     A.U. after   10 cycles
 Optimization completed.
    -- Stationary point found.
 Normal termination of Gaussian 16 at Wed Dec  9 17:40:35 2020.

 --------------------------------------------------------------------
 #N Geom=AllCheck Guess=TCheck SCRF=Check GenChk RB3LYP/6-31G(d) Freq
 --------------------------------------------------------------------

 Structure from the checkpoint file:  "JID_2617.chk"
 ------------------------------
 CID_88885100_JID_2617_neutraal
 ------------------------------
 Charge =  0 Multiplicity = 1

 SCF Done:  E(RB3LYP) =  -589.419813263     A.U. after    1 cycles

  Exact polarizability: 152.489  -5.703 117.186   0.003  -0.005  41.808
 Approx polarizability: 276.522 -25.937 194.820   0.006  -0.013  64.045

                      1                      2                      3
                      A                      A                      A
 Frequencies --     72.5037                93.3286               144.1945
 Red. masses --     10.2862                 3.4143                 3.8530
 Frc consts  --      0.0319                 0.0175                 0.0472
 IR Inten    --      4.1733                 0.9179                10.3435

                      4                      5                      6
                      A                      A                      A
 Frequencies --    167.0405               173.3500               191.9547
 Red. masses --      3.2457                 5.4178                 7.1106
 Frc consts  --      0.0534                 0.0959                 0.1544
 IR Inten    --      3.9520                 6.3482                 3.2535

                      7                      8                      9
                      A                      A                      A
 Frequencies --    194.8251               268.8193               298.5710
 Red. masses --      2.8422                 1.3908                 6.2015
 Frc consts  --      0.0636                 0.0592                 0.3257
 IR Inten    --      0.6274                 1.0965                 0.9423

                     10                     11                     12
                      A                      A                      A
 Frequencies --    348.1482               383.9834               459.3273
 Red. masses --      4.7047                 5.4933                 5.8624
 Frc consts  --      0.3360                 0.4772                 0.7287
 IR Inten    --      1.3212                 0.9146                 7.4258

                     13                     14                     15
                      A                      A                      A
 Frequencies --    469.7275               523.7914               606.7791
 Red. masses --      3.0704                 7.9009                 6.8739
 Frc consts  --      0.3991                 1.2772                 1.4911
 IR Inten    --      1.2064                 6.6605                 9.5599

                     16                     17                     18
                      A                      A                      A
 Frequencies --    609.8926               701.1785               720.5942
 Red. masses --      5.6077                 5.5881                 3.9875
 Frc consts  --      1.2290                 1.6187                 1.2199
 IR Inten    --      0.6440                12.8892                 0.1114

                     19                     20                     21
                      A                      A                      A
 Frequencies --    765.6681               824.7730               858.7284
 Red. masses --      7.5433                 4.5003                 1.2786
 Frc consts  --      2.6055                 1.8037                 0.5555
 IR Inten    --     42.9661                58.2801                25.7397

                     22                     23                     24
                      A                      A                      A
 Frequencies --    904.3340               975.2386               990.6792
 Red. masses --      1.4294                 5.0020                 1.3154
 Frc consts  --      0.6887                 2.8030                 0.7606
 IR Inten    --     25.6750                11.7873                 0.1185

                     25                     26                     27
                      A                      A                      A
 Frequencies --   1034.9959              1067.6147              1120.0388
 Red. masses --      1.7986                 3.6307                 2.6853
 Frc consts  --      1.1351                 2.4382                 1.9848
 IR Inten    --      0.1424                31.4462               159.5763

                     28                     29                     30
                      A                      A                      A
 Frequencies --   1136.1760              1185.2538              1205.3514
 Red. masses --      1.6708                 1.2678                 2.2788
 Frc consts  --      1.2707                 1.0494                 1.9507
 IR Inten    --     51.8114                 0.8994                30.9321

                     31                     32                     33
                      A                      A                      A
 Frequencies --   1223.9234              1293.1643              1298.2663
 Red. masses --      1.5307                 2.5070                 1.9649
 Frc consts  --      1.3510                 2.4701                 1.9513
 IR Inten    --      2.1407                72.9875               122.9651

                     34                     35                     36
                      A                      A                      A
 Frequencies --   1377.1410              1440.9998              1459.5624
 Red. masses --      5.3525                 1.7296                 2.2864
 Frc consts  --      5.9809                 2.1161                 2.8697
 IR Inten    --     69.3045               161.4859               107.5564

                     37                     38                     39
                      A                      A                      A
 Frequencies --   1496.3773              1521.9962              1523.4186
 Red. masses --      1.5557                 1.0467                 1.6690
 Frc consts  --      2.0524                 1.4286                 2.2821
 IR Inten    --     52.7180                 7.5268                95.7777

                     40                     41                     42
                      A                      A                      A
 Frequencies --   1535.5120              1604.5886              1639.3647
 Red. masses --      1.1976                10.0289                 7.9143
 Frc consts  --      1.6637                15.2136                12.5318
 IR Inten    --      6.0576                91.8190                15.9240

                     43                     44                     45
                      A                      A                      A
 Frequencies --   1665.2761              1787.4310              3013.1398
 Red. masses --      7.2291                 9.2686                 1.0864
 Frc consts  --     11.8115                17.4470                 5.8112
 IR Inten    --    121.2212               214.9775                81.7282

                     46                     47                     48
                      A                      A                      A
 Frequencies --   3042.9858              3109.1089              3175.4201
 Red. masses --      1.0337                 1.1075                 1.1016
 Frc consts  --      5.6395                 6.3078                 6.5444
 IR Inten    --     38.2906                30.0539                16.6176

                     49                     50                     51
                      A                      A                      A
 Frequencies --   3219.6925              3231.2746              3248.8098
 Red. masses --      1.0880                 1.0949                 1.0891
 Frc consts  --      6.6453                 6.7354                 6.7726
 IR Inten    --      0.1005                 1.4497                 4.5986

 - Thermochemistry -
 -------------------
 Temperature   298.150 Kelvin.  Pressure   1.00000 Atm.
 Atom     1 has atomic number  6 and mass  12.00000

 Molecular mass:   165.04259 amu.
 Principal axes and moments of inertia in atomic units:
                           1         2         3
     Eigenvalues --  1299.098992572.401263859.95937
           X            0.99999   0.00502   0.00000
           Y           -0.00502   0.99999   0.00000
           Z           -0.00000  -0.00000   1.00000
 This molecule is an asymmetric top.
 Rotational symmetry number  1.
 Warning -- assumption of classical behavior for rotation
           may cause significant error
 Rotational temperatures (Kelvin)      0.06667     0.03367     0.02244
 Rotational constants (GHZ):           1.38923     0.70158     0.46755
 Zero-point vibrational energy     367279.4 (Joules/Mol)
                                   87.78188 (Kcal/Mol)
 Warning -- explicit consideration of  16 degrees of freedom as
           vibrations may cause significant error
 Vibrational temperatures:    104.32   134.28   207.46   240.33   249.41
          (Kelvin)            276.18   280.31   386.77   429.58   500.91
                              552.47   660.87   675.83   753.62   873.02
                              877.50  1008.84  1036.77  1101.63  1186.66
                             1235.52  1301.13  1403.15  1425.37  1489.13
                             1536.06  1611.49  1634.70  1705.32  1734.23
                             1760.95  1860.58  1867.92  1981.40  2073.28
                             2099.98  2152.95  2189.81  2191.86  2209.26
                             2308.65  2358.68  2395.96  2571.71  4335.24
                             4378.18  4473.31  4568.72  4632.42  4649.08
                             4674.31

 Zero-point correction=                           0.139889 (Hartree/Particle)
 Thermal correction to Energy=                    0.150662
 Thermal correction to Enthalpy=                  0.151606
 Thermal correction to Gibbs Free Energy=         0.103095
 Sum of electronic and zero-point Energies=           -589.279924
 Sum of electronic and thermal Energies=              -589.269151
 Sum of electronic and thermal Enthalpies=            -589.268207
 Sum of electronic and thermal Free Energies=         -589.316719

                     E (Thermal)             CV                S
                      KCal/Mol        Cal/Mol-Kelvin    Cal/Mol-Kelvin
 Total                   94.542             39.212            102.101
 Electronic               0.000              0.000              0.000
 Translational            0.889              2.981             41.211
 Rotational               0.889              2.981             30.934
 Vibrational             92.764             33.251             29.955
 Vibration     1          0.599              1.967              4.084
 Vibration     2          0.602              1.954              3.589
 Vibration     3          0.616              1.909              2.747
 Vibration     4          0.624              1.883              2.469
 Vibration     5          0.627              1.875              2.399
 Vibration     6          0.634              1.851              2.209
 Vibration     7          0.635              1.847              2.181
 Vibration     8          0.673              1.730              1.604
 Vibration     9          0.692              1.676              1.425
 Vibration    10          0.726              1.579              1.175
 Vibration    11          0.753              1.504              1.023
 Vibration    12          0.817              1.340              0.768
 Vibration    13          0.827              1.317              0.738
 Vibration    14          0.879              1.197              0.601
 Vibration    15          0.965              1.017              0.438
 Vibration    16          0.969              1.011              0.433

 Optimization completed.
    -- Stationary point found.
 Normal termination of Gaussian 16 at Wed Dec  9 17:44:22 2020.

 ----------------------------------------------------------------------
 # B3LYP/6-311++G(d,p) empiricaldispersion=gd3bj scf=xqc pop=npa geom=c
 heck
 ----------------------------------------------------------------------

 --------------------------------------
 CID_88885100_JID_2617_Energie_neutraal
 --------------------------------------
 Structure from the checkpoint file:  "JID_2617.chk"
 Charge =  0 Multiplicity = 1

 SCF Done:  E(RB3LYP) =  -589.585559778     A.U. after   16 cycles
 Normal termination of Gaussian 16 at Wed Dec  9 17:47:00 2020.

 ----------------------------------------------------------------------
 # B3LYP/6-311++G(d,p) empiricaldispersion=gd3bj scf=xqc pop=npa geom=c
 heck
 ----------------------------------------------------------------------

 ------------------------------------
 CID_88885100_JID_2617_Energie_kation
 ------------------------------------
 Structure from the checkpoint file:  "JID_2617.chk"
 Charge =  1 Multiplicity = 2

 SCF Done:  E(UB3LYP) =  -589.265239354     A.U. after   28 cycles
 Normal termination of Gaussian 16 at Wed Dec  9 17:52:24 2020.
 Gaussian 16:  ES64L-G16RevA.03 25-Dec-2016

 ----------------------------------------------------------------------
 # B3LYP/6-311++G(d,p) empiricaldispersion=gd3bj scf=xqc pop=npa geom=c
 heck
 ----------------------------------------------------------------------

 -----------------------------------
 CID_88885100_JID_2617_Energie_anion
 -----------------------------------
 Structure from the checkpoint file:  "JID_2617.chk"
 Charge = -1 Multiplicity = 2

                         Standard orientation:
 ---------------------------------------------------------------------
 Center     Atomic      Atomic             Coordinates (Angstroms)
 Number     Number       Type             X           Y           Z
 ---------------------------------------------------------------------
      1          6           0        0.297025    3.072950    0.000247
      2          8           0        1.069574    1.876834   -0.000112
      3          6           0        0.412827    0.690649    0.000030
      4          6           0        1.223603   -0.475341    0.000093
      5          6           0        0.626488   -1.739861    0.000244
      6          6           0       -0.757092   -1.871668    0.000356
      7          6           0       -1.537644   -0.713633    0.000158
      8          6           0       -0.973881    0.566617   -0.000023
      9          7           0       -2.966033   -0.931672    0.000204
     10          8           0       -3.636962    0.088958   -0.000634
     11          6           0        2.705457   -0.381368    0.000018
     12          8           0        3.431800   -1.358943   -0.000534
     13          1           0        1.018715    3.890132    0.000608
     14          1           0       -0.332651    3.136100    0.895567
     15          1           0       -0.332489    3.136766   -0.895145
     16          1           0        1.282762   -2.603813    0.000262
     17          1           0       -1.248877   -2.838497    0.000600
     18          1           0       -1.644881    1.415917   -0.000306
     19          1           0        3.123658    0.640240    0.000489
 ---------------------------------------------------------------------

 SCF Done:  E(UB3LYP) =  -589.655384924     A.U. after   22 cycles

 The electronic state is 2-A.
 Alpha  occ. eigenvalues --  -19.04573 -18.96582 -18.96165 -14.20879 -10.12766
 Alpha  occ. eigenvalues --  -10.11316 -10.10635 -10.04825 -10.03954 -10.03655
 Alpha  occ. eigenvalues --  -10.03319 -10.03248  -0.96322  -0.95284  -0.89929
 Alpha  occ. eigenvalues --   -0.72708  -0.65449  -0.62609  -0.59318  -0.55275
 Alpha  occ. eigenvalues --   -0.47489  -0.46896  -0.43751  -0.39326  -0.37673
 Alpha  occ. eigenvalues --   -0.37001  -0.35262  -0.32410  -0.31637  -0.29764
 Alpha  occ. eigenvalues --   -0.28973  -0.28836  -0.27162  -0.26317  -0.24426
 Alpha  occ. eigenvalues --   -0.24368  -0.22339  -0.21147  -0.20002  -0.12681
 Alpha  occ. eigenvalues --   -0.11698  -0.10852  -0.04417  -0.00344
 Alpha virt. eigenvalues --    0.07568   0.09047   0.10395   0.10817   0.11785
 Alpha virt. eigenvalues --    0.11846   0.12930   0.13271   0.14451   0.15546
 Alpha virt. eigenvalues --    0.15976   0.17140   0.17425   0.18873   0.19247

  Beta  occ. eigenvalues --  -19.04589 -18.96297 -18.95289 -14.20402 -10.12764
  Beta  occ. eigenvalues --  -10.11355 -10.10552 -10.04739 -10.03889 -10.03506
  Beta  occ. eigenvalues --  -10.03294 -10.03132  -0.96345  -0.93836  -0.89426
  Beta  occ. eigenvalues --   -0.72461  -0.65096  -0.62265  -0.59042  -0.54284
  Beta  occ. eigenvalues --   -0.47408  -0.46270  -0.43575  -0.39042  -0.37433
  Beta  occ. eigenvalues --   -0.37000  -0.35159  -0.32271  -0.30964  -0.29617
  Beta  occ. eigenvalues --   -0.28742  -0.27465  -0.26160  -0.24524  -0.24180
  Beta  occ. eigenvalues --   -0.23474  -0.22122  -0.20725  -0.18803  -0.11423
  Beta  occ. eigenvalues --   -0.11256  -0.09859  -0.03584
  Beta virt. eigenvalues --    0.06341   0.07557   0.10389   0.10820   0.11582
  Beta virt. eigenvalues --    0.11783   0.12620   0.13197   0.13267   0.14440
  Beta virt. eigenvalues --    0.15552   0.16248   0.17150   0.17693   0.18886

 Mulliken charges and spin densities:
               1          2
     1  C   -0.283457   0.000313
     2  O   -0.159926   0.001684
     3  C   -1.160929  -0.035606
     4  C    0.402757   0.082829
     5  C    0.247807   0.084293
     6  C   -0.084569   0.038232
     7  C   -0.174763   0.044094
     8  C    0.159896   0.124233
     9  N   -0.260198   0.224984
    10  O   -0.183811   0.303041
    11  C   -0.206173   0.053124
    12  O   -0.345813   0.100213
    13  H    0.154062  -0.000191
    14  H    0.148154   0.000923
    15  H    0.148157   0.000916
    16  H    0.176246  -0.004251
    17  H    0.133749  -0.003438
    18  H    0.168034  -0.009989
    19  H    0.120776  -0.005401
 Sum of Mulliken charges =  -1.00000   1.00000

 Dipole moment (field-independent basis, Debye):
    X=              2.9969    Y=              5.0478    Z=              0.0020  Tot=              5.8704
 Quadrupole moment (field-independent basis, Debye-Ang):
   XX=           -132.2744   YY=            -74.9692   ZZ=            -74.3647
   XY=              4.6096   XZ=              0.0026   YZ=              0.0008

 Summary of Natural Population Analysis:

                                       Natural Population
                Natural  -----------------------------------------------
    Atom  No    Charge         Core      Valence    Rydberg      Total
 -----------------------------------------------------------------------
      C    1   -0.10011      0.99961     2.09245    0.00805     3.10011
      O    2   -0.27953      0.99985     3.27074    0.00894     4.27953
      C    3    0.16719      0.99938     1.82230    0.01114     2.83281
      C    4   -0.07470      0.99946     2.06645    0.00878     3.07470
      C    5   -0.06545      0.99955     2.05715    0.00876     3.06545
      C    6   -0.10585      0.99952     2.09650    0.00983     3.10585
      C    7    0.06561      0.99946     1.91887    0.01606     2.93439
      C    8   -0.13430      0.99947     2.12547    0.00936     3.13430
      N    9    0.05425      0.99976     2.41531    0.03068     3.44575
      O   10   -0.08985      0.99990     3.07829    0.01167     4.08985
      C   11    0.21461      0.99969     1.76531    0.02038     2.78539
      O   12   -0.26828      0.99988     3.26079    0.00761     4.26828
      H   13    0.08641      0.00000     0.41281    0.00078     0.41359
      H   14    0.08451      0.00000     0.41402    0.00147     0.41549
      H   15    0.08450      0.00000     0.41403    0.00147     0.41550
      H   16    0.10399      0.00000     0.39466    0.00135     0.39601
      H   17    0.09858      0.00000     0.39831    0.00311     0.40142
      H   18    0.10820      0.00000     0.38813    0.00367     0.39180
      H   19    0.05023      0.00000     0.44783    0.00194     0.44977
 =======================================================================
   * Total *    0.00000     11.99553    30.83942    0.16505    43.00000

 Normal termination of Gaussian 16 at Wed Dec  9 17:55:30 2020.
