 Gaussian 16, Revision A.03,

 -----------------------------------------------------------
 # opt freq B3LYP/6-31G(d) empiricaldispersion=gd3bj scf=xqc
 -----------------------------------------------------------

 -------------------------------
 CID_154637525_JID_2677_neutraal
 -------------------------------
 Symbolic Z-matrix:
 Charge =  0 Multiplicity = 1

 SCF Done:  E(RB3LYP) =  -549.783954896     A.U. after   15 cycles
 SCF Done:  E(RB3LYP) =  -549.789749968     A.U. after   13 cycles
 SCF Done:  E(RB3LYP) =  -549.790215032     A.U. after   11 cycles
 SCF Done:  E(RB3LYP) =  -549.790278528     A.U. after   11 cycles
 SCF Done:  E(RB3LYP) =  -549.790282146     A.U. after   10 cycles
 SCF Done:  E(RB3LYP) =  -549.790296992     A.U. after    9 cycles
 SCF Done:  E(RB3LYP) =  -549.790299308     A.U. after    9 cycles
 SCF Done:  E(RB3LYP) =  -549.790299866     A.U. after    8 cycles
 SCF Done:  E(RB3LYP) =  -549.790299964     A.U. after    7 cycles
 Optimization completed.
    -- Stationary point found.
 Normal termination of Gaussian 16 at Wed Dec  9 17:48:56 2020.

 --------------------------------------------------------------------
 #N Geom=AllCheck Guess=TCheck SCRF=Check GenChk RB3LYP/6-31G(d) Freq
 --------------------------------------------------------------------

 Structure from the checkpoint file:  "JID_2677.chk"
 -------------------------------
 CID_154637525_JID_2677_neutraal
 -------------------------------
 Charge =  0 Multiplicity = 1

 SCF Done:  E(RB3LYP) =  -549.790299964     A.U. after    1 cycles

  Exact polarizability: 142.682   0.173 109.579   6.572   0.768  50.493
 Approx polarizability: 223.751   9.412 195.525  17.127   3.437  76.085

                      1                      2                      3
                      A                      A                      A
 Frequencies --     69.7919                74.9332               164.3275
 Red. masses --      2.6739                 4.5998                 5.5690
 Frc consts  --      0.0077                 0.0152                 0.0886
 IR Inten    --      1.1237                 1.1119                 1.2745

                      4                      5                      6
                      A                      A                      A
 Frequencies --    219.3832               230.7778               251.6622
 Red. masses --      5.7863                 1.1183                 4.0976
 Frc consts  --      0.1641                 0.0351                 0.1529
 IR Inten    --      0.2693                 0.3233                 1.5188

                      7                      8                      9
                      A                      A                      A
 Frequencies --    303.6746               367.1399               392.0715
 Red. masses --      4.2508                 2.8874                 4.6628
 Frc consts  --      0.2310                 0.2293                 0.4223
 IR Inten    --      2.1255                 9.1210                 4.8143

                     10                     11                     12
                      A                      A                      A
 Frequencies --    455.3436               486.5695               527.2112
 Red. masses --      1.6713                 3.1432                 6.5386
 Frc consts  --      0.2042                 0.4384                 1.0708
 IR Inten    --     48.5561                12.0565                 1.6160

                     13                     14                     15
                      A                      A                      A
 Frequencies --    540.7986               616.7517               668.3355
 Red. masses --      3.3513                 4.0101                 3.9031
 Frc consts  --      0.5775                 0.8987                 1.0272
 IR Inten    --     23.5574                 2.9237                 6.0131

                     16                     17                     18
                      A                      A                      A
 Frequencies --    692.3942               700.7623               746.8126
 Red. masses --      3.1149                 7.0242                 1.5739
 Frc consts  --      0.8798                 2.0323                 0.5172
 IR Inten    --     35.4757                 3.0285                15.7590

                     19                     20                     21
                      A                      A                      A
 Frequencies --    775.2033               788.0531               818.8082
 Red. masses --      5.9732                 1.7113                 2.1440
 Frc consts  --      2.1149                 0.6262                 0.8469
 IR Inten    --     20.7126                 1.1626                 4.6051

                     22                     23                     24
                      A                      A                      A
 Frequencies --    892.1464               915.1363               933.4794
 Red. masses --      1.3534                 1.2734                 4.3460
 Frc consts  --      0.6347                 0.6283                 2.2313
 IR Inten    --     11.5614                 0.4015                44.4074

                     25                     26                     27
                      A                      A                      A
 Frequencies --    967.4383              1016.3614              1068.5300
 Red. masses --      3.0121                 2.7855                 2.3455
 Frc consts  --      1.6610                 1.6953                 1.5778
 IR Inten    --     19.2774                12.5096                19.2002

                     28                     29                     30
                      A                      A                      A
 Frequencies --   1102.6728              1121.0245              1183.4668
 Red. masses --      4.2771                 1.8740                 1.7970
 Frc consts  --      3.0640                 1.3875                 1.4829
 IR Inten    --     17.7257                 6.1288                32.0889

                     31                     32                     33
                      A                      A                      A
 Frequencies --   1203.4567              1231.3796              1269.6920
 Red. masses --      1.7977                 1.8097                 6.1213
 Frc consts  --      1.5340                 1.6167                 5.8142
 IR Inten    --     19.6428                 5.6772                28.5921

                     34                     35                     36
                      A                      A                      A
 Frequencies --   1296.2997              1314.9586              1400.4534
 Red. masses --      1.5700                 1.6477                 1.4943
 Frc consts  --      1.5544                 1.6786                 1.7267
 IR Inten    --     24.8566                 0.1875                37.4674

                     37                     38                     39
                      A                      A                      A
 Frequencies --   1406.9887              1426.8390              1437.1109
 Red. masses --      1.2797                 4.5816                 1.3039
 Frc consts  --      1.4926                 5.4956                 1.5866
 IR Inten    --     15.0187                22.3330                20.9692

                     40                     41                     42
                      A                      A                      A
 Frequencies --   1450.5240              1478.0869              1506.4545
 Red. masses --      3.6448                 2.7566                 1.1490
 Frc consts  --      4.5183                 3.5484                 1.5363
 IR Inten    --      4.3466                14.7319                 9.6835

                     43                     44                     45
                      A                      A                      A
 Frequencies --   1520.0534              1537.1450              1543.6058
 Red. masses --      1.0514                 1.0815                 3.2125
 Frc consts  --      1.4313                 1.5056                 4.5099
 IR Inten    --      8.1592                 5.9094                 0.5754

                     46                     47                     48
                      A                      A                      A
 Frequencies --   1622.6284              1662.9925              1775.1026
 Red. masses --      5.2772                 5.5460                11.4723
 Frc consts  --      8.1864                 9.0367                21.2984
 IR Inten    --     40.7153               107.7581               458.5953

                     49                     50                     51
                      A                      A                      A
 Frequencies --   3057.7836              3085.0605              3121.1509
 Red. masses --      1.0367                 1.0656                 1.1026
 Frc consts  --      5.7108                 5.9754                 6.3287
 IR Inten    --     23.3332                30.4571                25.9816

                     52                     53                     54
                      A                      A                      A
 Frequencies --   3147.2428              3159.7761              3219.1717
 Red. masses --      1.0982                 1.1038                 1.0891
 Frc consts  --      6.4090                 6.4934                 6.6495
 IR Inten    --     12.7360                11.2895                 2.1173

                     55                     56                     57
                      A                      A                      A
 Frequencies --   3244.0088              3279.5426              3669.6712
 Red. masses --      1.0961                 1.0968                 1.0812
 Frc consts  --      6.7959                 6.9502                 8.5781
 IR Inten    --      5.7182                 2.2419                79.9441

 - Thermochemistry -
 -------------------
 Temperature   298.150 Kelvin.  Pressure   1.00000 Atm.
 Atom     1 has atomic number  6 and mass  12.00000

 Molecular mass:   163.07456 amu.
 Principal axes and moments of inertia in atomic units:
                           1         2         3
     Eigenvalues --   859.315352550.947493234.93349
           X            0.99997  -0.00103  -0.00743
           Y            0.00099   0.99999  -0.00494
           Z            0.00743   0.00493   0.99996
 This molecule is an asymmetric top.
 Rotational symmetry number  1.
 Warning -- assumption of classical behavior for rotation
           may cause significant error
 Rotational temperatures (Kelvin)      0.10079     0.03395     0.02677
 Rotational constants (GHZ):           2.10021     0.70748     0.55789
 Zero-point vibrational energy     443564.8 (Joules/Mol)
                                  106.01453 (Kcal/Mol)
 Warning -- explicit consideration of  14 degrees of freedom as
           vibrations may cause significant error
 Vibrational temperatures:    100.41   107.81   236.43   315.64   332.04
          (Kelvin)            362.09   436.92   528.23   564.10   655.14
                              700.07   758.54   778.09   887.37   961.59
                              996.20  1008.24  1074.50  1115.34  1133.83
                             1178.08  1283.60  1316.68  1343.07  1391.93
                             1462.32  1537.38  1586.50  1612.90  1702.74
                             1731.51  1771.68  1826.80  1865.09  1891.93
                             2014.94  2024.34  2052.90  2067.68  2086.98
                             2126.64  2167.45  2187.02  2211.61  2220.90
                             2334.60  2392.68  2553.98  4399.47  4438.71
                             4490.64  4528.18  4546.21  4631.67  4667.41
                             4718.53  5279.84

 Zero-point correction=                           0.168945 (Hartree/Particle)
 Thermal correction to Energy=                    0.178768
 Thermal correction to Enthalpy=                  0.179712
 Thermal correction to Gibbs Free Energy=         0.133490
 Sum of electronic and zero-point Energies=           -549.621355
 Sum of electronic and thermal Energies=              -549.611532
 Sum of electronic and thermal Enthalpies=            -549.610588
 Sum of electronic and thermal Free Energies=         -549.656810

                     E (Thermal)             CV                S
                      KCal/Mol        Cal/Mol-Kelvin    Cal/Mol-Kelvin
 Total                  112.178             38.192             97.281
 Electronic               0.000              0.000              0.000
 Translational            0.889              2.981             41.176
 Rotational               0.889              2.981             30.340
 Vibrational            110.401             32.230             25.766
 Vibration     1          0.598              1.969              4.159
 Vibration     2          0.599              1.966              4.019
 Vibration     3          0.623              1.886              2.499
 Vibration     4          0.647              1.812              1.964
 Vibration     5          0.652              1.794              1.873
 Vibration     6          0.664              1.760              1.719
 Vibration     7          0.695              1.667              1.397
 Vibration     8          0.740              1.540              1.092
 Vibration     9          0.760              1.487              0.992
 Vibration    10          0.814              1.349              0.780
 Vibration    11          0.843              1.280              0.693
 Vibration    12          0.882              1.190              0.593
 Vibration    13          0.896              1.160              0.564
 Vibration    14          0.976              0.996              0.422

 Optimization completed.
    -- Stationary point found.
 Normal termination of Gaussian 16 at Wed Dec  9 17:54:33 2020.

 ----------------------------------------------------------------------
 # B3LYP/6-311++G(d,p) empiricaldispersion=gd3bj scf=xqc pop=npa geom=c
 heck
 ----------------------------------------------------------------------

 ---------------------------------------
 CID_154637525_JID_2677_Energie_neutraal
 ---------------------------------------
 Structure from the checkpoint file:  "JID_2677.chk"
 Charge =  0 Multiplicity = 1

 SCF Done:  E(RB3LYP) =  -549.941608884     A.U. after   15 cycles
 Normal termination of Gaussian 16 at Wed Dec  9 17:57:30 2020.

 ----------------------------------------------------------------------
 # B3LYP/6-311++G(d,p) empiricaldispersion=gd3bj scf=xqc pop=npa geom=c
 heck
 ----------------------------------------------------------------------

 -------------------------------------
 CID_154637525_JID_2677_Energie_kation
 -------------------------------------
 Structure from the checkpoint file:  "JID_2677.chk"
 Charge =  1 Multiplicity = 2

 SCF Done:  E(UB3LYP) =  -549.647302734     A.U. after   23 cycles
 Normal termination of Gaussian 16 at Wed Dec  9 18:02:20 2020.
 Gaussian 16:  ES64L-G16RevA.03 25-Dec-2016

 ----------------------------------------------------------------------
 # B3LYP/6-311++G(d,p) empiricaldispersion=gd3bj scf=xqc pop=npa geom=c
 heck
 ----------------------------------------------------------------------

 ------------------------------------
 CID_154637525_JID_2677_Energie_anion
 ------------------------------------
 Structure from the checkpoint file:  "JID_2677.chk"
 Charge = -1 Multiplicity = 2

                         Standard orientation:
 ---------------------------------------------------------------------
 Center     Atomic      Atomic             Coordinates (Angstroms)
 Number     Number       Type             X           Y           Z
 ---------------------------------------------------------------------
      1          6           0       -3.376696   -0.146098    0.898822
      2          6           0       -2.706623    0.106173   -0.450019
      3          7           0       -1.259380    0.325406   -0.315306
      4          6           0       -0.770633    1.605916   -0.218046
      5          6           0        0.549445    1.901590   -0.049130
      6          6           0        1.420092    0.780606    0.029839
      7          6           0        0.950193   -0.537643   -0.057524
      8          6           0       -0.448951   -0.842572   -0.225703
      9          8           0       -0.956499   -1.959012   -0.290743
     10          6           0        2.106600   -1.350929    0.066670
     11          7           0        3.201055   -0.619117    0.215570
     12          7           0        2.763849    0.676884    0.191247
     13          1           0       -2.950454   -1.038974    1.363192
     14          1           0       -4.451980   -0.305577    0.763274
     15          1           0       -3.236528    0.705136    1.574380
     16          1           0       -2.836639   -0.758160   -1.103013
     17          1           0       -3.129553    0.984576   -0.946614
     18          1           0       -1.520248    2.386025   -0.291347
     19          1           0        0.888691    2.927642    0.013800
     20          1           0        2.167908   -2.429882    0.050717
     21          1           0        3.441560    1.416847    0.291527
 ---------------------------------------------------------------------

 SCF Done:  E(UB3LYP) =  -549.933699780     A.U. after   33 cycles
 SCF Done:  E(UB3LYP) =  -549.933699780     a.u. after    1 cycles

 The electronic state is 2-A.
 Alpha  occ. eigenvalues --  -18.98195 -14.28099 -14.26181 -14.23728 -10.17160
 Alpha  occ. eigenvalues --  -10.12009 -10.11305 -10.10780 -10.09842 -10.07204
 Alpha  occ. eigenvalues --  -10.07035 -10.06717  -0.94717  -0.93500  -0.85488
 Alpha  occ. eigenvalues --   -0.73690  -0.71674  -0.66529  -0.64647  -0.56843
 Alpha  occ. eigenvalues --   -0.54649  -0.51707  -0.50382  -0.44602  -0.41258
 Alpha  occ. eigenvalues --   -0.40324  -0.37295  -0.36015  -0.34492  -0.34223
 Alpha  occ. eigenvalues --   -0.33654  -0.32693  -0.31357  -0.28417  -0.27904
 Alpha  occ. eigenvalues --   -0.27631  -0.25744  -0.23864  -0.20279  -0.18125
 Alpha  occ. eigenvalues --   -0.16401  -0.16053  -0.11187   0.04301
 Alpha virt. eigenvalues --    0.06523   0.07108   0.08177   0.09103   0.09226
 Alpha virt. eigenvalues --    0.09702   0.10388   0.11619   0.12762   0.13011
 Alpha virt. eigenvalues --    0.13201   0.14115   0.14894   0.15104   0.16763

  Beta  occ. eigenvalues --  -18.98197 -14.28018 -14.26162 -14.23684 -10.17161
  Beta  occ. eigenvalues --  -10.11978 -10.11176 -10.10757 -10.09854 -10.07172
  Beta  occ. eigenvalues --  -10.07016 -10.06699  -0.94630  -0.93478  -0.85413
  Beta  occ. eigenvalues --   -0.73592  -0.71586  -0.66429  -0.64553  -0.56799
  Beta  occ. eigenvalues --   -0.54501  -0.51627  -0.50342  -0.44502  -0.41185
  Beta  occ. eigenvalues --   -0.40249  -0.37165  -0.35901  -0.34405  -0.34183
  Beta  occ. eigenvalues --   -0.33542  -0.32664  -0.31262  -0.28372  -0.27861
  Beta  occ. eigenvalues --   -0.27571  -0.25696  -0.23620  -0.20211  -0.17929
  Beta  occ. eigenvalues --   -0.16248  -0.16011  -0.10953
  Beta virt. eigenvalues --    0.07169   0.07705   0.08017   0.09087   0.09242
  Beta virt. eigenvalues --    0.09566   0.10016   0.11155   0.11871   0.12997
  Beta virt. eigenvalues --    0.13141   0.13663   0.14273   0.14960   0.15096

 Mulliken charges and spin densities:
               1          2
     1  C    0.360398  -0.788507
     2  C   -0.412054   0.282097
     3  N    0.025515   0.134497
     4  C    1.099318  -1.503547
     5  C    0.124498   0.075590
     6  C    2.536921  -3.206726
     7  C    0.623818   0.517146
     8  C   -2.499685   1.469453
     9  O   -0.362301  -0.001685
    10  C    0.396853  -0.342736
    11  N   -0.188223  -0.025502
    12  N   -0.031493   0.033143
    13  H    0.094688   0.079928
    14  H   -0.211558   0.344097
    15  H   -0.001046   0.141725
    16  H    0.135947   0.052375
    17  H   -0.722671   0.890570
    18  H   -0.350648   0.511807
    19  H   -1.699035   1.911625
    20  H    0.172153   0.008699
    21  H   -0.091394   0.415952
 Sum of Mulliken charges =  -1.00000   1.00000

 Dipole moment (field-independent basis, Debye):
    X=              0.3056    Y=             -5.6389    Z=              0.6953  Tot=              5.6898
 Quadrupole moment (field-independent basis, Debye-Ang):
   XX=           -129.8751   YY=           -125.4044   ZZ=            -91.3150
   XY=             -0.9472   XZ=             -4.5768   YZ=              1.3087

 Summary of Natural Population Analysis:

                                       Natural Population
                Natural  -----------------------------------------------
    Atom  No    Charge         Core      Valence    Rydberg      Total
 -----------------------------------------------------------------------
      C    1   -0.29104      0.99966     2.28634    0.00504     3.29104
      C    2   -0.08516      0.99962     2.07396    0.01158     3.08516
      N    3   -0.22887      0.99964     2.71819    0.01104     3.72887
      C    4    0.06159      0.99955     1.92650    0.01236     2.93841
      C    5   -0.15320      0.99953     2.14338    0.01029     3.15320
      C    6    0.09705      0.99949     1.89102    0.01244     2.90295
      C    7   -0.11842      0.99943     2.10914    0.00985     3.11842
      C    8    0.32632      0.99958     1.65196    0.02215     2.67368
      O    9   -0.33315      0.99988     3.32846    0.00481     4.33315
      C   10    0.00470      0.99960     1.98215    0.01355     2.99530
      N   11   -0.14656      0.99974     2.63393    0.01289     3.64656
      N   12   -0.16680      0.99965     2.65396    0.01319     3.66680
      H   13    0.10574      0.00000     0.39337    0.00088     0.39426
      H   14    0.09978      0.00000     0.39924    0.00097     0.40022
      H   15    0.09813      0.00000     0.40097    0.00089     0.40187
      H   16    0.10770      0.00000     0.39115    0.00114     0.39230
      H   17    0.09962      0.00000     0.39763    0.00274     0.40038
      H   18    0.10352      0.00000     0.39341    0.00307     0.39648
      H   19    0.11589      0.00000     0.37777    0.00635     0.38411
      H   20    0.10136      0.00000     0.39779    0.00085     0.39864
      H   21    0.20179      0.00000     0.29292    0.00529     0.29821
 =======================================================================
   * Total *    0.00000     11.99537    30.84325    0.16137    43.00000

 Normal termination of Gaussian 16 at Wed Dec  9 18:07:06 2020.
