 Gaussian 16, Revision A.03,

 -----------------------------------------------------------
 # opt freq B3LYP/6-31G(d) empiricaldispersion=gd3bj scf=xqc
 -----------------------------------------------------------

 -----------------------------
 CID_57165197_JID_546_neutraal
 -----------------------------
 Symbolic Z-matrix:
 Charge =  0 Multiplicity = 1

 SCF Done:  E(RB3LYP) =  -493.406894108     A.U. after   15 cycles
 SCF Done:  E(RB3LYP) =  -493.409678379     A.U. after   12 cycles
 SCF Done:  E(RB3LYP) =  -493.409599094     A.U. after   12 cycles
 SCF Done:  E(RB3LYP) =  -493.410187906     A.U. after   11 cycles
 SCF Done:  E(RB3LYP) =  -493.410204719     A.U. after    9 cycles
 SCF Done:  E(RB3LYP) =  -493.410204941     A.U. after    9 cycles
 SCF Done:  E(RB3LYP) =  -493.410205515     A.U. after    8 cycles
 Optimization completed.
    -- Stationary point found.
 Normal termination of Gaussian 16 at Mon Dec 14 13:03:04 2020.

 --------------------------------------------------------------------
 #N Geom=AllCheck Guess=TCheck SCRF=Check GenChk RB3LYP/6-31G(d) Freq
 --------------------------------------------------------------------

 Structure from the checkpoint file:  "JID_546.chk"
 -----------------------------
 CID_57165197_JID_546_neutraal
 -----------------------------
 Charge =  0 Multiplicity = 1

 SCF Done:  E(RB3LYP) =  -493.410205515     A.U. after    1 cycles

  Exact polarizability: 148.820   5.627  79.015   0.002   0.000  37.506
 Approx polarizability: 220.891  17.968 128.172   0.006  -0.001  55.587

 ******    2 imaginary frequencies (negative Signs) ******

                      1                      2                      3
                      A                      A                      A
 Frequencies --   -156.4351               -58.1843                25.0369
 Red. masses --      1.2468                 3.6413                 9.3561
 Frc consts  --      0.0180                 0.0073                 0.0035
 IR Inten    --    173.3045                31.4935                 0.4404

                      4                      5                      6
                      A                      A                      A
 Frequencies --     91.1025               105.7126               134.8436
 Red. masses --      5.2967                 2.4514                 1.4202
 Frc consts  --      0.0259                 0.0161                 0.0152
 IR Inten    --      5.1566                44.5767                 8.5157

                      7                      8                      9
                      A                      A                      A
 Frequencies --    152.4418               233.8036               297.2726
 Red. masses --      2.0445                 5.9210                 4.5940
 Frc consts  --      0.0280                 0.1907                 0.2392
 IR Inten    --      0.5481                10.8866                 1.0438

                     10                     11                     12
                      A                      A                      A
 Frequencies --    365.1848               368.0293               475.7120
 Red. masses --      2.7456                 3.9317                 4.8415
 Frc consts  --      0.2157                 0.3138                 0.6455
 IR Inten    --      0.1141                 2.8439                14.3999

                     13                     14                     15
                      A                      A                      A
 Frequencies --    541.6798               543.3330               575.4892
 Red. masses --      1.1325                 3.9164                 3.2149
 Frc consts  --      0.1958                 0.6812                 0.6273
 IR Inten    --     13.6318                 0.3538                12.0312

                     16                     17                     18
                      A                      A                      A
 Frequencies --    611.8389               708.4767               734.1343
 Red. masses --      2.4528                 2.9205                 4.6243
 Frc consts  --      0.5410                 0.8637                 1.4684
 IR Inten    --      0.2124                16.7825                38.0881

                     19                     20                     21
                      A                      A                      A
 Frequencies --    828.6132               887.4980               930.4909
 Red. masses --      5.2930                 1.9349                 3.8954
 Frc consts  --      2.1412                 0.8980                 1.9871
 IR Inten    --     17.8503                 1.5438                12.4706

                     22                     23                     24
                      A                      A                      A
 Frequencies --    985.1275              1022.6358              1040.3315
 Red. masses --      1.7748                 1.8286                 1.1062
 Frc consts  --      1.0148                 1.1267                 0.7054
 IR Inten    --      1.6925                68.6981                24.2700

                     25                     26                     27
                      A                      A                      A
 Frequencies --   1079.3088              1087.2623              1167.1671
 Red. masses --      1.7654                 1.8519                 3.1653
 Frc consts  --      1.2116                 1.2899                 2.5406
 IR Inten    --     17.8606                 4.5315                91.3108

                     28                     29                     30
                      A                      A                      A
 Frequencies --   1228.1336              1279.2912              1319.7034
 Red. masses --      3.3198                 1.2488                 1.4315
 Frc consts  --      2.9502                 1.2042                 1.4689
 IR Inten    --    309.7384                 2.2623                 3.0375

                     31                     32                     33
                      A                      A                      A
 Frequencies --   1394.1658              1417.4917              1448.5697
 Red. masses --      3.6754                 1.3154                 1.2754
 Frc consts  --      4.2090                 1.5572                 1.5768
 IR Inten    --    151.6839                39.5692                42.6183

                     34                     35                     36
                      A                      A                      A
 Frequencies --   1490.6780              1495.7525              1643.5393
 Red. masses --      1.0565                 1.0491                 1.4578
 Frc consts  --      1.3832                 1.3829                 2.3200
 IR Inten    --     18.2490                 7.0396               206.4195

                     37                     38                     39
                      A                      A                      A
 Frequencies --   1652.7462              1693.4191              1775.8301
 Red. masses --      6.2075                 4.6555                10.4668
 Frc consts  --      9.9903                 7.8659                19.4476
 IR Inten    --    213.2046               215.2316               149.9878

                     40                     41                     42
                      A                      A                      A
 Frequencies --   1783.5068              3061.8467              3091.9053
 Red. masses --      7.5682                 1.0372                 1.0877
 Frc consts  --     14.1839                 5.7291                 6.1268
 IR Inten    --    275.4401                 0.2560                25.3175

                     43                     44                     45
                      A                      A                      A
 Frequencies --   3120.1179              3177.1780              3192.3938
 Red. masses --      1.0989                 1.1037                 1.0907
 Frc consts  --      6.3032                 6.5641                 6.5491
 IR Inten    --      5.3336                14.9766                 3.7809

                     46                     47                     48
                      A                      A                      A
 Frequencies --   3258.0992              3609.6549              3734.7783
 Red. masses --      1.0901                 1.0451                 1.1053
 Frc consts  --      6.8180                 8.0230                 9.0838
 IR Inten    --     12.6330                41.3734                45.6329

 - Thermochemistry -
 -------------------
 Temperature   298.150 Kelvin.  Pressure   1.00000 Atm.
 Atom     1 has atomic number  6 and mass  12.00000

 Molecular mass:   140.05858 amu.
 Principal axes and moments of inertia in atomic units:
                           1         2         3
     Eigenvalues --   438.885963500.033143927.82604
           X            0.99998  -0.00660  -0.00000
           Y            0.00660   0.99998   0.00000
           Z            0.00000  -0.00000   1.00000
 This molecule is an asymmetric top.
 Rotational symmetry number  1.
 Warning -- assumption of classical behavior for rotation
           may cause significant error
 Rotational temperatures (Kelvin)      0.19735     0.02475     0.02205
 Rotational constants (GHZ):           4.11210     0.51564     0.45948
    2 imaginary frequencies ignored.
 Zero-point vibrational energy     364031.6 (Joules/Mol)
                                   87.00564 (Kcal/Mol)
 Warning -- explicit consideration of  14 degrees of freedom as
           vibrations may cause significant error
 Vibrational temperatures:     36.02   131.08   152.10   194.01   219.33
          (Kelvin)            336.39   427.71   525.42   529.51   684.44
                              779.36   781.74   828.00   880.30  1019.34
                             1056.26  1192.19  1276.91  1338.77  1417.38
                             1471.34  1496.81  1552.88  1564.33  1679.29
                             1767.01  1840.61  1898.76  2005.89  2039.45
                             2084.17  2144.75  2152.05  2364.69  2377.93
                             2436.45  2555.02  2566.07  4405.31  4448.56
                             4489.15  4571.25  4593.14  4687.68  5193.49
                             5373.51

 Zero-point correction=                           0.138652 (Hartree/Particle)
 Thermal correction to Energy=                    0.148376
 Thermal correction to Enthalpy=                  0.149321
 Thermal correction to Gibbs Free Energy=         0.102055
 Sum of electronic and zero-point Energies=           -493.271553
 Sum of electronic and thermal Energies=              -493.261829
 Sum of electronic and thermal Enthalpies=            -493.260885
 Sum of electronic and thermal Free Energies=         -493.308151

                     E (Thermal)             CV                S
                      KCal/Mol        Cal/Mol-Kelvin    Cal/Mol-Kelvin
 Total                   93.108             34.097             99.480
 Electronic               0.000              0.000              0.000
 Translational            0.889              2.981             40.722
 Rotational               0.889              2.981             30.179
 Vibrational             91.330             28.135             28.578
 Vibration     1          0.593              1.985              6.188
 Vibration     2          0.602              1.956              3.636
 Vibration     3          0.605              1.945              3.346
 Vibration     4          0.613              1.919              2.876
 Vibration     5          0.619              1.900              2.642
 Vibration     6          0.654              1.789              1.850
 Vibration     7          0.691              1.679              1.432
 Vibration     8          0.738              1.544              1.100
 Vibration     9          0.741              1.538              1.088
 Vibration    10          0.832              1.304              0.722
 Vibration    11          0.897              1.158              0.562
 Vibration    12          0.898              1.154              0.558
 Vibration    13          0.932              1.084              0.494
 Vibration    14          0.971              1.007              0.430

 Optimization completed.
    -- Stationary point found.
 Normal termination of Gaussian 16 at Mon Dec 14 13:05:14 2020.

 ----------------------------------------------------------------------
 # B3LYP/6-311++G(d,p) empiricaldispersion=gd3bj scf=xqc pop=npa geom=c
 heck
 ----------------------------------------------------------------------

 -------------------------------------
 CID_57165197_JID_546_Energie_neutraal
 -------------------------------------
 Structure from the checkpoint file:  "JID_546.chk"
 Charge =  0 Multiplicity = 1

 SCF Done:  E(RB3LYP) =  -493.564613442     A.U. after   14 cycles
 Normal termination of Gaussian 16 at Mon Dec 14 13:05:54 2020.

 ----------------------------------------------------------------------
 # B3LYP/6-311++G(d,p) empiricaldispersion=gd3bj scf=xqc pop=npa geom=c
 heck
 ----------------------------------------------------------------------

 -----------------------------------
 CID_57165197_JID_546_Energie_kation
 -----------------------------------
 Structure from the checkpoint file:  "JID_546.chk"
 Charge =  1 Multiplicity = 2

 SCF Done:  E(UB3LYP) =  -493.229345522     A.U. after   23 cycles
 Normal termination of Gaussian 16 at Mon Dec 14 13:07:27 2020.
 Gaussian 16:  ES64L-G16RevA.03 25-Dec-2016

 ----------------------------------------------------------------------
 # B3LYP/6-311++G(d,p) empiricaldispersion=gd3bj scf=xqc pop=npa geom=c
 heck
 ----------------------------------------------------------------------

 ----------------------------------
 CID_57165197_JID_546_Energie_anion
 ----------------------------------
 Structure from the checkpoint file:  "JID_546.chk"
 Charge = -1 Multiplicity = 2

                         Standard orientation:
 ---------------------------------------------------------------------
 Center     Atomic      Atomic             Coordinates (Angstroms)
 Number     Number       Type             X           Y           Z
 ---------------------------------------------------------------------
      1          6           0        4.084188    0.224900   -0.000104
      2          6           0        2.576637    0.273353    0.000197
      3          8           0        1.953873    1.322563   -0.000063
      4          7           0        2.016839   -1.042026    0.000084
      5          6           0        0.742175   -1.234527    0.000007
      6          6           0       -0.369505   -0.286394    0.000023
      7          6           0       -1.633152   -0.747528   -0.000027
      8          6           0       -2.890728    0.059413   -0.000028
      9          8           0       -3.978827   -0.505241   -0.000056
     10          7           0       -2.763371    1.417648    0.000047
     11          1           0        4.498552    1.233981   -0.000303
     12          1           0        4.433495   -0.330642   -0.877924
     13          1           0        4.433827   -0.330436    0.877712
     14          1           0        0.433830   -2.286229   -0.000009
     15          1           0       -0.117752    0.765791    0.000073
     16          1           0       -1.829964   -1.817495   -0.000075
     17          1           0       -1.875210    1.893378    0.000090
     18          1           0       -3.609114    1.968425    0.000065
 ---------------------------------------------------------------------

 SCF Done:  E(UB3LYP) =  -493.620374804     A.U. after   19 cycles

 The electronic state is 2-A.
 Alpha  occ. eigenvalues --  -18.94500 -18.94203 -14.19995 -14.12866 -10.12623
 Alpha  occ. eigenvalues --  -10.10963 -10.04525 -10.03687 -10.01733 -10.01449
 Alpha  occ. eigenvalues --   -0.89483  -0.88918  -0.77220  -0.74282  -0.63856
 Alpha  occ. eigenvalues --   -0.60407  -0.51955  -0.46579  -0.43444  -0.41181
 Alpha  occ. eigenvalues --   -0.37180  -0.33032  -0.32313  -0.30726  -0.29955
 Alpha  occ. eigenvalues --   -0.27899  -0.27292  -0.26990  -0.24717  -0.23377
 Alpha  occ. eigenvalues --   -0.22393  -0.18436  -0.14524  -0.13711  -0.12083
 Alpha  occ. eigenvalues --   -0.11871  -0.08113   0.01092
 Alpha virt. eigenvalues --    0.09063   0.09335   0.11722   0.12316   0.12780
 Alpha virt. eigenvalues --    0.13307   0.13522   0.14530   0.15430   0.17247
 Alpha virt. eigenvalues --    0.17517   0.18276   0.18738   0.19590   0.19939

  Beta  occ. eigenvalues --  -18.94278 -18.93956 -14.19957 -14.12677 -10.12584
  Beta  occ. eigenvalues --  -10.10782 -10.04139 -10.03700 -10.01726 -10.01011
  Beta  occ. eigenvalues --   -0.89104  -0.88478  -0.77047  -0.73642  -0.63185
  Beta  occ. eigenvalues --   -0.60175  -0.51078  -0.46176  -0.43122  -0.40994
  Beta  occ. eigenvalues --   -0.36825  -0.32630  -0.32115  -0.30159  -0.29742
  Beta  occ. eigenvalues --   -0.27100  -0.26934  -0.26711  -0.24485  -0.22178
  Beta  occ. eigenvalues --   -0.22170  -0.16594  -0.13684  -0.13392  -0.11563
  Beta  occ. eigenvalues --   -0.10049  -0.07879
  Beta virt. eigenvalues --    0.07714   0.09066   0.09337   0.11723   0.12766
  Beta virt. eigenvalues --    0.12772   0.13300   0.14539   0.14943   0.15432
  Beta virt. eigenvalues --    0.17334   0.17517   0.18291   0.19243   0.19942

 Mulliken charges and spin densities:
               1          2
     1  C   -0.674356  -0.004790
     2  C    0.238429   0.107682
     3  O   -0.371511   0.091676
     4  N   -0.121547   0.080826
     5  C   -0.574520   0.274547
     6  C    0.254023   0.034024
     7  C   -0.033157   0.296936
     8  C   -0.188789   0.055649
     9  O   -0.433076   0.084350
    10  N   -0.415694   0.019663
    11  H    0.119800  -0.000407
    12  H    0.138033   0.004828
    13  H    0.137996   0.004823
    14  H    0.106644  -0.021135
    15  H    0.165625  -0.004308
    16  H    0.142675  -0.022206
    17  H    0.229230  -0.000343
    18  H    0.280194  -0.001814
 Sum of Mulliken charges =  -1.00000   1.00000

 Dipole moment (field-independent basis, Debye):
    X=              1.6491    Y=              2.4715    Z=              0.0002  Tot=              2.9711
 Quadrupole moment (field-independent basis, Debye-Ang):
   XX=           -107.8479   YY=            -67.9895   ZZ=            -65.2933
   XY=             -9.0441   XZ=             -0.0008   YZ=              0.0009

 Summary of Natural Population Analysis:

                                       Natural Population
                Natural  -----------------------------------------------
    Atom  No    Charge         Core      Valence    Rydberg      Total
 -----------------------------------------------------------------------
      C    1   -0.32741      0.99963     2.32264    0.00514     3.32741
      C    2    0.36143      0.99972     1.61514    0.02371     2.63857
      O    3   -0.30005      0.99987     3.29327    0.00691     4.30005
      N    4   -0.28225      0.99967     2.77065    0.01193     3.78225
      C    5    0.15383      0.99964     1.82990    0.01663     2.84617
      C    6   -0.13291      0.99951     2.12461    0.00879     3.13291
      C    7   -0.01908      0.99950     2.01042    0.00916     3.01908
      C    8    0.31990      0.99969     1.65807    0.02234     2.68010
      O    9   -0.30810      0.99988     3.30076    0.00746     4.30810
      N   10   -0.40889      0.99971     2.90220    0.00698     3.90889
      H   11    0.09481      0.00000     0.40394    0.00126     0.40519
      H   12    0.10482      0.00000     0.39408    0.00110     0.39518
      H   13    0.10481      0.00000     0.39409    0.00110     0.39519
      H   14    0.06479      0.00000     0.43308    0.00214     0.43521
      H   15    0.10626      0.00000     0.39233    0.00141     0.39374
      H   16    0.08790      0.00000     0.41010    0.00200     0.41210
      H   17    0.19366      0.00000     0.30492    0.00142     0.30634
      H   18    0.18650      0.00000     0.31155    0.00195     0.31350
 =======================================================================
   * Total *    0.00000      9.99683    26.87175    0.13142    37.00000

 Normal termination of Gaussian 16 at Mon Dec 14 13:08:45 2020.
