 Gaussian 16, Revision A.03,

 -----------------------------------------------------------
 # opt freq B3LYP/6-31G(d) empiricaldispersion=gd3bj scf=xqc
 -----------------------------------------------------------

 -------------------------------
 CID_150053405_JID_2330_neutraal
 -------------------------------
 Symbolic Z-matrix:
 Charge =  0 Multiplicity = 1

 SCF Done:  E(RB3LYP) =  -568.119192311     A.U. after   17 cycles
 SCF Done:  E(RB3LYP) =  -568.124495852     A.U. after   16 cycles
 SCF Done:  E(RB3LYP) =  -568.126366025     A.U. after   15 cycles
 SCF Done:  E(RB3LYP) =  -568.126516959     A.U. after   15 cycles
 SCF Done:  E(RB3LYP) =  -568.127546743     A.U. after   14 cycles
 SCF Done:  E(RB3LYP) =  -568.127394437     A.U. after   16 cycles
 SCF Done:  E(RB3LYP) =  -568.128941549     A.U. after   14 cycles
 SCF Done:  E(RB3LYP) =  -568.128927696     A.U. after   14 cycles
 SCF Done:  E(RB3LYP) =  -568.129113489     A.U. after   13 cycles
 SCF Done:  E(RB3LYP) =  -568.129171057     A.U. after   11 cycles
 SCF Done:  E(RB3LYP) =  -568.129330026     A.U. after   11 cycles
 SCF Done:  E(RB3LYP) =  -568.129333949     A.U. after   12 cycles
 SCF Done:  E(RB3LYP) =  -568.129336946     A.U. after   12 cycles
 SCF Done:  E(RB3LYP) =  -568.129341769     A.U. after   10 cycles
 SCF Done:  E(RB3LYP) =  -568.129342649     A.U. after    9 cycles
 Optimization completed.
    -- Stationary point found.
 Normal termination of Gaussian 16 at Wed Dec  9 17:09:45 2020.

 --------------------------------------------------------------------
 #N Geom=AllCheck Guess=TCheck SCRF=Check GenChk RB3LYP/6-31G(d) Freq
 --------------------------------------------------------------------

 Structure from the checkpoint file:  "JID_2330.chk"
 -------------------------------
 CID_150053405_JID_2330_neutraal
 -------------------------------
 Charge =  0 Multiplicity = 1

 SCF Done:  E(RB3LYP) =  -568.129342649     A.U. after    1 cycles

  Exact polarizability: 108.944 -13.039 109.915   1.662   2.537  86.713
 Approx polarizability: 154.583 -37.375 196.447   1.638  12.160 140.966

                      1                      2                      3
                      A                      A                      A
 Frequencies --     40.7801                64.5007                68.6424
 Red. masses --      4.3939                 5.9336                 2.7139
 Frc consts  --      0.0043                 0.0145                 0.0075
 IR Inten    --      0.2614                 0.2218                 0.0963

                      4                      5                      6
                      A                      A                      A
 Frequencies --     70.7900                81.1152               133.7133
 Red. masses --      4.0274                 5.3068                 4.2141
 Frc consts  --      0.0119                 0.0206                 0.0444
 IR Inten    --      1.2228                 0.9683                 0.9433

                      7                      8                      9
                      A                      A                      A
 Frequencies --    158.8976               209.9512               230.7671
 Red. masses --      2.5379                 1.7601                 6.0293
 Frc consts  --      0.0378                 0.0457                 0.1892
 IR Inten    --      0.4810                 0.6017                 0.9299

                     10                     11                     12
                      A                      A                      A
 Frequencies --    246.8674               264.6981               286.8302
 Red. masses --      1.0858                 3.5942                 2.9624
 Frc consts  --      0.0390                 0.1484                 0.1436
 IR Inten    --      0.1715                 3.3237                 2.7914

                     13                     14                     15
                      A                      A                      A
 Frequencies --    321.8189               370.4124               463.4431
 Red. masses --      1.9722                 3.3195                 3.8003
 Frc consts  --      0.1203                 0.2683                 0.4809
 IR Inten    --      3.4982                 1.7021                 8.1403

                     16                     17                     18
                      A                      A                      A
 Frequencies --    500.9693               508.6422               520.2974
 Red. masses --      1.4966                 5.0903                 6.5821
 Frc consts  --      0.2213                 0.7759                 1.0498
 IR Inten    --    102.2030                 7.7144                50.9534

                     19                     20                     21
                      A                      A                      A
 Frequencies --    589.2202               606.2780               673.0123
 Red. masses --      3.1591                 2.7077                 3.3700
 Frc consts  --      0.6462                 0.5864                 0.8993
 IR Inten    --     21.9709                 0.6992                45.2733

                     22                     23                     24
                      A                      A                      A
 Frequencies --    775.8072               787.8895               799.1120
 Red. masses --      4.6607                 2.1809                 1.2890
 Frc consts  --      1.6528                 0.7977                 0.4850
 IR Inten    --      8.3011                 2.3672                 2.4125

                     25                     26                     27
                      A                      A                      A
 Frequencies --    825.6550               856.7980               887.2840
 Red. masses --      1.5422                 1.8555                 3.2682
 Frc consts  --      0.6194                 0.8025                 1.5159
 IR Inten    --      2.5745                37.0706                12.2952

                     28                     29                     30
                      A                      A                      A
 Frequencies --    968.0312              1009.4616              1023.8200
 Red. masses --      1.9531                 3.1199                 2.5736
 Frc consts  --      1.0783                 1.8731                 1.5894
 IR Inten    --      3.7257                19.7912                 9.1721

                     31                     32                     33
                      A                      A                      A
 Frequencies --   1053.2490              1082.2756              1124.8363
 Red. masses --      2.2339                 1.6625                 1.7463
 Frc consts  --      1.4601                 1.1474                 1.3018
 IR Inten    --      1.4256                 1.9289                 2.2554

                     34                     35                     36
                      A                      A                      A
 Frequencies --   1136.9619              1217.8512              1251.1074
 Red. masses --      1.5632                 2.0088                 9.4089
 Frc consts  --      1.1906                 1.7554                 8.6771
 IR Inten    --     12.4416                 3.3656                36.7493

                     37                     38                     39
                      A                      A                      A
 Frequencies --   1293.9363              1309.8887              1321.7747
 Red. masses --      1.2768                 1.5525                 2.2348
 Frc consts  --      1.2595                 1.5695                 2.3004
 IR Inten    --      8.6448                78.7106               115.3401

                     40                     41                     42
                      A                      A                      A
 Frequencies --   1367.1737              1371.6399              1401.4645
 Red. masses --      1.4151                 1.6207                 1.4926
 Frc consts  --      1.5584                 1.7965                 1.7272
 IR Inten    --     10.3605                 1.6779                 2.2917

                     43                     44                     45
                      A                      A                      A
 Frequencies --   1438.2820              1438.9511              1441.5922
 Red. masses --      1.2241                 1.2380                 1.3061
 Frc consts  --      1.4920                 1.5103                 1.5993
 IR Inten    --      0.3931                 2.0370                 9.9298

                     46                     47                     48
                      A                      A                      A
 Frequencies --   1504.0072              1515.4120              1531.9267
 Red. masses --      1.0784                 1.0714                 1.0444
 Frc consts  --      1.4373                 1.4496                 1.4441
 IR Inten    --      6.8328                 7.1211                 6.7799

                     49                     50                     51
                      A                      A                      A
 Frequencies --   1533.1919              1535.2661              1544.8179
 Red. masses --      1.0517                 1.0469                 1.0699
 Frc consts  --      1.4566                 1.4539                 1.5043
 IR Inten    --      5.1589                 3.7888                 0.4845

                     52                     53                     54
                      A                      A                      A
 Frequencies --   1719.7938              1789.3876              2228.1139
 Red. masses --      7.9173                 9.7362                13.8886
 Frc consts  --     13.7968                18.3674                40.6240
 IR Inten    --     27.8781               335.2062               305.1136

                     55                     56                     57
                      A                      A                      A
 Frequencies --   3044.2421              3047.1034              3055.6566
 Red. masses --      1.0621                 1.0664                 1.0372
 Frc consts  --      5.7994                 5.8339                 5.7056
 IR Inten    --     19.0220                 2.3913                28.4138

                     58                     59                     60
                      A                      A                      A
 Frequencies --   3057.4246              3087.3645              3109.5866
 Red. masses --      1.0364                 1.0993                 1.0950
 Frc consts  --      5.7079                 6.1736                 6.2381
 IR Inten    --     35.0235                12.6340                 1.8889

                     61                     62                     63
                      A                      A                      A
 Frequencies --   3125.2230              3127.2599              3127.3997
 Red. masses --      1.1021                 1.1027                 1.1035
 Frc consts  --      6.3421                 6.3541                 6.3590
 IR Inten    --     43.1002                31.0297                22.3258

                     64                     65                     66
                      A                      A                      A
 Frequencies --   3132.9081              3174.0604              3595.7582
 Red. masses --      1.1012                 1.0881                 1.0772
 Frc consts  --      6.3682                 6.4587                 8.2058
 IR Inten    --     38.0433                 4.5648                38.3931

 - Thermochemistry -
 -------------------
 Temperature   298.150 Kelvin.  Pressure   1.00000 Atm.
 Atom     1 has atomic number  6 and mass  12.00000

 Molecular mass:   168.10111 amu.
 Principal axes and moments of inertia in atomic units:
                           1         2         3
     Eigenvalues --  1707.823752371.096253111.93491
           X            0.99998  -0.00691   0.00026
           Y            0.00689   0.99837   0.05669
           Z           -0.00065  -0.05669   0.99839
 This molecule is an asymmetric top.
 Rotational symmetry number  1.
 Warning -- assumption of classical behavior for rotation
           may cause significant error
 Rotational temperatures (Kelvin)      0.05072     0.03653     0.02783
 Rotational constants (GHZ):           1.05675     0.76114     0.57994
 Zero-point vibrational energy     515485.2 (Joules/Mol)
                                  123.20392 (Kcal/Mol)
 Warning -- explicit consideration of  20 degrees of freedom as
           vibrations may cause significant error
 Vibrational temperatures:     58.67    92.80    98.76   101.85   116.71
          (Kelvin)            192.38   228.62   302.07   332.02   355.19
                              380.84   412.68   463.03   532.94   666.79
                              720.78   731.82   748.59   847.76   872.30
                              968.31  1116.21  1133.60  1149.74  1187.93
                             1232.74  1276.60  1392.78  1452.39  1473.05
                             1515.39  1557.15  1618.39  1635.83  1752.22
                             1800.06  1861.69  1884.64  1901.74  1967.06
                             1973.48  2016.39  2069.37  2070.33  2074.13
                             2163.93  2180.34  2204.10  2205.92  2208.91
                             2222.65  2474.40  2574.53  3205.76  4379.99
                             4384.10  4396.41  4398.95  4442.03  4474.00
                             4496.50  4499.43  4499.63  4507.56  4566.76
                             5173.49

 Zero-point correction=                           0.196338 (Hartree/Particle)
 Thermal correction to Energy=                    0.209810
 Thermal correction to Enthalpy=                  0.210754
 Thermal correction to Gibbs Free Energy=         0.155427
 Sum of electronic and zero-point Energies=           -567.933005
 Sum of electronic and thermal Energies=              -567.919533
 Sum of electronic and thermal Enthalpies=            -567.918588
 Sum of electronic and thermal Free Energies=         -567.973916

                     E (Thermal)             CV                S
                      KCal/Mol        Cal/Mol-Kelvin    Cal/Mol-Kelvin
 Total                  131.658             47.438            116.446
 Electronic               0.000              0.000              0.000
 Translational            0.889              2.981             41.266
 Rotational               0.889              2.981             30.911
 Vibrational            129.880             41.476             44.268
 Vibration     1          0.594              1.981              5.221
 Vibration     2          0.597              1.971              4.315
 Vibration     3          0.598              1.969              4.192
 Vibration     4          0.598              1.968              4.131
 Vibration     5          0.600              1.962              3.864
 Vibration     6          0.613              1.920              2.892
 Vibration     7          0.621              1.893              2.563
 Vibration     8          0.642              1.826              2.044
 Vibration     9          0.652              1.794              1.873
 Vibration    10          0.661              1.768              1.753
 Vibration    11          0.671              1.738              1.631
 Vibration    12          0.684              1.698              1.493
 Vibration    13          0.707              1.632              1.301
 Vibration    14          0.742              1.533              1.078
 Vibration    15          0.821              1.331              0.756
 Vibration    16          0.856              1.248              0.656
 Vibration    17          0.864              1.231              0.637
 Vibration    18          0.875              1.205              0.609
 Vibration    19          0.946              1.055              0.469
 Vibration    20          0.965              1.019              0.439

 Optimization completed.
    -- Stationary point found.
 Normal termination of Gaussian 16 at Wed Dec  9 17:15:53 2020.

 ----------------------------------------------------------------------
 # B3LYP/6-311++G(d,p) empiricaldispersion=gd3bj scf=xqc pop=npa geom=c
 heck
 ----------------------------------------------------------------------

 ---------------------------------------
 CID_150053405_JID_2330_Energie_neutraal
 ---------------------------------------
 Structure from the checkpoint file:  "JID_2330.chk"
 Charge =  0 Multiplicity = 1

 SCF Done:  E(RB3LYP) =  -568.295125107     A.U. after   17 cycles
 Normal termination of Gaussian 16 at Wed Dec  9 17:18:20 2020.

 ----------------------------------------------------------------------
 # B3LYP/6-311++G(d,p) empiricaldispersion=gd3bj scf=xqc pop=npa geom=c
 heck
 ----------------------------------------------------------------------

 -------------------------------------
 CID_150053405_JID_2330_Energie_kation
 -------------------------------------
 Structure from the checkpoint file:  "JID_2330.chk"
 Charge =  1 Multiplicity = 2

 SCF Done:  E(UB3LYP) =  -567.966992299     A.U. after   27 cycles
 Normal termination of Gaussian 16 at Wed Dec  9 17:23:15 2020.
 Gaussian 16:  ES64L-G16RevA.03 25-Dec-2016

 ----------------------------------------------------------------------
 # B3LYP/6-311++G(d,p) empiricaldispersion=gd3bj scf=xqc pop=npa geom=c
 heck
 ----------------------------------------------------------------------

 ------------------------------------
 CID_150053405_JID_2330_Energie_anion
 ------------------------------------
 Structure from the checkpoint file:  "JID_2330.chk"
 Charge = -1 Multiplicity = 2

                         Standard orientation:
 ---------------------------------------------------------------------
 Center     Atomic      Atomic             Coordinates (Angstroms)
 Number     Number       Type             X           Y           Z
 ---------------------------------------------------------------------
      1          6           0       -2.666354    1.434628    0.488624
      2          6           0       -2.126973    0.133082    1.104684
      3          6           0       -0.887461   -0.376366    0.403463
      4          6           0        0.257634   -0.509073    1.090006
      5          6           0        1.557375   -1.026149    0.568859
      6          8           0        2.098393   -2.037539    0.984448
      7          7           0        2.243506   -0.225301   -0.344719
      8          7           0        1.661247    0.800070   -1.128384
      9          7           0        1.364050    1.816870   -0.458535
     10          7           0        0.968394    2.788753   -0.014187
     11          6           0       -1.014356   -0.727741   -1.062601
     12          6           0       -2.123664   -1.754384   -1.343076
     13          1           0       -1.894949    2.212443    0.488332
     14          1           0       -3.523961    1.803049    1.061056
     15          1           0       -2.996349    1.286423   -0.545130
     16          1           0       -1.899179    0.297475    2.163521
     17          1           0       -2.913478   -0.632369    1.070806
     18          1           0        0.271176   -0.318413    2.161365
     19          1           0        3.023294   -0.666482   -0.818365
     20          1           0       -1.216025    0.184739   -1.639072
     21          1           0       -0.064417   -1.117881   -1.436548
     22          1           0       -3.115631   -1.362110   -1.096331
     23          1           0       -2.128603   -2.024863   -2.403935
     24          1           0       -1.966607   -2.668420   -0.760265
 ---------------------------------------------------------------------

 SCF Done:  E(UB3LYP) =  -568.301825795     A.U. after   33 cycles
 SCF Done:  E(UB3LYP) =  -568.301825795     a.u. after    1 cycles

 The electronic state is 2-A.
 Alpha  occ. eigenvalues --  -18.96074 -14.27354 -14.22241 -14.21615 -14.19046
 Alpha  occ. eigenvalues --  -10.14224 -10.06611 -10.06451 -10.05625 -10.05542
 Alpha  occ. eigenvalues --  -10.05293 -10.04805  -0.96528  -0.91300  -0.84482
 Alpha  occ. eigenvalues --   -0.72358  -0.71181  -0.64407  -0.62528  -0.54193
 Alpha  occ. eigenvalues --   -0.51927  -0.48875  -0.44482  -0.40472  -0.37380
 Alpha  occ. eigenvalues --   -0.36492  -0.34853  -0.33140  -0.31900  -0.31742
 Alpha  occ. eigenvalues --   -0.30742  -0.30275  -0.28361  -0.27589  -0.27197
 Alpha  occ. eigenvalues --   -0.26081  -0.24986  -0.24522  -0.22694  -0.21594
 Alpha  occ. eigenvalues --   -0.20322  -0.15197  -0.13648  -0.12397  -0.08048
 Alpha  occ. eigenvalues --    0.05200
 Alpha virt. eigenvalues --    0.07314   0.08430   0.09638   0.10212   0.10685
 Alpha virt. eigenvalues --    0.11054   0.11602   0.12456   0.12791   0.14269
 Alpha virt. eigenvalues --    0.14644   0.14933   0.15118   0.16297   0.16691

  Beta  occ. eigenvalues --  -18.96019 -14.26854 -14.22055 -14.21684 -14.18284
  Beta  occ. eigenvalues --  -10.14173 -10.06612 -10.06371 -10.05616 -10.05521
  Beta  occ. eigenvalues --  -10.05290 -10.04802  -0.95592  -0.91137  -0.84004
  Beta  occ. eigenvalues --   -0.71973  -0.70994  -0.64379  -0.62456  -0.54053
  Beta  occ. eigenvalues --   -0.51890  -0.48550  -0.44241  -0.40294  -0.37311
  Beta  occ. eigenvalues --   -0.36238  -0.33552  -0.33018  -0.31692  -0.31028
  Beta  occ. eigenvalues --   -0.30586  -0.30005  -0.27549  -0.27064  -0.26739
  Beta  occ. eigenvalues --   -0.25872  -0.24672  -0.24464  -0.22637  -0.21540
  Beta  occ. eigenvalues --   -0.18969  -0.15071  -0.13227  -0.11996  -0.07817
  Beta virt. eigenvalues --    0.07375   0.08457   0.09608   0.10035   0.10989
  Beta virt. eigenvalues --    0.11086   0.11714   0.12405   0.12740   0.14180
  Beta virt. eigenvalues --    0.14417   0.14772   0.14959   0.15425   0.16352

 Mulliken charges and spin densities:
               1          2
     1  C   -0.527849  -0.102966
     2  C   -0.308404  -0.079160
     3  C    1.419401  -0.025077
     4  C   -0.287625  -0.117698
     5  C   -0.331581  -0.050538
     6  O   -0.347483   0.023483
     7  N   -0.177325  -0.054342
     8  N   -0.125939  -0.114205
     9  N    0.174194   0.129426
    10  N   -0.427424   0.613689
    11  C   -0.863289   0.332595
    12  C    0.057459  -0.818837
    13  H    0.148410   0.041789
    14  H    0.121198  -0.009072
    15  H    0.089173   0.053366
    16  H    0.145099   0.000162
    17  H    0.136507  -0.004374
    18  H    0.184096  -0.005458
    19  H   -0.007470   0.303538
    20  H   -0.065176   0.253264
    21  H    0.091830   0.119459
    22  H    0.079708   0.049155
    23  H   -0.237889   0.376584
    24  H    0.060380   0.085216
 Sum of Mulliken charges =  -1.00000   1.00000

 Dipole moment (field-independent basis, Debye):
    X=             -4.5167    Y=             -0.7263    Z=              2.3008  Tot=              5.1207
 Quadrupole moment (field-independent basis, Debye-Ang):
   XX=            -98.4563   YY=           -111.0067   ZZ=            -93.1514
   XY=              0.6876   XZ=             -5.1933   YZ=              2.6403

 Summary of Natural Population Analysis:

                                       Natural Population
                Natural  -----------------------------------------------
    Atom  No    Charge         Core      Valence    Rydberg      Total
 -----------------------------------------------------------------------
      C    1   -0.28745      0.99966     2.28217    0.00562     3.28745
      C    2   -0.20113      0.99960     2.19390    0.00763     3.20113
      C    3    0.03267      0.99949     1.95699    0.01085     2.96733
      C    4   -0.14581      0.99940     2.13673    0.00968     3.14581
      C    5    0.32712      0.99964     1.64952    0.02372     2.67288
      O    6   -0.32119      0.99987     3.31533    0.00599     4.32119
      N    7   -0.22118      0.99966     2.70838    0.01314     3.72118
      N    8   -0.16383      0.99972     2.64626    0.01786     3.66383
      N    9    0.14584      0.99970     2.33870    0.01576     3.35416
      N   10    0.05099      0.99981     2.43612    0.01308     3.44901
      C   11   -0.21246      0.99959     2.20273    0.01014     3.21246
      C   12   -0.28355      0.99966     2.27866    0.00523     3.28355
      H   13    0.11026      0.00000     0.38881    0.00093     0.38974
      H   14    0.09111      0.00000     0.40815    0.00074     0.40889
      H   15    0.09572      0.00000     0.40341    0.00087     0.40428
      H   16    0.09534      0.00000     0.40348    0.00119     0.40466
      H   17    0.09485      0.00000     0.40408    0.00107     0.40515
      H   18    0.10138      0.00000     0.39771    0.00091     0.39862
      H   19    0.18818      0.00000     0.30884    0.00299     0.31182
      H   20    0.10647      0.00000     0.39180    0.00173     0.39353
      H   21    0.10966      0.00000     0.38863    0.00172     0.39034
      H   22    0.09131      0.00000     0.40789    0.00080     0.40869
      H   23    0.09946      0.00000     0.39960    0.00094     0.40054
      H   24    0.09624      0.00000     0.40292    0.00084     0.40376
 =======================================================================
   * Total *   -0.00000     11.99580    32.85078    0.15341    45.00000

 Normal termination of Gaussian 16 at Wed Dec  9 17:29:15 2020.
