 Gaussian 16, Revision A.03,

 -----------------------------------------------------------
 # opt freq B3LYP/6-31G(d) empiricaldispersion=gd3bj scf=xqc
 -----------------------------------------------------------

 -------------------------------
 CID_106232876_JID_7146_neutraal
 -------------------------------
 Symbolic Z-matrix:
 Charge =  0 Multiplicity = 1

 SCF Done:  E(RB3LYP) =  -799.663155148     A.U. after   16 cycles
 SCF Done:  E(RB3LYP) =  -799.683283839     A.U. after   14 cycles
 SCF Done:  E(RB3LYP) =  -799.685636569     A.U. after   14 cycles
 SCF Done:  E(RB3LYP) =  -799.684725237     A.U. after   13 cycles
 SCF Done:  E(RB3LYP) =  -799.684934963     A.U. after   13 cycles
 SCF Done:  E(RB3LYP) =  -799.686078951     A.U. after   10 cycles
 SCF Done:  E(RB3LYP) =  -799.686460591     A.U. after   13 cycles
 SCF Done:  E(RB3LYP) =  -799.686327843     A.U. after   13 cycles
 SCF Done:  E(RB3LYP) =  -799.686660546     A.U. after   12 cycles
 SCF Done:  E(RB3LYP) =  -799.686776408     A.U. after   12 cycles
 SCF Done:  E(RB3LYP) =  -799.687550093     A.U. after   11 cycles
 SCF Done:  E(RB3LYP) =  -799.687571676     A.U. after   11 cycles
 SCF Done:  E(RB3LYP) =  -799.687571073     A.U. after    9 cycles
 SCF Done:  E(RB3LYP) =  -799.687571758     A.U. after    9 cycles
 SCF Done:  E(RB3LYP) =  -799.687571765     A.U. after    7 cycles
 SCF Done:  E(RB3LYP) =  -799.687571764     A.U. after    7 cycles
 Optimization completed.
    -- Stationary point found.
 Normal termination of Gaussian 16 at Fri Dec 11 12:05:57 2020.

 --------------------------------------------------------------------
 #N Geom=AllCheck Guess=TCheck SCRF=Check GenChk RB3LYP/6-31G(d) Freq
 --------------------------------------------------------------------

 Structure from the checkpoint file:  "JID_7146.chk"
 -------------------------------
 CID_106232876_JID_7146_neutraal
 -------------------------------
 Charge =  0 Multiplicity = 1

 SCF Done:  E(RB3LYP) =  -799.687571764     A.U. after    1 cycles

  Exact polarizability: 207.031   3.484 146.675   6.524   0.077  80.730
 Approx polarizability: 281.699   6.001 251.822   9.591  -2.757 123.619

                      1                      2                      3
                      A                      A                      A
 Frequencies --     16.6089                38.6208                52.0776
 Red. masses --      5.4369                 4.3781                 4.2945
 Frc consts  --      0.0009                 0.0038                 0.0069
 IR Inten    --      2.5860                 0.1147                 0.3565

                      4                      5                      6
                      A                      A                      A
 Frequencies --     63.6641                79.4756                96.6763
 Red. masses --      8.0769                 7.4272                 4.5567
 Frc consts  --      0.0193                 0.0276                 0.0251
 IR Inten    --      0.7758                 1.5540                 0.4812

                      7                      8                      9
                      A                      A                      A
 Frequencies --    110.9255               147.0548               167.1935
 Red. masses --      3.4448                 4.2183                 2.4162
 Frc consts  --      0.0250                 0.0537                 0.0398
 IR Inten    --      1.8975                 1.1751                 0.4229

                     10                     11                     12
                      A                      A                      A
 Frequencies --    213.9920               239.0155               263.7136
 Red. masses --      2.5590                 4.4495                 1.9203
 Frc consts  --      0.0690                 0.1498                 0.0787
 IR Inten    --      0.0581                 0.0715                 1.2361

                     13                     14                     15
                      A                      A                      A
 Frequencies --    275.6526               287.7562               311.5945
 Red. masses --      4.4497                 3.9380                 7.1456
 Frc consts  --      0.1992                 0.1921                 0.4088
 IR Inten    --      1.3698                 0.3812                 0.2834

                     16                     17                     18
                      A                      A                      A
 Frequencies --    396.5170               412.7272               433.4757
 Red. masses --      4.9770                 3.2945                 3.9116
 Frc consts  --      0.4610                 0.3306                 0.4330
 IR Inten    --     12.0421                 6.6367                 9.5973

                     19                     20                     21
                      A                      A                      A
 Frequencies --    460.4063               491.9636               511.5085
 Red. masses --      6.1137                 6.0304                 7.5674
 Frc consts  --      0.7636                 0.8599                 1.1665
 IR Inten    --      9.1352                17.2637                18.1125

                     22                     23                     24
                      A                      A                      A
 Frequencies --    540.3604               588.7839               600.8462
 Red. masses --      4.0111                 2.0303                 2.0671
 Frc consts  --      0.6901                 0.4147                 0.4397
 IR Inten    --      1.1466                14.4084                 4.5996

                     25                     26                     27
                      A                      A                      A
 Frequencies --    605.9957               624.7281               642.4267
 Red. masses --      1.1980                 1.3419                 1.3679
 Frc consts  --      0.2592                 0.3086                 0.3326
 IR Inten    --     42.8452               126.6216                27.9253

                     28                     29                     30
                      A                      A                      A
 Frequencies --    652.4795               667.7932               710.5285
 Red. masses --      4.6797                 4.8351                 3.7920
 Frc consts  --      1.1738                 1.2704                 1.1279
 IR Inten    --     15.0323                10.4926                28.1694

                     31                     32                     33
                      A                      A                      A
 Frequencies --    727.7154               753.0147               782.9135
 Red. masses --      3.8950                 3.8142                 1.4027
 Frc consts  --      1.2153                 1.2743                 0.5066
 IR Inten    --    106.5569                82.7291                 1.2109

                     34                     35                     36
                      A                      A                      A
 Frequencies --    815.9499               836.3997               891.3668
 Red. masses --      6.2878                 5.9206                 1.8223
 Frc consts  --      2.4665                 2.4403                 0.8531
 IR Inten    --      1.9473                 1.3877                11.7997

                     37                     38                     39
                      A                      A                      A
 Frequencies --    898.2793               969.1846               980.5285
 Red. masses --      1.5812                 1.9337                 1.4396
 Frc consts  --      0.7517                 1.0702                 0.8155
 IR Inten    --      9.1316                 9.8556                 1.9381

                     40                     41                     42
                      A                      A                      A
 Frequencies --   1017.0697              1045.6085              1052.7778
 Red. masses --      1.3422                 3.3968                 3.0241
 Frc consts  --      0.8180                 2.1880                 1.9748
 IR Inten    --      0.6655                35.9772                 8.0711

                     43                     44                     45
                      A                      A                      A
 Frequencies --   1109.5171              1130.5291              1133.6893
 Red. masses --      4.0007                 1.9679                 2.7344
 Frc consts  --      2.9017                 1.4819                 2.0706
 IR Inten    --     18.4938                16.2283               164.7427

                     46                     47                     48
                      A                      A                      A
 Frequencies --   1148.5197              1160.5454              1196.1940
 Red. masses --      2.3401                 1.4075                 3.2455
 Frc consts  --      1.8187                 1.1169                 2.7361
 IR Inten    --      4.7446                 5.5778                71.7084

                     49                     50                     51
                      A                      A                      A
 Frequencies --   1221.3358              1286.2006              1317.2598
 Red. masses --      1.7607                 1.3162                 1.4276
 Frc consts  --      1.5474                 1.2829                 1.4595
 IR Inten    --    236.8862                 2.5390                 4.4754

                     52                     53                     54
                      A                      A                      A
 Frequencies --   1326.4345              1338.9394              1356.1436
 Red. masses --      3.3634                 1.7742                 1.2218
 Frc consts  --      3.4866                 1.8740                 1.3239
 IR Inten    --     17.5340                 7.1322                 6.3397

                     55                     56                     57
                      A                      A                      A
 Frequencies --   1388.0345              1391.1511              1420.2859
 Red. masses --      2.2356                 1.3564                 4.0267
 Frc consts  --      2.5378                 1.5467                 4.7857
 IR Inten    --    247.8790                 2.2271                25.8742

                     58                     59                     60
                      A                      A                      A
 Frequencies --   1436.8030              1440.7249              1498.6742
 Red. masses --      3.0683                 1.3172                 1.6712
 Frc consts  --      3.7320                 1.6108                 2.2115
 IR Inten    --    155.0082                19.3506                77.8294

                     61                     62                     63
                      A                      A                      A
 Frequencies --   1511.1504              1528.8048              1529.2706
 Red. masses --      1.0906                 2.2335                 1.1779
 Frc consts  --      1.4673                 3.0757                 1.6230
 IR Inten    --     14.1233                15.7052                 7.4216

                     64                     65                     66
                      A                      A                      A
 Frequencies --   1536.5311              1614.6691              1657.3061
 Red. masses --      1.0553                 7.1515                 5.8265
 Frc consts  --      1.4680                10.9854                 9.4290
 IR Inten    --      4.6913                21.6799                65.7838

                     67                     68                     69
                      A                      A                      A
 Frequencies --   1753.3406              1828.1790              2240.9080
 Red. masses --      7.9862                10.0388                 5.9532
 Frc consts  --     14.4652                19.7683                17.6138
 IR Inten    --    354.5726               285.1256                 0.0556

                     70                     71                     72
                      A                      A                      A
 Frequencies --   3051.1547              3061.2115              3110.3536
 Red. masses --      1.0375                 1.0640                 1.0975
 Frc consts  --      5.6906                 5.8743                 6.2555
 IR Inten    --     19.3102                22.8624                 6.1353

                     73                     74                     75
                      A                      A                      A
 Frequencies --   3119.6200              3125.2905              3134.2817
 Red. masses --      1.0932                 1.0926                 1.1019
 Frc consts  --      6.2686                 6.2880                 6.3775
 IR Inten    --     22.3168                21.0818                34.1923

                     76                     77                     78
                      A                      A                      A
 Frequencies --   3211.0329              3233.1881              3254.2967
 Red. masses --      1.0915                 1.0904                 1.0939
 Frc consts  --      6.6306                 6.7160                 6.8256
 IR Inten    --      2.6304                 1.0359                 0.7876

                     79                     80                     81
                      A                      A                      A
 Frequencies --   3495.0410              3589.2703              3697.7908
 Red. masses --      1.1608                 1.0758                 1.0642
 Frc consts  --      8.3540                 8.1659                 8.5736
 IR Inten    --     67.0607                41.9451                88.8782

 - Thermochemistry -
 -------------------
 Temperature   298.150 Kelvin.  Pressure   1.00000 Atm.
 Atom     1 has atomic number  6 and mass  12.00000

 Molecular mass:   232.08479 amu.
 Principal axes and moments of inertia in atomic units:
                           1         2         3
     Eigenvalues --  2170.972367569.880819090.64339
           X            0.99975  -0.02209  -0.00290
           Y            0.02214   0.99958   0.01887
           Z            0.00249  -0.01893   0.99982
 This molecule is an asymmetric top.
 Rotational symmetry number  1.
 Warning -- assumption of classical behavior for rotation
           may cause significant error
 Rotational temperatures (Kelvin)      0.03990     0.01144     0.00953
 Rotational constants (GHZ):           0.83131     0.23841     0.19853
 Zero-point vibrational energy     592504.7 (Joules/Mol)
                                  141.61201 (Kcal/Mol)
 Warning -- explicit consideration of  25 degrees of freedom as
           vibrations may cause significant error
 Vibrational temperatures:     23.90    55.57    74.93    91.60   114.35
          (Kelvin)            139.10   159.60   211.58   240.55   307.89
                              343.89   379.43   396.60   414.02   448.32
                              570.50   593.82   623.67   662.42   707.83
                              735.95   777.46   847.13   864.48   871.89
                              898.84   924.31   938.77   960.81  1022.29
                             1047.02  1083.42  1126.44  1173.97  1203.39
                             1282.48  1292.42  1394.44  1410.76  1463.34
                             1504.40  1514.71  1596.35  1626.58  1631.13
                             1652.46  1669.77  1721.06  1757.23  1850.56
                             1895.24  1908.44  1926.44  1951.19  1997.07
                             2001.56  2043.47  2067.24  2072.88  2156.26
                             2174.21  2199.61  2200.28  2210.73  2323.15
                             2384.49  2522.67  2630.34  3224.17  4389.93
                             4404.40  4475.11  4488.44  4496.60  4509.53
                             4619.96  4651.84  4682.21  5028.58  5164.16
                             5320.30

 Zero-point correction=                           0.225673 (Hartree/Particle)
 Thermal correction to Energy=                    0.242088
 Thermal correction to Enthalpy=                  0.243032
 Thermal correction to Gibbs Free Energy=         0.179490
 Sum of electronic and zero-point Energies=           -799.461899
 Sum of electronic and thermal Energies=              -799.445484
 Sum of electronic and thermal Enthalpies=            -799.444540
 Sum of electronic and thermal Free Energies=         -799.508081

                     E (Thermal)             CV                S
                      KCal/Mol        Cal/Mol-Kelvin    Cal/Mol-Kelvin
 Total                  151.913             60.468            133.735
 Electronic               0.000              0.000              0.000
 Translational            0.889              2.981             42.228
 Rotational               0.889              2.981             33.368
 Vibrational            150.135             54.506             58.139
 Vibration     1          0.593              1.986              7.003
 Vibration     2          0.594              1.981              5.329
 Vibration     3          0.596              1.977              4.737
 Vibration     4          0.597              1.972              4.340
 Vibration     5          0.600              1.963              3.904
 Vibration     6          0.603              1.952              3.520
 Vibration     7          0.607              1.940              3.253
 Vibration     8          0.617              1.906              2.710
 Vibration     9          0.624              1.883              2.467
 Vibration    10          0.644              1.820              2.009
 Vibration    11          0.657              1.781              1.810
 Vibration    12          0.670              1.739              1.637
 Vibration    13          0.677              1.718              1.560
 Vibration    14          0.685              1.696              1.487
 Vibration    15          0.700              1.652              1.354
 Vibration    16          0.763              1.478              0.976
 Vibration    17          0.777              1.443              0.917
 Vibration    18          0.794              1.397              0.847
 Vibration    19          0.818              1.338              0.765
 Vibration    20          0.848              1.268              0.679
 Vibration    21          0.867              1.224              0.630
 Vibration    22          0.895              1.161              0.565
 Vibration    23          0.946              1.056              0.469
 Vibration    24          0.959              1.030              0.448
 Vibration    25          0.965              1.019              0.439

 Optimization completed.
    -- Stationary point found.
 Normal termination of Gaussian 16 at Fri Dec 11 12:16:10 2020.

 ----------------------------------------------------------------------
 # B3LYP/6-311++G(d,p) empiricaldispersion=gd3bj scf=xqc pop=npa geom=c
 heck
 ----------------------------------------------------------------------

 ---------------------------------------
 CID_106232876_JID_7146_Energie_neutraal
 ---------------------------------------
 Structure from the checkpoint file:  "JID_7146.chk"
 Charge =  0 Multiplicity = 1

 SCF Done:  E(RB3LYP) =  -799.923453222     A.U. after   16 cycles
 Normal termination of Gaussian 16 at Fri Dec 11 12:20:33 2020.

 ----------------------------------------------------------------------
 # B3LYP/6-311++G(d,p) empiricaldispersion=gd3bj scf=xqc pop=npa geom=c
 heck
 ----------------------------------------------------------------------

 -------------------------------------
 CID_106232876_JID_7146_Energie_kation
 -------------------------------------
 Structure from the checkpoint file:  "JID_7146.chk"
 Charge =  1 Multiplicity = 2

 SCF Done:  E(UB3LYP) =  -799.597611465     A.U. after   30 cycles
 Normal termination of Gaussian 16 at Fri Dec 11 12:33:16 2020.
 Gaussian 16:  ES64L-G16RevA.03 25-Dec-2016

 ----------------------------------------------------------------------
 # B3LYP/6-311++G(d,p) empiricaldispersion=gd3bj scf=xqc pop=npa geom=c
 heck
 ----------------------------------------------------------------------

 ------------------------------------
 CID_106232876_JID_7146_Energie_anion
 ------------------------------------
 Structure from the checkpoint file:  "JID_7146.chk"
 Charge = -1 Multiplicity = 2

                         Standard orientation:
 ---------------------------------------------------------------------
 Center     Atomic      Atomic             Coordinates (Angstroms)
 Number     Number       Type             X           Y           Z
 ---------------------------------------------------------------------
      1          6           0        2.954561   -2.681809   -0.690754
      2          6           0        2.751762   -1.215395   -1.069294
      3          6           0        2.596363   -0.300169    0.163593
      4          6           0        3.802014   -0.300780    1.000114
      5          6           0        4.815962   -0.300449    1.654985
      6          7           0        2.300397    1.086473   -0.225992
      7          6           0        1.128484    1.773715   -0.336317
      8          8           0        1.127706    2.978828   -0.583558
      9          6           0       -0.195812    1.064427   -0.162267
     10          7           0       -0.262521   -0.275147   -0.227068
     11          6           0       -1.459872   -0.849694   -0.108829
     12          6           0       -2.643564   -0.127744    0.082511
     13          6           0       -2.566843    1.267898    0.148179
     14          6           0       -1.324248    1.873364    0.017920
     15          6           0       -3.917226   -0.880417    0.204093
     16          8           0       -4.013989   -2.088902    0.150522
     17          8           0       -4.987143   -0.068218    0.385687
     18          1           0        3.859920   -2.815467   -0.089603
     19          1           0        3.045434   -3.304991   -1.586372
     20          1           0        2.103437   -3.054638   -0.108295
     21          1           0        3.591965   -0.851094   -1.672713
     22          1           0        1.838718   -1.096677   -1.659608
     23          1           0        1.752060   -0.669628    0.748243
     24          1           0        5.700028   -0.298652    2.251212
     25          1           0        3.103755    1.685603   -0.376535
     26          1           0       -1.498666   -1.933733   -0.167636
     27          1           0       -3.465364    1.856729    0.294247
     28          1           0       -1.196303    2.948241    0.041470
     29          1           0       -5.762192   -0.656322    0.452184
 ---------------------------------------------------------------------

 SCF Done:  E(UB3LYP) =  -799.961271330     A.U. after   23 cycles

 The electronic state is 2-A.
 Alpha  occ. eigenvalues --  -19.03665 -18.96124 -18.94347 -14.21122 -14.16478
 Alpha  occ. eigenvalues --  -10.14839 -10.12851 -10.12812 -10.09017 -10.07913
 Alpha  occ. eigenvalues --  -10.07080 -10.06882 -10.06305 -10.05120 -10.03716
 Alpha  occ. eigenvalues --  -10.03172 -10.03035  -0.97230  -0.90047  -0.87800
 Alpha  occ. eigenvalues --   -0.80869  -0.79797  -0.69824  -0.66634  -0.65955
 Alpha  occ. eigenvalues --   -0.63068  -0.59767  -0.54470  -0.51333  -0.49797
 Alpha  occ. eigenvalues --   -0.47814  -0.45304  -0.44978  -0.40630  -0.39124
 Alpha  occ. eigenvalues --   -0.37818  -0.35825  -0.34698  -0.34552  -0.33191
 Alpha  occ. eigenvalues --   -0.31925  -0.31288  -0.30027  -0.29605  -0.28922
 Alpha  occ. eigenvalues --   -0.27776  -0.27213  -0.26345  -0.25748  -0.24701
 Alpha  occ. eigenvalues --   -0.24163  -0.23132  -0.20024  -0.19633  -0.19044
 Alpha  occ. eigenvalues --   -0.15436  -0.14770  -0.13686  -0.13217  -0.12543
 Alpha  occ. eigenvalues --   -0.11206   0.02320
 Alpha virt. eigenvalues --    0.06862   0.08105   0.08659   0.09491   0.10063
 Alpha virt. eigenvalues --    0.10511   0.10877   0.11259   0.11429   0.12188
 Alpha virt. eigenvalues --    0.12617   0.13572   0.13707   0.13985   0.14386

  Beta  occ. eigenvalues --  -19.03610 -18.95837 -18.94136 -14.21070 -14.16395
  Beta  occ. eigenvalues --  -10.14646 -10.12815 -10.12768 -10.09016 -10.07910
  Beta  occ. eigenvalues --  -10.07075 -10.06881 -10.06282 -10.04721 -10.03529
  Beta  occ. eigenvalues --  -10.03204 -10.02785  -0.96978  -0.89706  -0.87380
  Beta  occ. eigenvalues --   -0.80661  -0.79483  -0.69777  -0.66133  -0.65914
  Beta  occ. eigenvalues --   -0.62520  -0.59730  -0.53792  -0.51308  -0.49523
  Beta  occ. eigenvalues --   -0.47622  -0.45274  -0.44718  -0.40588  -0.38930
  Beta  occ. eigenvalues --   -0.37581  -0.35613  -0.34639  -0.34331  -0.32952
  Beta  occ. eigenvalues --   -0.31205  -0.30737  -0.29881  -0.29359  -0.28664
  Beta  occ. eigenvalues --   -0.27276  -0.26850  -0.26243  -0.25476  -0.24619
  Beta  occ. eigenvalues --   -0.23436  -0.22903  -0.19980  -0.19012  -0.18496
  Beta  occ. eigenvalues --   -0.14499  -0.14063  -0.13146  -0.12738  -0.11299
  Beta  occ. eigenvalues --   -0.10615
  Beta virt. eigenvalues --    0.06852   0.08086   0.08237   0.08656   0.09579
  Beta virt. eigenvalues --    0.10079   0.10539   0.10992   0.11374   0.11544
  Beta virt. eigenvalues --    0.12190   0.12722   0.13571   0.13969   0.14357

 Mulliken charges and spin densities:
               1          2
     1  C   -0.649891   0.001216
     2  C    0.057990   0.006750
     3  C   -0.530561   0.001658
     4  C    0.197745  -0.017269
     5  C   -0.479917   0.007113
     6  N   -0.075347   0.024449
     7  C    0.005209   0.030253
     8  O   -0.403414   0.075649
     9  C   -0.032393   0.268305
    10  N    0.105350   0.036033
    11  C   -0.829022   0.058755
    12  C    0.441530   0.097568
    13  C   -0.322354   0.188189
    14  C   -0.137638  -0.015559
    15  C    0.117847   0.129893
    16  O   -0.413362   0.100600
    17  O   -0.217547   0.012959
    18  H    0.134890   0.000249
    19  H    0.116036  -0.000001
    20  H    0.156883   0.000113
    21  H    0.125679   0.004463
    22  H    0.177709   0.003614
    23  H    0.214595  -0.000955
    24  H    0.155470  -0.000098
    25  H    0.282178  -0.002581
    26  H    0.185028  -0.001429
    27  H    0.165655  -0.009932
    28  H    0.186850   0.000993
    29  H    0.264803  -0.000996
 Sum of Mulliken charges =  -1.00000   1.00000

 Dipole moment (field-independent basis, Debye):
    X=              4.4773    Y=             -2.3321    Z=              0.6927  Tot=              5.0956
 Quadrupole moment (field-independent basis, Debye-Ang):
   XX=           -131.1455   YY=           -133.6896   ZZ=           -106.6166
   XY=            -13.6419   XZ=              1.3799   YZ=              3.7384

 Summary of Natural Population Analysis:

                                       Natural Population
                Natural  -----------------------------------------------
    Atom  No    Charge         Core      Valence    Rydberg      Total
 -----------------------------------------------------------------------
      C    1   -0.28982      0.99967     2.28625    0.00390     3.28982
      C    2   -0.18388      0.99962     2.17751    0.00675     3.18388
      C    3   -0.05723      0.99950     2.04575    0.01197     3.05723
      C    4    0.00979      0.99937     1.98241    0.00843     2.99021
      C    5   -0.13841      0.99928     2.13514    0.00399     3.13841
      N    6   -0.31121      0.99965     2.79835    0.01320     3.81121
      C    7    0.34342      0.99963     1.63557    0.02138     2.65658
      O    8   -0.31542      0.99988     3.30951    0.00604     4.31542
      C    9    0.12931      0.99949     1.85856    0.01264     2.87069
      N   10   -0.24910      0.99968     2.73888    0.01054     3.74910
      C   11    0.05053      0.99957     1.93664    0.01326     2.94947
      C   12   -0.05873      0.99945     2.05000    0.00928     3.05873
      C   13   -0.03862      0.99955     2.03045    0.00862     3.03862
      C   14   -0.11422      0.99954     2.10613    0.00855     3.11422
      C   15    0.41822      0.99967     1.55737    0.02474     2.58178
      O   16   -0.30247      0.99987     3.29478    0.00783     4.30247
      O   17   -0.35214      0.99988     3.34621    0.00605     4.35214
      H   18    0.09673      0.00000     0.40233    0.00094     0.40327
      H   19    0.09587      0.00000     0.40324    0.00089     0.40413
      H   20    0.10033      0.00000     0.39877    0.00089     0.39967
      H   21    0.08976      0.00000     0.40906    0.00118     0.41024
      H   22    0.11490      0.00000     0.38397    0.00113     0.38510
      H   23    0.13396      0.00000     0.36429    0.00175     0.36604
      H   24    0.10858      0.00000     0.39038    0.00104     0.39142
      H   25    0.18885      0.00000     0.30942    0.00173     0.31115
      H   26    0.09156      0.00000     0.40727    0.00117     0.40844
      H   27    0.09906      0.00000     0.39986    0.00108     0.40094
      H   28    0.10943      0.00000     0.38944    0.00113     0.39057
      H   29    0.23095      0.00000     0.26577    0.00328     0.26905
 =======================================================================
   * Total *   -0.00000     16.99332    43.81330    0.19338    61.00000

 Normal termination of Gaussian 16 at Fri Dec 11 12:44:57 2020.
