 Gaussian 16, Revision A.03,

 -----------------------------------------------------------
 # opt freq B3LYP/6-31G(d) empiricaldispersion=gd3bj scf=xqc
 -----------------------------------------------------------

 -------------------------------
 CID_135038585_JID_2480_neutraal
 -------------------------------
 Symbolic Z-matrix:
 Charge =  0 Multiplicity = 1

 SCF Done:  E(RB3LYP) =  -878.945940223     A.U. after   14 cycles
 SCF Done:  E(RB3LYP) =  -878.951443253     A.U. after   12 cycles
 SCF Done:  E(RB3LYP) =  -878.953057545     A.U. after   13 cycles
 SCF Done:  E(RB3LYP) =  -878.954505249     A.U. after   14 cycles
 SCF Done:  E(RB3LYP) =  -878.955181994     A.U. after   14 cycles
 SCF Done:  E(RB3LYP) =  -878.955456243     A.U. after   11 cycles
 SCF Done:  E(RB3LYP) =  -878.955560855     A.U. after   12 cycles
 SCF Done:  E(RB3LYP) =  -878.955607029     A.U. after   10 cycles
 SCF Done:  E(RB3LYP) =  -878.955638750     A.U. after   11 cycles
 SCF Done:  E(RB3LYP) =  -878.955650196     A.U. after   11 cycles
 SCF Done:  E(RB3LYP) =  -878.955653136     A.U. after    9 cycles
 SCF Done:  E(RB3LYP) =  -878.955654753     A.U. after    9 cycles
 SCF Done:  E(RB3LYP) =  -878.955655265     A.U. after    8 cycles
 SCF Done:  E(RB3LYP) =  -878.955655389     A.U. after    8 cycles
 SCF Done:  E(RB3LYP) =  -878.955655435     A.U. after    7 cycles
 Optimization completed.
    -- Stationary point found.
 Normal termination of Gaussian 16 at Wed Dec  9 17:27:37 2020.

 --------------------------------------------------------------------
 #N Geom=AllCheck Guess=TCheck SCRF=Check GenChk RB3LYP/6-31G(d) Freq
 --------------------------------------------------------------------

 Structure from the checkpoint file:  "JID_2480.chk"
 -------------------------------
 CID_135038585_JID_2480_neutraal
 -------------------------------
 Charge =  0 Multiplicity = 1

 SCF Done:  E(RB3LYP) =  -878.955655435     A.U. after    1 cycles

  Exact polarizability: 167.966 -11.609 107.170   8.925  17.840  88.804
 Approx polarizability: 228.071 -18.291 176.197  17.286  41.170 142.105

                      1                      2                      3
                      A                      A                      A
 Frequencies --     23.2204                37.1551                64.6038
 Red. masses --      5.7213                 4.2159                 2.9393
 Frc consts  --      0.0018                 0.0034                 0.0072
 IR Inten    --      0.3233                 0.9157                 1.1626

                      4                      5                      6
                      A                      A                      A
 Frequencies --    107.4093               150.6490               191.8079
 Red. masses --      3.4243                 4.5282                 4.4456
 Frc consts  --      0.0233                 0.0605                 0.0964
 IR Inten    --      0.2752                 2.8107                 1.5892

                      7                      8                      9
                      A                      A                      A
 Frequencies --    206.5401               212.5424               279.5399
 Red. masses --      1.1255                 2.9261                 4.1507
 Frc consts  --      0.0283                 0.0779                 0.1911
 IR Inten    --      0.1496                 0.8535                 0.4883

                     10                     11                     12
                      A                      A                      A
 Frequencies --    333.8517               343.5596               406.9021
 Red. masses --      4.0897                 3.4352                 1.1687
 Frc consts  --      0.2686                 0.2389                 0.1140
 IR Inten    --      7.2431                 7.3083               128.5425

                     13                     14                     15
                      A                      A                      A
 Frequencies --    413.0549               440.1249               461.8363
 Red. masses --      3.0647                 3.7340                 3.1406
 Frc consts  --      0.3081                 0.4262                 0.3947
 IR Inten    --      0.6690                 4.1919                 1.3354

                     16                     17                     18
                      A                      A                      A
 Frequencies --    480.3488               520.2506               627.4313
 Red. masses --      3.5091                 2.5256                 5.5769
 Frc consts  --      0.4771                 0.4028                 1.2935
 IR Inten    --      5.3171                 8.1155                 0.1961

                     19                     20                     21
                      A                      A                      A
 Frequencies --    640.8619               705.0942               707.8758
 Red. masses --      5.1749                 2.9147                 6.1111
 Frc consts  --      1.2522                 0.8538                 1.8042
 IR Inten    --      0.6027                 7.9526                 8.2304

                     22                     23                     24
                      A                      A                      A
 Frequencies --    752.8188               850.6005               855.6940
 Red. masses --      1.3950                 2.6202                 1.2534
 Frc consts  --      0.4658                 1.1170                 0.5407
 IR Inten    --     43.5988                14.8109                 0.0808

                     25                     26                     27
                      A                      A                      A
 Frequencies --    912.0612               914.5123               969.9898
 Red. masses --      2.1872                 1.3896                 1.3278
 Frc consts  --      1.0720                 0.6847                 0.7361
 IR Inten    --     24.9613                 4.1555                 0.0702

                     28                     29                     30
                      A                      A                      A
 Frequencies --    995.4710              1014.3274              1018.9692
 Red. masses --      1.2387                 2.8723                 3.5474
 Frc consts  --      0.7232                 1.7412                 2.1701
 IR Inten    --      0.4143                31.1685                 8.3105

                     31                     32                     33
                      A                      A                      A
 Frequencies --   1054.7287              1061.8890              1096.1652
 Red. masses --      2.7028                 2.3223                 2.4357
 Frc consts  --      1.7715                 1.5429                 1.7244
 IR Inten    --      9.2786                42.2939                10.0465

                     34                     35                     36
                      A                      A                      A
 Frequencies --   1097.9671              1113.0648              1147.4905
 Red. masses --      3.0310                 1.7472                 1.6765
 Frc consts  --      2.1528                 1.2754                 1.3007
 IR Inten    --     61.0669                 6.4571                 4.8489

                     37                     38                     39
                      A                      A                      A
 Frequencies --   1177.6367              1192.5350              1209.5492
 Red. masses --      1.7934                 1.1020                 1.1544
 Frc consts  --      1.4654                 0.9234                 0.9951
 IR Inten    --      2.8539                 0.6623                 1.6009

                     40                     41                     42
                      A                      A                      A
 Frequencies --   1233.1841              1249.1099              1333.9504
 Red. masses --      1.4583                 1.4992                 1.6556
 Frc consts  --      1.3066                 1.3782                 1.7357
 IR Inten    --     34.7041                14.7702                 9.7367

                     43                     44                     45
                      A                      A                      A
 Frequencies --   1339.6152              1362.5276              1391.8220
 Red. masses --      1.5513                 2.5711                 1.2925
 Frc consts  --      1.6402                 2.8123                 1.4752
 IR Inten    --      6.9183                 1.5803                 8.4280

                     46                     47                     48
                      A                      A                      A
 Frequencies --   1410.6658              1456.9370              1474.6095
 Red. masses --      1.2122                 1.2606                 1.1265
 Frc consts  --      1.4212                 1.5765                 1.4433
 IR Inten    --     23.8364                56.9636                 3.4716

                     49                     50                     51
                      A                      A                      A
 Frequencies --   1490.6152              1497.6369              1513.4889
 Red. masses --      2.1972                 1.0959                 1.0693
 Frc consts  --      2.8764                 1.4482                 1.4431
 IR Inten    --      7.1441                 7.8672                 8.1281

                     52                     53                     54
                      A                      A                      A
 Frequencies --   1527.8707              1532.5687              1543.0927
 Red. masses --      2.0141                 1.0899                 1.0492
 Frc consts  --      2.7702                 1.5082                 1.4719
 IR Inten    --     31.9997                 4.2510                 5.5345

                     55                     56                     57
                      A                      A                      A
 Frequencies --   1639.6329              1649.4364              2981.3013
 Red. masses --      5.7290                 5.3656                 1.0711
 Frc consts  --      9.0744                 8.6008                 5.6091
 IR Inten    --      1.6927                37.5611                33.6062

                     58                     59                     60
                      A                      A                      A
 Frequencies --   3007.0631              3046.1534              3083.8103
 Red. masses --      1.0508                 1.0636                 1.0877
 Frc consts  --      5.5981                 5.8146                 6.0942
 IR Inten    --    116.2453                21.6444                27.1920

                     61                     62                     63
                      A                      A                      A
 Frequencies --   3088.8112              3104.0537              3147.8441
 Red. masses --      1.0908                 1.1026                 1.1004
 Frc consts  --      6.1316                 6.2595                 6.4244
 IR Inten    --     64.7788                23.3690                16.0168

                     64                     65                     66
                      A                      A                      A
 Frequencies --   3179.4824              3187.1567              3197.4042
 Red. masses --      1.0861                 1.0875                 1.0921
 Frc consts  --      6.4690                 6.5087                 6.5780
 IR Inten    --      3.9331                 1.4062                25.0773

                     67                     68                     69
                      A                      A                      A
 Frequencies --   3211.4715              3222.4100              3694.6638
 Red. masses --      1.0962                 1.0921                 1.0658
 Frc consts  --      6.6612                 6.6814                 8.5717
 IR Inten    --     26.3627                 8.5428               109.7734

 - Thermochemistry -
 -------------------
 Temperature   298.150 Kelvin.  Pressure   1.00000 Atm.
 Atom     1 has atomic number  6 and mass  12.00000

 Molecular mass:   183.07179 amu.
 Principal axes and moments of inertia in atomic units:
                           1         2         3
     Eigenvalues --  1141.362824026.052804332.82012
           X            0.99988  -0.01568   0.00142
           Y            0.01565   0.99967   0.02037
           Z           -0.00173  -0.02034   0.99979
 This molecule is an asymmetric top.
 Rotational symmetry number  1.
 Warning -- assumption of classical behavior for rotation
           may cause significant error
 Rotational temperatures (Kelvin)      0.07589     0.02151     0.01999
 Rotational constants (GHZ):           1.58122     0.44827     0.41653
 Zero-point vibrational energy     547821.0 (Joules/Mol)
                                  130.93236 (Kcal/Mol)
 Warning -- explicit consideration of  17 degrees of freedom as
           vibrations may cause significant error
 Vibrational temperatures:     33.41    53.46    92.95   154.54   216.75
          (Kelvin)            275.97   297.17   305.80   402.20   480.34
                              494.31   585.44   594.29   633.24   664.48
                              691.11   748.52   902.73   922.06  1014.47
                             1018.48  1083.14  1223.82  1231.15  1312.25
                             1315.78  1395.60  1432.26  1459.39  1466.07
                             1517.52  1527.82  1577.14  1579.73  1601.45
                             1650.98  1694.36  1715.79  1740.27  1774.28
                             1797.19  1919.26  1927.41  1960.37  2002.52
                             2029.63  2096.21  2121.63  2144.66  2154.77
                             2177.57  2198.27  2205.02  2220.17  2359.07
                             2373.17  4289.43  4326.49  4382.74  4436.92
                             4444.11  4466.04  4529.05  4574.57  4585.61
                             4600.35  4620.59  4636.33  5315.80

 Zero-point correction=                           0.208654 (Hartree/Particle)
 Thermal correction to Energy=                    0.221140
 Thermal correction to Enthalpy=                  0.222084
 Thermal correction to Gibbs Free Energy=         0.168222
 Sum of electronic and zero-point Energies=           -878.747001
 Sum of electronic and thermal Energies=              -878.734515
 Sum of electronic and thermal Enthalpies=            -878.733571
 Sum of electronic and thermal Free Energies=         -878.787433

                     E (Thermal)             CV                S
                      KCal/Mol        Cal/Mol-Kelvin    Cal/Mol-Kelvin
 Total                  138.768             46.141            113.362
 Electronic               0.000              0.000              0.000
 Translational            0.889              2.981             41.521
 Rotational               0.889              2.981             31.366
 Vibrational            136.990             40.180             40.476
 Vibration     1          0.593              1.985              6.338
 Vibration     2          0.594              1.982              5.405
 Vibration     3          0.597              1.971              4.311
 Vibration     4          0.606              1.943              3.315
 Vibration     5          0.618              1.902              2.664
 Vibration     6          0.634              1.851              2.210
 Vibration     7          0.641              1.831              2.074
 Vibration     8          0.644              1.822              2.022
 Vibration     9          0.680              1.711              1.536
 Vibration    10          0.715              1.608              1.241
 Vibration    11          0.722              1.588              1.196
 Vibration    12          0.772              1.455              0.938
 Vibration    13          0.777              1.442              0.916
 Vibration    14          0.800              1.383              0.826
 Vibration    15          0.820              1.335              0.761
 Vibration    16          0.837              1.294              0.709
 Vibration    17          0.875              1.205              0.609

 Optimization completed.
    -- Stationary point found.
 Normal termination of Gaussian 16 at Wed Dec  9 17:33:10 2020.

 ----------------------------------------------------------------------
 # B3LYP/6-311++G(d,p) empiricaldispersion=gd3bj scf=xqc pop=npa geom=c
 heck
 ----------------------------------------------------------------------

 ---------------------------------------
 CID_135038585_JID_2480_Energie_neutraal
 ---------------------------------------
 Structure from the checkpoint file:  "JID_2480.chk"
 Charge =  0 Multiplicity = 1

 SCF Done:  E(RB3LYP) =  -879.125728126     A.U. after   14 cycles
 Normal termination of Gaussian 16 at Wed Dec  9 17:36:16 2020.

 ----------------------------------------------------------------------
 # B3LYP/6-311++G(d,p) empiricaldispersion=gd3bj scf=xqc pop=npa geom=c
 heck
 ----------------------------------------------------------------------

 -------------------------------------
 CID_135038585_JID_2480_Energie_kation
 -------------------------------------
 Structure from the checkpoint file:  "JID_2480.chk"
 Charge =  1 Multiplicity = 2

 SCF Done:  E(UB3LYP) =  -878.838861536     A.U. after   23 cycles
 Normal termination of Gaussian 16 at Wed Dec  9 17:42:04 2020.
 Gaussian 16:  ES64L-G16RevA.03 25-Dec-2016

 ----------------------------------------------------------------------
 # B3LYP/6-311++G(d,p) empiricaldispersion=gd3bj scf=xqc pop=npa geom=c
 heck
 ----------------------------------------------------------------------

 ------------------------------------
 CID_135038585_JID_2480_Energie_anion
 ------------------------------------
 Structure from the checkpoint file:  "JID_2480.chk"
 Charge = -1 Multiplicity = 2

                         Standard orientation:
 ---------------------------------------------------------------------
 Center     Atomic      Atomic             Coordinates (Angstroms)
 Number     Number       Type             X           Y           Z
 ---------------------------------------------------------------------
      1          6           0       -2.021974    1.848197   -1.024885
      2          7           0       -1.344288    0.891781   -0.149850
      3          6           0       -2.120439    0.440840    1.015688
      4          6           0       -3.246772   -0.568254    0.753865
      5          8           0       -2.795727   -1.908213    0.652550
      6         16           0       -0.475956   -0.330978   -1.001160
      7          6           0        1.177075   -0.134488   -0.337011
      8          6           0        2.128869   -1.097282   -0.691033
      9          6           0        3.434488   -0.982371   -0.218027
     10          6           0        3.793726    0.081509    0.612142
     11          6           0        2.835904    1.033289    0.963661
     12          6           0        1.527149    0.932849    0.490869
     13          1           0       -2.374333    2.685567   -0.411653
     14          1           0       -2.886930    1.432569   -1.564815
     15          1           0       -1.307485    2.228644   -1.758066
     16          1           0       -1.423389    0.004740    1.739507
     17          1           0       -2.541091    1.349325    1.466025
     18          1           0       -3.942449   -0.551629    1.600136
     19          1           0       -3.818149   -0.262484   -0.139669
     20          1           0       -2.074493   -1.923957    0.000888
     21          1           0        1.851047   -1.932973   -1.328532
     22          1           0        4.171117   -1.731369   -0.495060
     23          1           0        4.810727    0.165192    0.983620
     24          1           0        3.106445    1.863977    1.610029
     25          1           0        0.771962    1.665559    0.753089
 ---------------------------------------------------------------------

 SCF Done:  E(UB3LYP) =  -879.112057947     A.U. after   33 cycles
 SCF Done:  E(UB3LYP) =  -879.112057947     a.u. after    1 cycles

 The electronic state is 2-A.
 Alpha  occ. eigenvalues --  -88.78320 -19.02532 -14.24526 -10.12243 -10.11498
 Alpha  occ. eigenvalues --  -10.10734 -10.10051 -10.08785 -10.08659 -10.08463
 Alpha  occ. eigenvalues --  -10.08120 -10.08060  -7.86756  -5.83220  -5.82762
 Alpha  occ. eigenvalues --   -5.82101  -0.92934  -0.84421  -0.77108  -0.69012
 Alpha  occ. eigenvalues --   -0.65871  -0.65139  -0.61845  -0.56856  -0.52193
 Alpha  occ. eigenvalues --   -0.51281  -0.48146  -0.43104  -0.41764  -0.39224
 Alpha  occ. eigenvalues --   -0.38348  -0.36691  -0.35832  -0.34301  -0.33671
 Alpha  occ. eigenvalues --   -0.33037  -0.31807  -0.30793  -0.28755  -0.28200
 Alpha  occ. eigenvalues --   -0.27377  -0.25681  -0.25245  -0.24847  -0.20410
 Alpha  occ. eigenvalues --   -0.18965  -0.16686  -0.14368  -0.12392   0.04268
 Alpha virt. eigenvalues --    0.05798   0.07070   0.07291   0.07414   0.08085
 Alpha virt. eigenvalues --    0.08194   0.08676   0.09183   0.10330   0.10601
 Alpha virt. eigenvalues --    0.11407   0.11804   0.12062   0.12620   0.13665

  Beta  occ. eigenvalues --  -88.78312 -19.02528 -14.24518 -10.12224 -10.11499
  Beta  occ. eigenvalues --  -10.10711 -10.10004 -10.08770 -10.08645 -10.08447
  Beta  occ. eigenvalues --  -10.08112 -10.08045  -7.86747  -5.83207  -5.82754
  Beta  occ. eigenvalues --   -5.82094  -0.92923  -0.84391  -0.77086  -0.68983
  Beta  occ. eigenvalues --   -0.65842  -0.65096  -0.61794  -0.56804  -0.52152
  Beta  occ. eigenvalues --   -0.51233  -0.48099  -0.43062  -0.41735  -0.39186
  Beta  occ. eigenvalues --   -0.38305  -0.36660  -0.35786  -0.34267  -0.33634
  Beta  occ. eigenvalues --   -0.33002  -0.31763  -0.30743  -0.28735  -0.28168
  Beta  occ. eigenvalues --   -0.27340  -0.25649  -0.25212  -0.24825  -0.20392
  Beta  occ. eigenvalues --   -0.18946  -0.16665  -0.14342  -0.12371
  Beta virt. eigenvalues --    0.06462   0.06972   0.07306   0.07503   0.07808
  Beta virt. eigenvalues --    0.08629   0.08761   0.09284   0.09474   0.10702
  Beta virt. eigenvalues --    0.11116   0.11585   0.12086   0.12509   0.12906

 Mulliken charges and spin densities:
               1          2
     1  C    0.874924  -1.185113
     2  N   -0.207882   0.206941
     3  C   -0.277505   0.054870
     4  C    0.438446  -0.809843
     5  O   -0.253202   0.018880
     6  S    1.545609  -1.742063
     7  C    0.438140   0.054048
     8  C   -1.289050   0.963612
     9  C    0.307012  -0.658589
    10  C    1.504988  -1.832404
    11  C   -0.897471   0.428877
    12  C   -0.279091   0.379481
    13  H   -0.711712   0.873992
    14  H   -0.076112   0.198913
    15  H   -0.158710   0.316689
    16  H    0.252207  -0.057729
    17  H   -0.461195   0.611641
    18  H   -0.156188   0.324234
    19  H   -0.008816   0.165394
    20  H    0.115956   0.094342
    21  H   -0.219044   0.387222
    22  H   -0.495906   0.669789
    23  H   -0.430627   0.585324
    24  H   -0.610133   0.802701
    25  H    0.055364   0.148791
 Sum of Mulliken charges =  -1.00000   1.00000

 Dipole moment (field-independent basis, Debye):
    X=             -0.3683    Y=             -3.0100    Z=             -1.7951  Tot=              3.5240
 Quadrupole moment (field-independent basis, Debye-Ang):
   XX=           -164.8227   YY=           -129.3085   ZZ=           -111.9906
   XY=              7.6597   XZ=             -0.0826   YZ=             -1.5788

 Summary of Natural Population Analysis:

                                       Natural Population
                Natural  -----------------------------------------------
    Atom  No    Charge         Core      Valence    Rydberg      Total
 -----------------------------------------------------------------------
      C    1   -0.17404      0.99962     2.16492    0.00951     3.17404
      N    2   -0.34274      0.99977     2.82710    0.01587     3.84274
      C    3   -0.09818      0.99958     2.08549    0.01310     3.09818
      C    4   -0.02075      0.99960     2.00893    0.01222     3.02075
      O    5   -0.37552      0.99990     3.36847    0.00715     4.37552
      S    6    0.20678      4.99944     2.77053    0.02324     7.79322
      C    7   -0.08676      0.99940     2.07529    0.01207     3.08676
      C    8   -0.11493      0.99950     2.10444    0.01099     3.11493
      C    9   -0.09509      0.99956     2.08493    0.01059     3.09509
      C   10   -0.10869      0.99956     2.09898    0.01015     3.10869
      C   11   -0.09155      0.99956     2.08142    0.01058     3.09155
      C   12   -0.11442      0.99948     2.10419    0.01075     3.11442
      H   13    0.10245      0.00000     0.39464    0.00291     0.39755
      H   14    0.08452      0.00000     0.41398    0.00149     0.41548
      H   15    0.10154      0.00000     0.39733    0.00112     0.39846
      H   16    0.10106      0.00000     0.39768    0.00126     0.39894
      H   17    0.10490      0.00000     0.39265    0.00246     0.39510
      H   18    0.08792      0.00000     0.41072    0.00136     0.41208
      H   19    0.07735      0.00000     0.42130    0.00135     0.42265
      H   20    0.23125      0.00000     0.26504    0.00371     0.26875
      H   21    0.10266      0.00000     0.39609    0.00126     0.39734
      H   22    0.10220      0.00000     0.39649    0.00131     0.39780
      H   23    0.10295      0.00000     0.39535    0.00170     0.39705
      H   24    0.10287      0.00000     0.39583    0.00130     0.39713
      H   25    0.11422      0.00000     0.38374    0.00204     0.38578
 =======================================================================
   * Total *   -0.00000     15.99498    32.83554    0.16947    49.00000

 Normal termination of Gaussian 16 at Wed Dec  9 17:52:17 2020.
