 Gaussian 16, Revision A.03,

 -----------------------------------------------------------
 # opt freq B3LYP/6-31G(d) empiricaldispersion=gd3bj scf=xqc
 -----------------------------------------------------------

 -----------------------------
 CID_88250055_JID_823_neutraal
 -----------------------------
 Symbolic Z-matrix:
 Charge =  0 Multiplicity = 1

 SCF Done:  E(RB3LYP) =  -550.311999518     A.U. after   15 cycles
 SCF Done:  E(RB3LYP) =  -550.315312920     A.U. after   14 cycles
 SCF Done:  E(RB3LYP) =  -550.313631707     A.U. after   14 cycles
 SCF Done:  E(RB3LYP) =  -550.315448428     A.U. after   14 cycles
 SCF Done:  E(RB3LYP) =  -550.316721052     A.U. after   14 cycles
 SCF Done:  E(RB3LYP) =  -550.316911026     A.U. after   13 cycles
 SCF Done:  E(RB3LYP) =  -550.317106705     A.U. after   14 cycles
 SCF Done:  E(RB3LYP) =  -550.317217558     A.U. after   12 cycles
 SCF Done:  E(RB3LYP) =  -550.317282264     A.U. after   13 cycles
 SCF Done:  E(RB3LYP) =  -550.317308398     A.U. after   12 cycles
 SCF Done:  E(RB3LYP) =  -550.317322702     A.U. after   11 cycles
 SCF Done:  E(RB3LYP) =  -550.317328071     A.U. after   11 cycles
 SCF Done:  E(RB3LYP) =  -550.317329591     A.U. after    9 cycles
 SCF Done:  E(RB3LYP) =  -550.317330155     A.U. after   10 cycles
 SCF Done:  E(RB3LYP) =  -550.317330230     A.U. after    8 cycles
 Optimization completed.
    -- Stationary point found.
 Normal termination of Gaussian 16 at Tue Dec  8 13:06:02 2020.

 --------------------------------------------------------------------
 #N Geom=AllCheck Guess=TCheck SCRF=Check GenChk RB3LYP/6-31G(d) Freq
 --------------------------------------------------------------------

 Structure from the checkpoint file:  "JID_823.chk"
 -----------------------------
 CID_88250055_JID_823_neutraal
 -----------------------------
 Charge =  0 Multiplicity = 1

 SCF Done:  E(RB3LYP) =  -550.317330230     A.U. after    1 cycles

  Exact polarizability:  70.779  -4.693  66.938  10.003  -1.831  67.143
 Approx polarizability: 102.639 -13.338  95.648  30.503 -11.881 118.668

                      1                      2                      3
                      A                      A                      A
 Frequencies --     34.8642                52.6300                77.0731
 Red. masses --      9.7771                 4.1675                 7.9301
 Frc consts  --      0.0070                 0.0068                 0.0278
 IR Inten    --      0.4442                 0.0749                 1.5586

                      4                      5                      6
                      A                      A                      A
 Frequencies --    120.8983               175.6689               200.9534
 Red. masses --      6.1405                 6.2780                 4.0308
 Frc consts  --      0.0529                 0.1141                 0.0959
 IR Inten    --      0.3026                 1.1175                 1.0704

                      7                      8                      9
                      A                      A                      A
 Frequencies --    269.8978               303.3566               350.5706
 Red. masses --      4.1728                 1.1943                 4.5880
 Frc consts  --      0.1791                 0.0648                 0.3322
 IR Inten    --     25.1390                65.0722                 0.5622

                     10                     11                     12
                      A                      A                      A
 Frequencies --    408.2728               453.7341               467.4207
 Red. masses --      2.1258                 1.6551                 1.9398
 Frc consts  --      0.2088                 0.2008                 0.2497
 IR Inten    --      2.7349                36.5275                21.1514

                     13                     14                     15
                      A                      A                      A
 Frequencies --    541.1420               548.7882               595.4954
 Red. masses --      7.0059                 3.7792                 4.1356
 Frc consts  --      1.2087                 0.6706                 0.8641
 IR Inten    --     13.6399                21.7167                69.7669

                     16                     17                     18
                      A                      A                      A
 Frequencies --    655.3673               706.1544               741.3125
 Red. masses --      1.8052                 3.2551                 3.1383
 Frc consts  --      0.4568                 0.9563                 1.0161
 IR Inten    --     62.4779                53.0762                56.6953

                     19                     20                     21
                      A                      A                      A
 Frequencies --    831.9527               893.9476               900.4576
 Red. masses --      5.4081                 2.6570                 5.5806
 Frc consts  --      2.2054                 1.2510                 2.6660
 IR Inten    --     30.9955                26.2247                 3.9954

                     22                     23                     24
                      A                      A                      A
 Frequencies --    956.5229               988.9915              1070.7536
 Red. masses --      2.7448                 3.5346                 2.5476
 Frc consts  --      1.4796                 2.0369                 1.7209
 IR Inten    --     35.4391                 5.4762                49.4863

                     25                     26                     27
                      A                      A                      A
 Frequencies --   1127.9844              1162.6443              1193.4995
 Red. masses --      2.4621                 1.4742                 2.8922
 Frc consts  --      1.8457                 1.1741                 2.4273
 IR Inten    --     25.0827                 1.0249               189.9920

                     28                     29                     30
                      A                      A                      A
 Frequencies --   1311.2486              1328.8977              1354.7672
 Red. masses --      1.4489                 1.3510                 1.2539
 Frc consts  --      1.4678                 1.4056                 1.3560
 IR Inten    --      5.3312                18.9710                16.8593

                     31                     32                     33
                      A                      A                      A
 Frequencies --   1368.8552              1396.5940              1405.6112
 Red. masses --      1.2249                 1.2592                 1.7577
 Frc consts  --      1.3522                 1.4471                 2.0460
 IR Inten    --     39.3085                35.5926                 9.1693

                     34                     35                     36
                      A                      A                      A
 Frequencies --   1412.2224              1484.0736              1501.1348
 Red. masses --      2.6029                 1.0889                 1.0811
 Frc consts  --      3.0585                 1.4131                 1.4354
 IR Inten    --     11.8442                 8.9091                 2.4149

                     37                     38                     39
                      A                      A                      A
 Frequencies --   1860.5358              2225.9739              3076.7520
 Red. masses --      9.7827                12.3425                 1.0609
 Frc consts  --     19.9519                36.0325                 5.9171
 IR Inten    --    204.7102               661.4394                33.3750

                     40                     41                     42
                      A                      A                      A
 Frequencies --   3092.4682              3126.4364              3148.8386
 Red. masses --      1.0592                 1.1045                 1.1076
 Frc consts  --      5.9683                 6.3609                 6.4702
 IR Inten    --     14.2323                13.9835                 8.8687

                     43                     44                     45
                      A                      A                      A
 Frequencies --   3235.2939              3673.6478              3727.3506
 Red. masses --      1.0871                 1.0638                 1.0682
 Frc consts  --      6.7043                 8.4591                 8.7440
 IR Inten    --      7.9825                38.0478                37.8522

 - Thermochemistry -
 -------------------
 Temperature   298.150 Kelvin.  Pressure   1.00000 Atm.
 Atom     1 has atomic number  6 and mass  12.00000

 Molecular mass:   145.03751 amu.
 Principal axes and moments of inertia in atomic units:
                           1         2         3
     Eigenvalues --  1057.092851652.232531915.38591
           X            0.99990   0.01414  -0.00271
           Y           -0.01406   0.99951   0.02787
           Z            0.00310  -0.02783   0.99961
 This molecule is an asymmetric top.
 Rotational symmetry number  1.
 Warning -- assumption of classical behavior for rotation
           may cause significant error
 Rotational temperatures (Kelvin)      0.08194     0.05242     0.04522
 Rotational constants (GHZ):           1.70727     1.09230     0.94223
 Zero-point vibrational energy     332328.9 (Joules/Mol)
                                   79.42852 (Kcal/Mol)
 Warning -- explicit consideration of  15 degrees of freedom as
           vibrations may cause significant error
 Vibrational temperatures:     50.16    75.72   110.89   173.95   252.75
          (Kelvin)            289.13   388.32   436.46   504.39   587.41
                              652.82   672.51   778.58   789.58   856.79
                              942.93  1016.00  1066.58  1196.99  1286.19
                             1295.56  1376.22  1422.94  1540.58  1622.92
                             1672.79  1717.18  1886.59  1911.99  1949.21
                             1969.48  2009.39  2022.36  2031.87  2135.25
                             2159.80  2676.90  3202.68  4426.76  4449.37
                             4498.24  4530.48  4654.87  5285.56  5362.83

 Zero-point correction=                           0.126577 (Hartree/Particle)
 Thermal correction to Energy=                    0.137094
 Thermal correction to Enthalpy=                  0.138038
 Thermal correction to Gibbs Free Energy=         0.089389
 Sum of electronic and zero-point Energies=           -550.190753
 Sum of electronic and thermal Energies=              -550.180236
 Sum of electronic and thermal Enthalpies=            -550.179292
 Sum of electronic and thermal Free Energies=         -550.227941

                     E (Thermal)             CV                S
                      KCal/Mol        Cal/Mol-Kelvin    Cal/Mol-Kelvin
 Total                   86.028             36.891            102.390
 Electronic               0.000              0.000              0.000
 Translational            0.889              2.981             40.826
 Rotational               0.889              2.981             29.593
 Vibrational             84.250             30.930             31.971
 Vibration     1          0.594              1.983              5.531
 Vibration     2          0.596              1.977              4.716
 Vibration     3          0.599              1.964              3.964
 Vibration     4          0.609              1.932              3.086
 Vibration     5          0.628              1.872              2.374
 Vibration     6          0.638              1.839              2.124
 Vibration     7          0.674              1.729              1.597
 Vibration     8          0.695              1.667              1.398
 Vibration     9          0.727              1.574              1.164
 Vibration    10          0.773              1.452              0.933
 Vibration    11          0.812              1.353              0.785
 Vibration    12          0.825              1.322              0.745
 Vibration    13          0.896              1.159              0.563
 Vibration    14          0.904              1.142              0.547
 Vibration    15          0.953              1.041              0.457

 Optimization completed.
    -- Stationary point found.
 Normal termination of Gaussian 16 at Tue Dec  8 13:11:35 2020.

 ----------------------------------------------------------------------
 # B3LYP/6-311++G(d,p) empiricaldispersion=gd3bj scf=xqc pop=npa geom=c
 heck
 ----------------------------------------------------------------------

 -------------------------------------
 CID_88250055_JID_823_Energie_neutraal
 -------------------------------------
 Structure from the checkpoint file:  "JID_823.chk"
 Charge =  0 Multiplicity = 1

 SCF Done:  E(RB3LYP) =  -550.502709351     A.U. after   14 cycles
 Normal termination of Gaussian 16 at Tue Dec  8 13:16:58 2020.

 ----------------------------------------------------------------------
 # B3LYP/6-311++G(d,p) empiricaldispersion=gd3bj scf=xqc pop=npa geom=c
 heck
 ----------------------------------------------------------------------

 -----------------------------------
 CID_88250055_JID_823_Energie_kation
 -----------------------------------
 Structure from the checkpoint file:  "JID_823.chk"
 Charge =  1 Multiplicity = 2

 SCF Done:  E(UB3LYP) =  -550.184148983     A.U. after   22 cycles
 Normal termination of Gaussian 16 at Tue Dec  8 13:23:51 2020.
 Gaussian 16:  ES64L-G16RevA.03 25-Dec-2016

 ----------------------------------------------------------------------
 # B3LYP/6-311++G(d,p) empiricaldispersion=gd3bj scf=xqc pop=npa geom=c
 heck
 ----------------------------------------------------------------------

 ----------------------------------
 CID_88250055_JID_823_Energie_anion
 ----------------------------------
 Structure from the checkpoint file:  "JID_823.chk"
 Charge = -1 Multiplicity = 2

                         Standard orientation:
 ---------------------------------------------------------------------
 Center     Atomic      Atomic             Coordinates (Angstroms)
 Number     Number       Type             X           Y           Z
 ---------------------------------------------------------------------
      1          6           0        0.657523    1.100645   -1.151779
      2          6           0        1.113202   -0.344869   -1.087006
      3          6           0        1.970051   -0.777545   -0.181942
      4          8           0        2.752737   -1.181605    0.587836
      5          7           0       -0.187498    1.578463   -0.047972
      6          6           0       -1.507429    0.955872    0.054123
      7          6           0       -1.553415   -0.560582    0.251006
      8          8           0       -1.363422   -1.146299    1.289011
      9          8           0       -1.894873   -1.201343   -0.902854
     10          8           0        0.532271    1.293763    1.166248
     11          1           0        0.091286    1.251529   -2.075609
     12          1           0        1.516284    1.777854   -1.180652
     13          1           0        0.663766   -1.091712   -1.729844
     14          1           0       -2.006077    1.404998    0.916067
     15          1           0       -2.054789    1.221761   -0.854482
     16          1           0       -1.911804   -2.152060   -0.681275
     17          1           0        0.720518    2.181128    1.513247
 ---------------------------------------------------------------------

 SCF Done:  E(UB3LYP) =  -550.495679866     A.U. after   29 cycles

 The electronic state is 2-A.
 Alpha  occ. eigenvalues --  -19.05598 -19.04306 -19.03511 -19.00167 -14.25104
 Alpha  occ. eigenvalues --  -10.19121 -10.14347 -10.09816 -10.09089 -10.04349
 Alpha  occ. eigenvalues --   -0.99540  -0.97588  -0.95425  -0.90736  -0.75493
 Alpha  occ. eigenvalues --   -0.66615  -0.61101  -0.53865  -0.48531  -0.41969
 Alpha  occ. eigenvalues --   -0.40934  -0.37784  -0.37699  -0.36906  -0.35655
 Alpha  occ. eigenvalues --   -0.33762  -0.32041  -0.31361  -0.30929  -0.29312
 Alpha  occ. eigenvalues --   -0.27781  -0.27441  -0.25764  -0.21310  -0.18822
 Alpha  occ. eigenvalues --   -0.17960  -0.12606  -0.10318   0.04703
 Alpha virt. eigenvalues --    0.07614   0.08187   0.09173   0.09533   0.10342
 Alpha virt. eigenvalues --    0.11443   0.11701   0.12662   0.14121   0.15345
 Alpha virt. eigenvalues --    0.16684   0.17151   0.17697   0.18584   0.19309

  Beta  occ. eigenvalues --  -19.05548 -19.04147 -19.03476 -19.00154 -14.25097
  Beta  occ. eigenvalues --  -10.19105 -10.14139 -10.09783 -10.09018 -10.04375
  Beta  occ. eigenvalues --   -0.99479  -0.97281  -0.95365  -0.90684  -0.75425
  Beta  occ. eigenvalues --   -0.66409  -0.60925  -0.53677  -0.48393  -0.41859
  Beta  occ. eigenvalues --   -0.40702  -0.37722  -0.37596  -0.36764  -0.35350
  Beta  occ. eigenvalues --   -0.33639  -0.31862  -0.31142  -0.30725  -0.29245
  Beta  occ. eigenvalues --   -0.27518  -0.27174  -0.25633  -0.21238  -0.18771
  Beta  occ. eigenvalues --   -0.17921  -0.12525  -0.10263
  Beta virt. eigenvalues --    0.07594   0.08739   0.09410   0.09893   0.10684
  Beta virt. eigenvalues --    0.10955   0.11840   0.12261   0.13110   0.14356
  Beta virt. eigenvalues --    0.15497   0.16702   0.17341   0.17997   0.18596

 Mulliken charges and spin densities:
               1          2
     1  C    1.341929  -1.942839
     2  C   -1.364072   1.686546
     3  C    0.984761  -1.007635
     4  O   -0.308594   0.067714
     5  N   -0.292687   0.338764
     6  C    1.553474  -2.047984
     7  C   -0.338961   0.372917
     8  O   -0.281361   0.039399
     9  O   -0.135037   0.026196
    10  O   -0.195832  -0.003755
    11  H   -0.478689   0.641624
    12  H   -0.443947   0.637523
    13  H   -0.394222   0.585447
    14  H   -0.119127   0.312303
    15  H   -0.295105   0.503806
    16  H   -0.215719   0.500186
    17  H   -0.016810   0.289786
 Sum of Mulliken charges =  -1.00000   1.00000

 Dipole moment (field-independent basis, Debye):
    X=             -0.1490    Y=             -0.2880    Z=              1.1314  Tot=              1.1769
 Quadrupole moment (field-independent basis, Debye-Ang):
   XX=            -90.4522   YY=            -87.7281   ZZ=            -90.4732
   XY=             -0.2188   XZ=             -3.6771   YZ=              3.2660

 Summary of Natural Population Analysis:

                                       Natural Population
                Natural  -----------------------------------------------
    Atom  No    Charge         Core      Valence    Rydberg      Total
 -----------------------------------------------------------------------
      C    1   -0.09277      0.99959     2.07813    0.01505     3.09277
      C    2   -0.30294      0.99945     2.29412    0.00936     3.30294
      C    3    0.39438      0.99955     1.58731    0.01876     2.60562
      O    4   -0.22952      0.99987     3.22127    0.00839     4.22952
      N    5   -0.11987      0.99972     2.60236    0.01779     3.61987
      C    6   -0.13727      0.99954     2.12515    0.01258     3.13727
      C    7    0.39833      0.99974     1.57575    0.02619     2.60167
      O    8   -0.29817      0.99986     3.29195    0.00636     4.29817
      O    9   -0.34754      0.99988     3.33984    0.00782     4.34754
      O   10   -0.29539      0.99991     3.28715    0.00834     4.29539
      H   11    0.10797      0.00000     0.38857    0.00345     0.39203
      H   12    0.09962      0.00000     0.39839    0.00199     0.40038
      H   13    0.12965      0.00000     0.36709    0.00326     0.37035
      H   14    0.10980      0.00000     0.38858    0.00162     0.39020
      H   15    0.11005      0.00000     0.38731    0.00264     0.38995
      H   16    0.23940      0.00000     0.25349    0.00711     0.26060
      H   17    0.23426      0.00000     0.26099    0.00475     0.26574
 =======================================================================
   * Total *    0.00000      9.99710    27.84745    0.15545    38.00000

 Normal termination of Gaussian 16 at Tue Dec  8 13:29:25 2020.
