 Gaussian 16, Revision A.03,

 -----------------------------------------------------------
 # opt freq B3LYP/6-31G(d) empiricaldispersion=gd3bj scf=xqc
 -----------------------------------------------------------

 -------------------------------
 CID_116227886_JID_4315_neutraal
 -------------------------------
 Symbolic Z-matrix:
 Charge =  0 Multiplicity = 1

 SCF Done:  E(RB3LYP) =  -594.877091495     A.U. after   14 cycles
 SCF Done:  E(RB3LYP) =  -594.882737884     A.U. after   12 cycles
 SCF Done:  E(RB3LYP) =  -594.884474107     A.U. after   12 cycles
 SCF Done:  E(RB3LYP) =  -594.885009980     A.U. after   12 cycles
 SCF Done:  E(RB3LYP) =  -594.885156786     A.U. after   11 cycles
 SCF Done:  E(RB3LYP) =  -594.885234487     A.U. after   10 cycles
 SCF Done:  E(RB3LYP) =  -594.885287658     A.U. after   10 cycles
 SCF Done:  E(RB3LYP) =  -594.885319216     A.U. after   10 cycles
 SCF Done:  E(RB3LYP) =  -594.885331875     A.U. after    9 cycles
 SCF Done:  E(RB3LYP) =  -594.885337361     A.U. after    8 cycles
 SCF Done:  E(RB3LYP) =  -594.885337988     A.U. after    7 cycles
 SCF Done:  E(RB3LYP) =  -594.885338459     A.U. after    8 cycles
 SCF Done:  E(RB3LYP) =  -594.885338613     A.U. after    7 cycles
 SCF Done:  E(RB3LYP) =  -594.885338645     A.U. after    6 cycles
 Optimization completed.
    -- Stationary point found.
 Normal termination of Gaussian 16 at Thu Dec 10 09:26:56 2020.

 --------------------------------------------------------------------
 #N Geom=AllCheck Guess=TCheck SCRF=Check GenChk RB3LYP/6-31G(d) Freq
 --------------------------------------------------------------------

 Structure from the checkpoint file:  "JID_4315.chk"
 -------------------------------
 CID_116227886_JID_4315_neutraal
 -------------------------------
 Charge =  0 Multiplicity = 1

 SCF Done:  E(RB3LYP) =  -594.885338645     A.U. after    1 cycles

  Exact polarizability: 152.292  -2.710 126.346  -5.505  -4.714 106.516
 Approx polarizability: 210.747  -7.788 195.445 -13.514 -15.852 154.010

                      1                      2                      3
                      A                      A                      A
 Frequencies --     44.2178                69.5959                77.9951
 Red. masses --      3.6096                 2.6333                 2.4280
 Frc consts  --      0.0042                 0.0075                 0.0087
 IR Inten    --      0.0359                 0.0452                 0.0831

                      4                      5                      6
                      A                      A                      A
 Frequencies --     82.7101               137.2047               144.4772
 Red. masses --      4.1253                 3.6344                 3.2795
 Frc consts  --      0.0166                 0.0403                 0.0403
 IR Inten    --      0.2943                 0.4453                 1.2211

                      7                      8                      9
                      A                      A                      A
 Frequencies --    201.5596               206.4357               225.0127
 Red. masses --      2.6517                 2.5363                 1.1403
 Frc consts  --      0.0635                 0.0637                 0.0340
 IR Inten    --      0.4089                 2.3148                 5.0169

                     10                     11                     12
                      A                      A                      A
 Frequencies --    240.6539               244.3168               260.9704
 Red. masses --      1.8458                 1.3265                 1.1043
 Frc consts  --      0.0630                 0.0467                 0.0443
 IR Inten    --      0.4325                 0.5636                47.5985

                     13                     14                     15
                      A                      A                      A
 Frequencies --    264.4946               290.6786               325.1952
 Red. masses --      1.2039                 2.3977                 3.0381
 Frc consts  --      0.0496                 0.1194                 0.1893
 IR Inten    --      0.4933                 1.0553                19.9864

                     16                     17                     18
                      A                      A                      A
 Frequencies --    344.9643               382.4388               411.8522
 Red. masses --      2.7983                 2.3705                 2.6471
 Frc consts  --      0.1962                 0.2043                 0.2646
 IR Inten    --      2.1963                16.2238                 4.8944

                     19                     20                     21
                      A                      A                      A
 Frequencies --    458.8879               473.5149               494.7991
 Red. masses --      2.1136                 2.8374                 2.9898
 Frc consts  --      0.2622                 0.3748                 0.4313
 IR Inten    --     41.6433                 1.7108                 4.5279

                     22                     23                     24
                      A                      A                      A
 Frequencies --    544.9299               644.5453               675.9396
 Red. masses --      3.7746                 2.6037                 3.1144
 Frc consts  --      0.6604                 0.6373                 0.8384
 IR Inten    --      2.6117                 4.7644                 7.2376

                     25                     26                     27
                      A                      A                      A
 Frequencies --    702.2858               741.7721               761.8763
 Red. masses --      3.4290                 3.6761                 3.2316
 Frc consts  --      0.9964                 1.1917                 1.1052
 IR Inten    --     15.1683                56.3279                 5.2513

                     28                     29                     30
                      A                      A                      A
 Frequencies --    789.2756               823.0929               835.9985
 Red. masses --      1.7243                 1.4924                 1.7888
 Frc consts  --      0.6329                 0.5957                 0.7366
 IR Inten    --      8.0244                32.8722               135.4496

                     31                     32                     33
                      A                      A                      A
 Frequencies --    841.2543               900.8968               920.3093
 Red. masses --      1.2018                 2.4385                 2.5042
 Frc consts  --      0.5011                 1.1660                 1.2496
 IR Inten    --      5.0954                 0.3229                 4.0830

                     34                     35                     36
                      A                      A                      A
 Frequencies --    941.3618               950.6850               972.4634
 Red. masses --      1.1901                 3.3325                 1.4983
 Frc consts  --      0.6213                 1.7746                 0.8348
 IR Inten    --      0.9093                 4.6019                 0.3080

                     37                     38                     39
                      A                      A                      A
 Frequencies --   1004.4063              1033.4824              1066.5618
 Red. masses --      2.2681                 1.9314                 1.3665
 Frc consts  --      1.3481                 1.2154                 0.9158
 IR Inten    --     16.3098                10.8120                 6.5507

                     40                     41                     42
                      A                      A                      A
 Frequencies --   1085.3024              1091.0541              1093.3495
 Red. masses --      2.1922                 1.4414                 1.5732
 Frc consts  --      1.5213                 1.0109                 1.1080
 IR Inten    --     18.2241                 7.4818                 8.2913

                     43                     44                     45
                      A                      A                      A
 Frequencies --   1110.0509              1119.1027              1139.8760
 Red. masses --      1.6911                 1.8125                 2.2685
 Frc consts  --      1.2277                 1.3374                 1.7366
 IR Inten    --     17.4818                10.7946                 3.6905

                     46                     47                     48
                      A                      A                      A
 Frequencies --   1150.4475              1166.7525              1198.8990
 Red. masses --      1.1540                 1.7764                 1.9554
 Frc consts  --      0.8999                 1.4248                 1.6559
 IR Inten    --      3.3697                 4.6898                 0.4351

                     49                     50                     51
                      A                      A                      A
 Frequencies --   1215.3741              1216.7842              1250.4090
 Red. masses --      1.7153                 2.0649                 1.8769
 Frc consts  --      1.4928                 1.8013                 1.7290
 IR Inten    --      0.3618                 3.6450                 2.2965

                     52                     53                     54
                      A                      A                      A
 Frequencies --   1272.2745              1320.6293              1340.2360
 Red. masses --      2.9946                 2.2580                 1.3951
 Frc consts  --      2.8560                 2.3202                 1.4764
 IR Inten    --      0.4265                31.5922                 5.2028

                     55                     56                     57
                      A                      A                      A
 Frequencies --   1351.7242              1360.1764              1384.2672
 Red. masses --      1.3750                 1.3130                 1.8163
 Frc consts  --      1.4802                 1.4312                 2.0506
 IR Inten    --      1.2030                 2.6967                 4.1935

                     58                     59                     60
                      A                      A                      A
 Frequencies --   1417.1712              1427.2566              1438.0688
 Red. masses --      1.5740                 1.2294                 1.2586
 Frc consts  --      1.8625                 1.4756                 1.5336
 IR Inten    --      7.6500                 4.7870                 3.5819

                     61                     62                     63
                      A                      A                      A
 Frequencies --   1448.4388              1472.2133              1489.5177
 Red. masses --      1.2258                 2.4827                 1.0920
 Frc consts  --      1.5152                 3.1704                 1.4275
 IR Inten    --      5.2119                 2.5979                 2.6369

                     64                     65                     66
                      A                      A                      A
 Frequencies --   1516.6272              1519.4122              1521.1737
 Red. masses --      1.0483                 1.2744                 1.0912
 Frc consts  --      1.4206                 1.7334                 1.4877
 IR Inten    --      0.2807                 8.0944                 0.3266

                     67                     68                     69
                      A                      A                      A
 Frequencies --   1525.3880              1533.8869              1534.2277
 Red. masses --      1.2724                 1.3585                 1.5003
 Frc consts  --      1.7444                 1.8832                 2.0806
 IR Inten    --     47.1418                 5.3501                17.2424

                     70                     71                     72
                      A                      A                      A
 Frequencies --   1538.5436              1542.4559              1550.7524
 Red. masses --      1.0933                 1.3198                 2.9531
 Frc consts  --      1.5248                 1.8501                 4.1842
 IR Inten    --      5.4443                 3.4461                52.0966

                     73                     74                     75
                      A                      A                      A
 Frequencies --   1634.0436              1682.1011              3033.3622
 Red. masses --      4.3016                 1.2526                 1.0821
 Frc consts  --      6.7671                 2.0882                 5.8661
 IR Inten    --     17.7331                94.6071                 8.8564

                     76                     77                     78
                      A                      A                      A
 Frequencies --   3039.8961              3042.5840              3048.7756
 Red. masses --      1.0498                 1.0660                 1.0397
 Frc consts  --      5.7158                 5.8144                 5.6939
 IR Inten    --     36.1188                20.5666                29.7666

                     79                     80                     81
                      A                      A                      A
 Frequencies --   3051.7001              3100.7462              3111.4255
 Red. masses --      1.0369                 1.1004                 1.1001
 Frc consts  --      5.6895                 6.2337                 6.2746
 IR Inten    --     30.4757                40.6659                30.0777

                     82                     83                     84
                      A                      A                      A
 Frequencies --   3117.1932              3120.3974              3128.3625
 Red. masses --      1.1011                 1.1023                 1.1034
 Frc consts  --      6.3038                 6.3239                 6.3621
 IR Inten    --     34.9819                42.9047                25.0566

                     85                     86                     87
                      A                      A                      A
 Frequencies --   3133.5316              3138.9822              3150.1805
 Red. masses --      1.1017                 1.0857                 1.0525
 Frc consts  --      6.3735                 6.3028                 6.1535
 IR Inten    --     24.8308                32.9877                17.6500

                     88                     89                     90
                      A                      A                      A
 Frequencies --   3155.8134              3226.6963              3241.5831
 Red. masses --      1.0597                 1.1184                 1.1156
 Frc consts  --      6.2179                 6.8607                 6.9065
 IR Inten    --     15.5480                 3.1748                18.6869

                     91                     92                     93
                      A                      A                      A
 Frequencies --   3513.1532              3609.1654              3686.0863
 Red. masses --      1.0482                 1.0954                 1.0806
 Frc consts  --      7.6222                 8.4072                 8.6502
 IR Inten    --      3.4091                 7.7398                63.6053

 - Thermochemistry -
 -------------------
 Temperature   298.150 Kelvin.  Pressure   1.00000 Atm.
 Atom     1 has atomic number  6 and mass  12.00000

 Molecular mass:   193.15790 amu.
 Principal axes and moments of inertia in atomic units:
                           1         2         3
     Eigenvalues --  1929.233313444.745003915.88936
           X            0.99955  -0.02981   0.00146
           Y            0.02975   0.99911   0.02986
           Z           -0.00235  -0.02981   0.99955
 This molecule is an asymmetric top.
 Rotational symmetry number  1.
 Warning -- assumption of classical behavior for rotation
           may cause significant error
 Rotational temperatures (Kelvin)      0.04490     0.02514     0.02212
 Rotational constants (GHZ):           0.93547     0.52391     0.46088
 Zero-point vibrational energy     770638.7 (Joules/Mol)
                                  184.18708 (Kcal/Mol)
 Warning -- explicit consideration of  22 degrees of freedom as
           vibrations may cause significant error
 Vibrational temperatures:     63.62   100.13   112.22   119.00   197.41
          (Kelvin)            207.87   290.00   297.01   323.74   346.25
                              351.52   375.48   380.55   418.22   467.88
                              496.33   550.24   592.56   660.24   681.28
                              711.91   784.03   927.36   972.53  1010.43
                             1067.24  1096.17  1135.59  1184.25  1202.82
                             1210.38  1296.19  1324.12  1354.41  1367.82
                             1399.16  1445.12  1486.95  1534.54  1561.51
                             1569.78  1573.09  1597.12  1610.14  1640.03
                             1655.24  1678.70  1724.95  1748.65  1750.68
                             1799.06  1830.52  1900.09  1928.30  1944.83
                             1956.99  1991.65  2038.99  2053.50  2069.06
                             2083.98  2118.19  2143.08  2182.09  2186.10
                             2188.63  2194.69  2206.92  2207.41  2213.62
                             2219.25  2231.19  2351.02  2420.17  4364.33
                             4373.73  4377.60  4386.51  4390.72  4461.28
                             4476.65  4484.95  4489.56  4501.02  4508.45
                             4516.30  4532.41  4540.51  4642.50  4663.92
                             5054.64  5192.78  5303.46

 Zero-point correction=                           0.293521 (Hartree/Particle)
 Thermal correction to Energy=                    0.308725
 Thermal correction to Enthalpy=                  0.309669
 Thermal correction to Gibbs Free Energy=         0.251914
 Sum of electronic and zero-point Energies=           -594.591818
 Sum of electronic and thermal Energies=              -594.576614
 Sum of electronic and thermal Enthalpies=            -594.575669
 Sum of electronic and thermal Free Energies=         -594.633424

                     E (Thermal)             CV                S
                      KCal/Mol        Cal/Mol-Kelvin    Cal/Mol-Kelvin
 Total                  193.728             57.835            121.555
 Electronic               0.000              0.000              0.000
 Translational            0.889              2.981             41.680
 Rotational               0.889              2.981             31.632
 Vibrational            191.950             51.874             48.243
 Vibration     1          0.595              1.980              5.061
 Vibration     2          0.598              1.969              4.165
 Vibration     3          0.599              1.964              3.941
 Vibration     4          0.600              1.961              3.826
 Vibration     5          0.614              1.916              2.842
 Vibration     6          0.616              1.909              2.744
 Vibration     7          0.638              1.838              2.119
 Vibration     8          0.641              1.831              2.075
 Vibration     9          0.650              1.803              1.918
 Vibration    10          0.658              1.778              1.798
 Vibration    11          0.660              1.772              1.771
 Vibration    12          0.669              1.744              1.655
 Vibration    13          0.671              1.738              1.632
 Vibration    14          0.687              1.691              1.470
 Vibration    15          0.709              1.625              1.284
 Vibration    16          0.723              1.586              1.189
 Vibration    17          0.752              1.508              1.030
 Vibration    18          0.776              1.444              0.920
 Vibration    19          0.817              1.341              0.769
 Vibration    20          0.830              1.309              0.728
 Vibration    21          0.850              1.262              0.671
 Vibration    22          0.900              1.151              0.555

 Optimization completed.
    -- Stationary point found.
 Normal termination of Gaussian 16 at Thu Dec 10 09:38:40 2020.

 ----------------------------------------------------------------------
 # B3LYP/6-311++G(d,p) empiricaldispersion=gd3bj scf=xqc pop=npa geom=c
 heck
 ----------------------------------------------------------------------

 ---------------------------------------
 CID_116227886_JID_4315_Energie_neutraal
 ---------------------------------------
 Structure from the checkpoint file:  "JID_4315.chk"
 Charge =  0 Multiplicity = 1

 SCF Done:  E(RB3LYP) =  -595.054788191     A.U. after   14 cycles
 Normal termination of Gaussian 16 at Thu Dec 10 09:44:04 2020.

 ----------------------------------------------------------------------
 # B3LYP/6-311++G(d,p) empiricaldispersion=gd3bj scf=xqc pop=npa geom=c
 heck
 ----------------------------------------------------------------------

 -------------------------------------
 CID_116227886_JID_4315_Energie_kation
 -------------------------------------
 Structure from the checkpoint file:  "JID_4315.chk"
 Charge =  1 Multiplicity = 2

 SCF Done:  E(UB3LYP) =  -594.771854154     A.U. after   24 cycles
 Normal termination of Gaussian 16 at Thu Dec 10 09:57:06 2020.
 Gaussian 16:  ES64L-G16RevA.03 25-Dec-2016

 ----------------------------------------------------------------------
 # B3LYP/6-311++G(d,p) empiricaldispersion=gd3bj scf=xqc pop=npa geom=c
 heck
 ----------------------------------------------------------------------

 ------------------------------------
 CID_116227886_JID_4315_Energie_anion
 ------------------------------------
 Structure from the checkpoint file:  "JID_4315.chk"
 Charge = -1 Multiplicity = 2

                         Standard orientation:
 ---------------------------------------------------------------------
 Center     Atomic      Atomic             Coordinates (Angstroms)
 Number     Number       Type             X           Y           Z
 ---------------------------------------------------------------------
      1          6           0        2.060711   -1.942613   -0.793823
      2          6           0        1.450005   -1.283410    0.455864
      3          6           0        2.471561   -1.225693    1.607047
      4          6           0        0.874390    0.076158    0.151790
      5          6           0       -0.426027    0.513348    0.375441
      6          7           0       -0.477141    1.797230   -0.076846
      7          7           0        0.715579    2.253356   -0.548335
      8          6           0        1.529931    1.207467   -0.422392
      9          7           0        2.849296    1.278832   -0.894403
     10          6           0       -1.617064   -0.198755    0.952555
     11          6           0       -2.478185    0.732530    1.824429
     12          6           0       -2.492399   -0.888412   -0.098375
     13          6           0       -2.831449   -0.232804   -1.414098
     14          6           0       -1.938887   -1.450988   -1.379962
     15          1           0        2.853454   -1.319152   -1.219043
     16          1           0        1.302318   -2.082775   -1.570948
     17          1           0        2.483445   -2.923793   -0.547375
     18          1           0        0.622962   -1.922549    0.791868
     19          1           0        3.348134   -0.623155    1.337042
     20          1           0        2.028115   -0.779871    2.503550
     21          1           0        2.833178   -2.229223    1.860617
     22          1           0       -1.252161    2.437723   -0.024713
     23          1           0        3.082741    2.236994   -1.139037
     24          1           0        3.524316    0.923186   -0.225424
     25          1           0       -1.217834   -0.987184    1.603741
     26          1           0       -2.959874    1.509561    1.218556
     27          1           0       -3.279380    0.165226    2.309802
     28          1           0       -1.880646    1.219532    2.601768
     29          1           0       -3.298966   -1.462332    0.356376
     30          1           0       -3.843376   -0.335592   -1.795475
     31          1           0       -2.357346    0.715549   -1.650036
     32          1           0       -0.885274   -1.291563   -1.586640
     33          1           0       -2.333467   -2.397481   -1.738397
 ---------------------------------------------------------------------

 SCF Done:  E(UB3LYP) =  -595.040802980     A.U. after   33 cycles
 SCF Done:  E(UB3LYP) =  -595.040802980     a.u. after    1 cycles

 The electronic state is 2-A.
 Alpha  occ. eigenvalues --  -14.27471 -14.21930 -14.21886 -10.12118 -10.10771
 Alpha  occ. eigenvalues --  -10.09284 -10.08443 -10.08110 -10.07131 -10.07055
 Alpha  occ. eigenvalues --  -10.06592 -10.06352 -10.06234 -10.06015  -0.94015
 Alpha  occ. eigenvalues --   -0.81567  -0.76865  -0.72184  -0.70729  -0.66983
 Alpha  occ. eigenvalues --   -0.64357  -0.58768  -0.55302  -0.52363  -0.50351
 Alpha  occ. eigenvalues --   -0.49627  -0.48498  -0.45638  -0.41177  -0.40225
 Alpha  occ. eigenvalues --   -0.39021  -0.37265  -0.36468  -0.35761  -0.34029
 Alpha  occ. eigenvalues --   -0.33369  -0.32896  -0.31026  -0.30340  -0.29001
 Alpha  occ. eigenvalues --   -0.28310  -0.27001  -0.26772  -0.25199  -0.24897
 Alpha  occ. eigenvalues --   -0.24749  -0.23572  -0.22372  -0.19735  -0.19452
 Alpha  occ. eigenvalues --   -0.18655  -0.13550  -0.11696   0.04310
 Alpha virt. eigenvalues --    0.05919   0.06973   0.07360   0.07961   0.08759
 Alpha virt. eigenvalues --    0.09244   0.09722   0.10226   0.10989   0.11249
 Alpha virt. eigenvalues --    0.11496   0.11707   0.12480   0.12843   0.13387

  Beta  occ. eigenvalues --  -14.27456 -14.21908 -14.21880 -10.12115 -10.10770
  Beta  occ. eigenvalues --  -10.09275 -10.08437 -10.08095 -10.07115 -10.07045
  Beta  occ. eigenvalues --  -10.06551 -10.06351 -10.06196 -10.06003  -0.94003
  Beta  occ. eigenvalues --   -0.81536  -0.76838  -0.72168  -0.70700  -0.66949
  Beta  occ. eigenvalues --   -0.64331  -0.58718  -0.55233  -0.52328  -0.50308
  Beta  occ. eigenvalues --   -0.49588  -0.48453  -0.45603  -0.41147  -0.40179
  Beta  occ. eigenvalues --   -0.38996  -0.37229  -0.36438  -0.35728  -0.34006
  Beta  occ. eigenvalues --   -0.33334  -0.32868  -0.30992  -0.30300  -0.28976
  Beta  occ. eigenvalues --   -0.28260  -0.26965  -0.26750  -0.25170  -0.24865
  Beta  occ. eigenvalues --   -0.24721  -0.23540  -0.22350  -0.19711  -0.19429
  Beta  occ. eigenvalues --   -0.18626  -0.13543  -0.11679
  Beta virt. eigenvalues --    0.06426   0.06953   0.07560   0.07982   0.08575
  Beta virt. eigenvalues --    0.09172   0.09798   0.10098   0.10701   0.11236
  Beta virt. eigenvalues --    0.11536   0.11854   0.12180   0.12722   0.13042

 Mulliken charges and spin densities:
               1          2
     1  C   -0.044487  -0.644660
     2  C   -2.588669   2.332320
     3  C    1.007542  -1.667378
     4  C    2.464437  -2.143445
     5  C    1.716826  -1.867141
     6  N   -0.504463   0.346277
     7  N   -0.025532  -0.109669
     8  C   -0.644780   0.632082
     9  N   -0.404736   0.048135
    10  C   -1.528641   2.050940
    11  C    1.311078  -2.017496
    12  C   -0.214198   0.087680
    13  C   -0.041166  -0.459892
    14  C    0.588286  -0.961795
    15  H    0.094549   0.063349
    16  H    0.000377   0.121247
    17  H   -0.094690   0.242348
    18  H   -0.205188   0.381822
    19  H   -0.239925   0.358719
    20  H    0.006938   0.147768
    21  H   -0.416020   0.562582
    22  H    0.124877   0.190291
    23  H    0.106357   0.152550
    24  H    0.131633   0.101341
    25  H   -0.041657   0.231322
    26  H   -0.082771   0.217627
    27  H   -0.714808   0.885896
    28  H   -0.134241   0.289014
    29  H   -0.510296   0.746955
    30  H   -0.267479   0.440079
    31  H   -0.046243   0.186475
    32  H    0.369733  -0.293898
    33  H   -0.172644   0.348554
 Sum of Mulliken charges =  -1.00000   1.00000

 Dipole moment (field-independent basis, Debye):
    X=              2.9963    Y=              2.0650    Z=             -3.0016  Tot=              4.7172
 Quadrupole moment (field-independent basis, Debye-Ang):
   XX=           -161.0075   YY=           -130.5659   ZZ=           -130.5911
   XY=             -1.0935   XZ=              2.5322   YZ=              4.3935

 Summary of Natural Population Analysis:

                                       Natural Population
                Natural  -----------------------------------------------
    Atom  No    Charge         Core      Valence    Rydberg      Total
 -----------------------------------------------------------------------
      C    1   -0.28100      0.99965     2.27589    0.00546     3.28100
      C    2   -0.12134      0.99959     2.11157    0.01018     3.12134
      C    3   -0.27658      0.99965     2.27140    0.00553     3.27658
      C    4   -0.07985      0.99940     2.06830    0.01215     3.07985
      C    5    0.09544      0.99948     1.89063    0.01445     2.90456
      N    6   -0.17628      0.99964     2.66485    0.01179     3.67628
      N    7   -0.18885      0.99969     2.67724    0.01191     3.68885
      C    8    0.16835      0.99952     1.81665    0.01549     2.83165
      N    9   -0.40721      0.99972     2.89781    0.00968     3.90721
      C   10   -0.12805      0.99955     2.11665    0.01185     3.12805
      C   11   -0.27921      0.99965     2.27351    0.00605     3.27921
      C   12   -0.10812      0.99958     2.09546    0.01309     3.10812
      C   13   -0.20180      0.99961     2.19311    0.00908     3.20180
      C   14   -0.19928      0.99961     2.19096    0.00871     3.19928
      H   15    0.10200      0.00000     0.39672    0.00129     0.39800
      H   16    0.09848      0.00000     0.40061    0.00091     0.40152
      H   17    0.09602      0.00000     0.40322    0.00077     0.40398
      H   18    0.09996      0.00000     0.39757    0.00247     0.40004
      H   19    0.09018      0.00000     0.40840    0.00142     0.40982
      H   20    0.10250      0.00000     0.39625    0.00124     0.39750
      H   21    0.09863      0.00000     0.40019    0.00118     0.40137
      H   22    0.19864      0.00000     0.29876    0.00260     0.30136
      H   23    0.18460      0.00000     0.31361    0.00180     0.31540
      H   24    0.18374      0.00000     0.31433    0.00193     0.31626
      H   25    0.10813      0.00000     0.38943    0.00245     0.39187
      H   26    0.09425      0.00000     0.40420    0.00155     0.40575
      H   27    0.10538      0.00000     0.39292    0.00170     0.39462
      H   28    0.10214      0.00000     0.39670    0.00116     0.39786
      H   29    0.10717      0.00000     0.39044    0.00239     0.39283
      H   30    0.10288      0.00000     0.39606    0.00107     0.39712
      H   31    0.10200      0.00000     0.39666    0.00135     0.39800
      H   32    0.10571      0.00000     0.39297    0.00131     0.39429
      H   33    0.10139      0.00000     0.39776    0.00086     0.39861
 =======================================================================
   * Total *   -0.00000     13.99433    38.83082    0.17485    53.00000

 Normal termination of Gaussian 16 at Thu Dec 10 10:15:38 2020.
