 Gaussian 16, Revision A.03,

 -----------------------------------------------------------
 # opt freq B3LYP/6-31G(d) empiricaldispersion=gd3bj scf=xqc
 -----------------------------------------------------------

 ------------------------------
 CID_70357425_JID_6856_neutraal
 ------------------------------
 Symbolic Z-matrix:
 Charge =  0 Multiplicity = 1

 SCF Done:  E(RB3LYP) =  -730.760147752     A.U. after   15 cycles
 SCF Done:  E(RB3LYP) =  -730.762773075     A.U. after   13 cycles
 SCF Done:  E(RB3LYP) =  -730.762546265     A.U. after   13 cycles
 SCF Done:  E(RB3LYP) =  -730.763231673     A.U. after   13 cycles
 SCF Done:  E(RB3LYP) =  -730.763404448     A.U. after   12 cycles
 SCF Done:  E(RB3LYP) =  -730.763440730     A.U. after   13 cycles
 SCF Done:  E(RB3LYP) =  -730.763536859     A.U. after   11 cycles
 SCF Done:  E(RB3LYP) =  -730.763541283     A.U. after   11 cycles
 SCF Done:  E(RB3LYP) =  -730.763551163     A.U. after   10 cycles
 SCF Done:  E(RB3LYP) =  -730.763551757     A.U. after    8 cycles
 SCF Done:  E(RB3LYP) =  -730.763551921     A.U. after    8 cycles
 Optimization completed.
    -- Stationary point found.
 Normal termination of Gaussian 16 at Fri Dec 11 00:01:59 2020.

 --------------------------------------------------------------------
 #N Geom=AllCheck Guess=TCheck SCRF=Check GenChk RB3LYP/6-31G(d) Freq
 --------------------------------------------------------------------

 Structure from the checkpoint file:  "JID_6856.chk"
 ------------------------------
 CID_70357425_JID_6856_neutraal
 ------------------------------
 Charge =  0 Multiplicity = 1

 SCF Done:  E(RB3LYP) =  -730.763551921     A.U. after    1 cycles

  Exact polarizability: 167.196  13.474 143.539   5.834 -10.552 105.245
 Approx polarizability: 240.229  26.855 223.553   7.597 -34.335 170.586

                      1                      2                      3
                      A                      A                      A
 Frequencies --     23.6552                30.6103                45.2808
 Red. masses --      5.4378                 6.0085                 3.4482
 Frc consts  --      0.0018                 0.0033                 0.0042
 IR Inten    --      0.1618                 2.2178                 0.5837

                      4                      5                      6
                      A                      A                      A
 Frequencies --     66.1691                79.0466               128.2316
 Red. masses --      8.8470                 6.3024                 3.3965
 Frc consts  --      0.0228                 0.0232                 0.0329
 IR Inten    --      0.8652                 2.2846                 0.5652

                      7                      8                      9
                      A                      A                      A
 Frequencies --    160.0236               213.8958               236.2930
 Red. masses --      5.1207                 4.2230                 1.0678
 Frc consts  --      0.0773                 0.1138                 0.0351
 IR Inten    --      0.5649                 0.6676                 0.0343

                     10                     11                     12
                      A                      A                      A
 Frequencies --    251.8896               276.5836               304.4904
 Red. masses --      3.4164                 1.1537                 2.9052
 Frc consts  --      0.1277                 0.0520                 0.1587
 IR Inten    --      3.5614                 0.9421                 1.5250

                     13                     14                     15
                      A                      A                      A
 Frequencies --    325.0255               328.9828               337.0189
 Red. masses --      2.3918                 2.3332                 1.2595
 Frc consts  --      0.1489                 0.1488                 0.0843
 IR Inten    --      0.4260                 0.1212                 0.2185

                     16                     17                     18
                      A                      A                      A
 Frequencies --    366.3402               392.4128               397.9398
 Red. masses --      3.5329                 2.5709                 3.6180
 Frc consts  --      0.2794                 0.2333                 0.3376
 IR Inten    --      0.1952                 0.0507                 0.1330

                     19                     20                     21
                      A                      A                      A
 Frequencies --    412.6957               463.8148               478.8505
 Red. masses --      2.6290                 3.2286                 3.0297
 Frc consts  --      0.2638                 0.4092                 0.4093
 IR Inten    --      1.0491                 0.8560                 1.1115

                     22                     23                     24
                      A                      A                      A
 Frequencies --    524.1494               538.2169               548.0555
 Red. masses --      5.4621                 3.3304                 3.5090
 Frc consts  --      0.8841                 0.5684                 0.6210
 IR Inten    --      1.7366                 7.2843                21.1349

                     25                     26                     27
                      A                      A                      A
 Frequencies --    596.7357               626.3197               679.8668
 Red. masses --      3.8133                 3.5790                 1.7161
 Frc consts  --      0.8000                 0.8272                 0.4673
 IR Inten    --     62.4873                20.2354               117.0718

                     28                     29                     30
                      A                      A                      A
 Frequencies --    706.3190               724.0377               745.1670
 Red. masses --      4.5619                 2.0135                 3.7663
 Frc consts  --      1.3409                 0.6219                 1.2322
 IR Inten    --     12.8748                20.6715                11.4799

                     31                     32                     33
                      A                      A                      A
 Frequencies --    799.2117               816.5039               851.3197
 Red. masses --      2.2748                 2.4901                 3.2720
 Frc consts  --      0.8561                 0.9781                 1.3972
 IR Inten    --     15.7625                 3.8247                 3.0948

                     34                     35                     36
                      A                      A                      A
 Frequencies --    913.3461               921.1470               934.7324
 Red. masses --      2.1009                 1.5455                 1.7879
 Frc consts  --      1.0326                 0.7727                 0.9204
 IR Inten    --      4.8900                 3.2899                 0.9317

                     37                     38                     39
                      A                      A                      A
 Frequencies --    943.7164               954.3612               965.4833
 Red. masses --      1.6476                 1.7323                 2.1932
 Frc consts  --      0.8645                 0.9296                 1.2045
 IR Inten    --      2.2847                 1.2693                15.7231

                     40                     41                     42
                      A                      A                      A
 Frequencies --    977.2729               978.9631              1023.9193
 Red. masses --      1.2001                 1.2925                 6.0869
 Frc consts  --      0.6753                 0.7298                 3.7599
 IR Inten    --      0.3160                 0.2251                 0.4566

                     43                     44                     45
                      A                      A                      A
 Frequencies --   1057.6063              1065.6115              1086.6597
 Red. masses --      1.4403                 1.3902                 2.5048
 Frc consts  --      0.9492                 0.9301                 1.7426
 IR Inten    --      2.0117                 0.0065                99.0999

                     46                     47                     48
                      A                      A                      A
 Frequencies --   1130.7552              1156.3672              1196.7672
 Red. masses --      1.8835                 1.6488                 1.6879
 Frc consts  --      1.4189                 1.2990                 1.4243
 IR Inten    --     15.4149                14.8256               165.6558

                     49                     50                     51
                      A                      A                      A
 Frequencies --   1218.0668              1224.1535              1243.4400
 Red. masses --      1.1619                 2.3846                 2.6881
 Frc consts  --      1.0157                 2.1054                 2.4488
 IR Inten    --      4.8038                 8.0354                 3.4958

                     52                     53                     54
                      A                      A                      A
 Frequencies --   1249.7419              1255.6342              1307.5604
 Red. masses --      2.4800                 1.7031                 1.6576
 Frc consts  --      2.2821                 1.5820                 1.6697
 IR Inten    --      0.1415                13.0154                 9.1585

                     55                     56                     57
                      A                      A                      A
 Frequencies --   1314.7901              1352.9222              1371.7618
 Red. masses --      2.5734                 2.2890                 1.9504
 Frc consts  --      2.6210                 2.4686                 2.1624
 IR Inten    --     24.1735                 0.8342                 0.9004

                     58                     59                     60
                      A                      A                      A
 Frequencies --   1409.4472              1427.7384              1428.7668
 Red. masses --      3.1230                 1.2265                 1.2240
 Frc consts  --      3.6552                 1.4731                 1.4721
 IR Inten    --     17.0436                 4.8487                 4.6165

                     61                     62                     63
                      A                      A                      A
 Frequencies --   1460.1868              1482.0794              1495.4968
 Red. masses --      1.2173                 2.6849                 1.1145
 Frc consts  --      1.5292                 3.4747                 1.4686
 IR Inten    --      2.3649                12.0276                 8.9480

                     64                     65                     66
                      A                      A                      A
 Frequencies --   1513.1785              1517.9237              1521.7338
 Red. masses --      1.0494                 1.0463                 1.0690
 Frc consts  --      1.4156                 1.4204                 1.4585
 IR Inten    --      0.0315                 0.2238                 1.5892

                     67                     68                     69
                      A                      A                      A
 Frequencies --   1534.2484              1538.7409              1544.0508
 Red. masses --      1.1436                 1.0548                 1.7840
 Frc consts  --      1.5860                 1.4715                 2.5059
 IR Inten    --      5.2571                 4.9964                 8.3314

                     70                     71                     72
                      A                      A                      A
 Frequencies --   1552.3640              1645.2775              1664.9448
 Red. masses --      1.1173                 5.3788                 5.5434
 Frc consts  --      1.5863                 8.5785                 9.0538
 IR Inten    --     15.3611                 6.0398                21.4381

                     73                     74                     75
                      A                      A                      A
 Frequencies --   1822.2554              1827.6718              3044.4060
 Red. masses --     10.9050                11.9076                 1.0351
 Frc consts  --     21.3351                23.4353                 5.6524
 IR Inten    --    250.7196               128.4989                24.2855

                     76                     77                     78
                      A                      A                      A
 Frequencies --   3045.7685              3053.0102              3091.5222
 Red. masses --      1.0350                 1.0363                 1.0574
 Frc consts  --      5.6571                 5.6911                 5.9545
 IR Inten    --     24.6901                25.1878                 8.2653

                     79                     80                     81
                      A                      A                      A
 Frequencies --   3110.3777              3112.1192              3117.6275
 Red. masses --      1.1025                 1.1024                 1.1026
 Frc consts  --      6.2845                 6.2910                 6.3143
 IR Inten    --      7.3868                 3.3957                31.0020

                     82                     83                     84
                      A                      A                      A
 Frequencies --   3119.7516              3125.5403              3128.5212
 Red. masses --      1.1016                 1.1021                 1.1012
 Frc consts  --      6.3172                 6.3433                 6.3504
 IR Inten    --     83.4985                13.6924                45.4420

                     85                     86                     87
                      A                      A                      A
 Frequencies --   3148.6939              3185.3064              3201.4657
 Red. masses --      1.1075                 1.0866                 1.0937
 Frc consts  --      6.4692                 6.4957                 6.6047
 IR Inten    --      3.7270                 5.2737                19.5234

                     88                     89                     90
                      A                      A                      A
 Frequencies --   3215.0529              3226.1740              3680.6636
 Red. masses --      1.0892                 1.0916                 1.0641
 Frc consts  --      6.6336                 6.6940                 8.4937
 IR Inten    --      3.3904                14.2143                54.8421

 - Thermochemistry -
 -------------------
 Temperature   298.150 Kelvin.  Pressure   1.00000 Atm.
 Atom     1 has atomic number  6 and mass  12.00000

 Molecular mass:   220.10994 amu.
 Principal axes and moments of inertia in atomic units:
                           1         2         3
     Eigenvalues --  2150.307915289.032356404.65029
           X            0.99976   0.02120   0.00576
           Y           -0.02119   0.99977  -0.00225
           Z           -0.00581   0.00213   0.99998
 This molecule is an asymmetric top.
 Rotational symmetry number  1.
 Warning -- assumption of classical behavior for rotation
           may cause significant error
 Rotational temperatures (Kelvin)      0.04028     0.01638     0.01352
 Rotational constants (GHZ):           0.83929     0.34122     0.28179
 Zero-point vibrational energy     701681.8 (Joules/Mol)
                                  167.70598 (Kcal/Mol)
 Warning -- explicit consideration of  25 degrees of freedom as
           vibrations may cause significant error
 Vibrational temperatures:     34.03    44.04    65.15    95.20   113.73
          (Kelvin)            184.50   230.24   307.75   339.97   362.41
                              397.94   438.09   467.64   473.33   484.90
                              527.08   564.59   572.55   593.78   667.33
                              688.96   754.13   774.37   788.53   858.57
                              901.13   978.18  1016.24  1041.73  1072.13
                             1149.89  1174.77  1224.86  1314.10  1325.33
                             1344.87  1357.80  1373.11  1389.12  1406.08
                             1408.51  1473.19  1521.66  1533.18  1563.46
                             1626.90  1663.75  1721.88  1752.53  1761.28
                             1789.03  1798.10  1806.58  1881.29  1891.69
                             1946.55  1973.66  2027.88  2054.20  2055.68
                             2100.88  2132.38  2151.69  2177.13  2183.95
                             2189.44  2207.44  2213.90  2221.54  2233.51
                             2367.19  2395.48  2621.82  2629.61  4380.22
                             4382.18  4392.60  4448.01  4475.14  4477.65
                             4485.57  4488.63  4496.96  4501.24  4530.27
                             4582.95  4606.20  4625.74  4641.74  5295.65

 Zero-point correction=                           0.267256 (Hartree/Particle)
 Thermal correction to Energy=                    0.283165
 Thermal correction to Enthalpy=                  0.284110
 Thermal correction to Gibbs Free Energy=         0.222635
 Sum of electronic and zero-point Energies=           -730.496295
 Sum of electronic and thermal Energies=              -730.480387
 Sum of electronic and thermal Enthalpies=            -730.479442
 Sum of electronic and thermal Free Energies=         -730.540917

                     E (Thermal)             CV                S
                      KCal/Mol        Cal/Mol-Kelvin    Cal/Mol-Kelvin
 Total                  177.689             60.448            129.383
 Electronic               0.000              0.000              0.000
 Translational            0.889              2.981             42.070
 Rotational               0.889              2.981             32.654
 Vibrational            175.911             54.487             54.659
 Vibration     1          0.593              1.985              6.301
 Vibration     2          0.594              1.984              5.789
 Vibration     3          0.595              1.979              5.014
 Vibration     4          0.598              1.970              4.264
 Vibration     5          0.600              1.963              3.914
 Vibration     6          0.611              1.925              2.972
 Vibration     7          0.622              1.891              2.550
 Vibration     8          0.644              1.820              2.010
 Vibration     9          0.655              1.785              1.831
 Vibration    10          0.664              1.760              1.717
 Vibration    11          0.678              1.717              1.555
 Vibration    12          0.695              1.665              1.392
 Vibration    13          0.709              1.625              1.285
 Vibration    14          0.712              1.618              1.265
 Vibration    15          0.718              1.602              1.226
 Vibration    16          0.739              1.541              1.095
 Vibration    17          0.760              1.486              0.991
 Vibration    18          0.764              1.475              0.970
 Vibration    19          0.776              1.443              0.917
 Vibration    20          0.821              1.330              0.755
 Vibration    21          0.835              1.297              0.713
 Vibration    22          0.879              1.197              0.600
 Vibration    23          0.893              1.166              0.569
 Vibration    24          0.903              1.144              0.548
 Vibration    25          0.955              1.039              0.455

                           ! Non-Optimized Parameters !
 Normal termination of Gaussian 16 at Fri Dec 11 00:12:27 2020.

 ----------------------------------------------------------------------
 # B3LYP/6-311++G(d,p) empiricaldispersion=gd3bj scf=xqc pop=npa geom=c
 heck
 ----------------------------------------------------------------------

 --------------------------------------
 CID_70357425_JID_6856_Energie_neutraal
 --------------------------------------
 Structure from the checkpoint file:  "JID_6856.chk"
 Charge =  0 Multiplicity = 1

 SCF Done:  E(RB3LYP) =  -730.975323617     A.U. after   15 cycles
 Normal termination of Gaussian 16 at Fri Dec 11 00:17:27 2020.

 ----------------------------------------------------------------------
 # B3LYP/6-311++G(d,p) empiricaldispersion=gd3bj scf=xqc pop=npa geom=c
 heck
 ----------------------------------------------------------------------

 ------------------------------------
 CID_70357425_JID_6856_Energie_kation
 ------------------------------------
 Structure from the checkpoint file:  "JID_6856.chk"
 Charge =  1 Multiplicity = 2

 SCF Done:  E(UB3LYP) =  -730.661223721     A.U. after   27 cycles
 Normal termination of Gaussian 16 at Fri Dec 11 00:30:03 2020.
 Gaussian 16:  ES64L-G16RevA.03 25-Dec-2016

 ----------------------------------------------------------------------
 # B3LYP/6-311++G(d,p) empiricaldispersion=gd3bj scf=xqc pop=npa geom=c
 heck
 ----------------------------------------------------------------------

 -----------------------------------
 CID_70357425_JID_6856_Energie_anion
 -----------------------------------
 Structure from the checkpoint file:  "JID_6856.chk"
 Charge = -1 Multiplicity = 2

                         Standard orientation:
 ---------------------------------------------------------------------
 Center     Atomic      Atomic             Coordinates (Angstroms)
 Number     Number       Type             X           Y           Z
 ---------------------------------------------------------------------
      1          6           0       -3.975727   -0.201287   -0.740886
      2          6           0       -2.706540   -0.642389    0.005615
      3          6           0       -3.089694   -0.958397    1.467468
      4          6           0       -2.162245   -1.920257   -0.671207
      5          6           0       -1.613708    0.434293   -0.016150
      6          6           0       -1.757576    1.658282   -0.678958
      7          6           0       -0.719552    2.593721   -0.694887
      8          6           0        0.483957    2.324443   -0.051765
      9          6           0        0.645489    1.113219    0.631807
     10          6           0       -0.397702    0.186945    0.637468
     11          6           0        1.974938    0.782852    1.290867
     12          6           0        2.894172    0.198092    0.236055
     13          8           0        3.796786    0.796992   -0.302062
     14          6           0        2.580711   -1.263710   -0.155209
     15          8           0        1.916390   -2.012322    0.529655
     16          8           0        3.151643   -1.609822   -1.317444
     17          1           0       -4.724684   -0.999408   -0.697825
     18          1           0       -3.773678    0.006738   -1.797348
     19          1           0       -4.418783    0.695034   -0.292706
     20          1           0       -3.869059   -1.728939    1.497668
     21          1           0       -2.233542   -1.326747    2.041011
     22          1           0       -3.472644   -0.064151    1.971507
     23          1           0       -1.905232   -1.723047   -1.718067
     24          1           0       -1.263069   -2.293181   -0.170712
     25          1           0       -2.917618   -2.714802   -0.648373
     26          1           0       -2.680873    1.895202   -1.194711
     27          1           0       -0.854214    3.536059   -1.218686
     28          1           0        1.297234    3.044731   -0.076150
     29          1           0       -0.243545   -0.754911    1.152615
     30          1           0        2.454964    1.681182    1.686160
     31          1           0        1.831203    0.057046    2.095628
     32          1           0        2.915860   -2.544427   -1.472512
 ---------------------------------------------------------------------

 SCF Done:  E(UB3LYP) =  -731.000223142     A.U. after   29 cycles

 The electronic state is 2-A.
 Alpha  occ. eigenvalues --  -19.00819 -18.93734 -18.91302 -10.11135 -10.09047
 Alpha  occ. eigenvalues --  -10.06915 -10.06497 -10.06076 -10.05798 -10.05432
 Alpha  occ. eigenvalues --  -10.05382 -10.05033 -10.04887 -10.04410 -10.03870
 Alpha  occ. eigenvalues --  -10.02563  -0.94654  -0.85717  -0.85348  -0.74734
 Alpha  occ. eigenvalues --   -0.71126  -0.64632  -0.61933  -0.59620  -0.58865
 Alpha  occ. eigenvalues --   -0.56742  -0.50455  -0.49980  -0.47125  -0.43128
 Alpha  occ. eigenvalues --   -0.40089  -0.38797  -0.35585  -0.34993  -0.34666
 Alpha  occ. eigenvalues --   -0.33130  -0.32397  -0.31479  -0.31050  -0.30283
 Alpha  occ. eigenvalues --   -0.29860  -0.28672  -0.27585  -0.27212  -0.26308
 Alpha  occ. eigenvalues --   -0.26008  -0.25607  -0.24477  -0.24210  -0.22619
 Alpha  occ. eigenvalues --   -0.22372  -0.21694  -0.20641  -0.19117  -0.17051
 Alpha  occ. eigenvalues --   -0.14133  -0.12753  -0.12422  -0.06582   0.04311
 Alpha virt. eigenvalues --    0.06752   0.08485   0.09201   0.09541   0.10210
 Alpha virt. eigenvalues --    0.10583   0.10843   0.11132   0.11260   0.11899
 Alpha virt. eigenvalues --    0.12346   0.13281   0.13392   0.14375   0.15003

  Beta  occ. eigenvalues --  -19.00734 -18.93370 -18.90566 -10.10872 -10.09047
  Beta  occ. eigenvalues --  -10.06914 -10.06495 -10.06089 -10.05796 -10.05389
  Beta  occ. eigenvalues --  -10.05057 -10.04961 -10.04821 -10.04386 -10.03833
  Beta  occ. eigenvalues --  -10.02606  -0.94295  -0.84810  -0.84409  -0.74688
  Beta  occ. eigenvalues --   -0.71080  -0.64448  -0.61876  -0.59593  -0.58859
  Beta  occ. eigenvalues --   -0.56391  -0.49952  -0.49638  -0.47027  -0.43007
  Beta  occ. eigenvalues --   -0.39801  -0.38412  -0.35539  -0.34954  -0.34662
  Beta  occ. eigenvalues --   -0.32991  -0.32090  -0.31353  -0.30474  -0.29874
  Beta  occ. eigenvalues --   -0.29681  -0.28161  -0.27289  -0.26982  -0.26017
  Beta  occ. eigenvalues --   -0.25769  -0.25389  -0.24392  -0.23985  -0.22442
  Beta  occ. eigenvalues --   -0.21977  -0.21236  -0.20531  -0.16412  -0.15354
  Beta  occ. eigenvalues --   -0.13711  -0.12516  -0.12054  -0.05921
  Beta virt. eigenvalues --    0.06717   0.08441   0.09085   0.09508   0.10173
  Beta virt. eigenvalues --    0.10357   0.10657   0.11053   0.11255   0.11881
  Beta virt. eigenvalues --    0.12140   0.13130   0.13301   0.13993   0.14329

 Mulliken charges and spin densities:
               1          2
     1  C   -0.399872  -0.010492
     2  C    0.441526  -0.040830
     3  C   -0.701806   0.005931
     4  C   -0.662255  -0.002475
     5  C    0.592695  -0.104437
     6  C   -0.551822   0.066074
     7  C   -0.608922   0.053743
     8  C   -0.050632   0.052206
     9  C    0.872551   0.116471
    10  C   -0.831288   0.013205
    11  C    0.066592  -0.196423
    12  C   -0.098177   0.342527
    13  O   -0.393689   0.257229
    14  C   -0.335666   0.147761
    15  O   -0.399857   0.125052
    16  O   -0.143064   0.014449
    17  H    0.145701   0.000085
    18  H    0.125388   0.004782
    19  H    0.126429  -0.001422
    20  H    0.113612   0.007073
    21  H    0.136124   0.005949
    22  H    0.138841   0.000271
    23  H    0.141643   0.000478
    24  H    0.156090   0.003612
    25  H    0.116227   0.000555
    26  H    0.098400  -0.004137
    27  H    0.130960   0.013750
    28  H    0.148231  -0.009890
    29  H    0.179053   0.040454
    30  H    0.106052   0.060386
    31  H    0.109923   0.040680
    32  H    0.231013  -0.002619
 Sum of Mulliken charges =  -1.00000   1.00000

 Dipole moment (field-independent basis, Debye):
    X=             -9.7753    Y=             -0.5917    Z=             -0.1023  Tot=              9.7937
 Quadrupole moment (field-independent basis, Debye-Ang):
   XX=           -149.0963   YY=           -110.8580   ZZ=           -106.6716
   XY=             -1.6845   XZ=              4.3245   YZ=              3.2054

 Summary of Natural Population Analysis:

                                       Natural Population
                Natural  -----------------------------------------------
    Atom  No    Charge         Core      Valence    Rydberg      Total
 -----------------------------------------------------------------------
      C    1   -0.28492      0.99964     2.27974    0.00553     3.28492
      C    2   -0.04968      0.99956     2.04168    0.00844     3.04968
      C    3   -0.27937      0.99964     2.27432    0.00541     3.27937
      C    4   -0.28140      0.99964     2.27620    0.00557     3.28140
      C    5   -0.01817      0.99948     2.00616    0.01253     3.01817
      C    6   -0.10807      0.99952     2.10113    0.00743     3.10807
      C    7   -0.10423      0.99958     2.09604    0.00861     3.10423
      C    8   -0.09712      0.99951     2.08905    0.00856     3.09712
      C    9    0.00808      0.99950     1.98072    0.01170     2.99192
      C   10   -0.09454      0.99946     2.08553    0.00956     3.09454
      C   11   -0.24159      0.99958     2.23106    0.01096     3.24159
      C   12    0.28171      0.99965     1.69497    0.02368     2.71829
      O   13   -0.20898      0.99987     3.20214    0.00697     4.20898
      C   14    0.40066      0.99971     1.57280    0.02683     2.59934
      O   15   -0.30344      0.99987     3.29625    0.00732     4.30344
      O   16   -0.33690      0.99987     3.32907    0.00796     4.33690
      H   17    0.09540      0.00000     0.40383    0.00077     0.40460
      H   18    0.10018      0.00000     0.39899    0.00083     0.39982
      H   19    0.09866      0.00000     0.40052    0.00082     0.40134
      H   20    0.09148      0.00000     0.40767    0.00085     0.40852
      H   21    0.10411      0.00000     0.39520    0.00069     0.39589
      H   22    0.09859      0.00000     0.40070    0.00070     0.40141
      H   23    0.10038      0.00000     0.39892    0.00070     0.39962
      H   24    0.11146      0.00000     0.38776    0.00079     0.38854
      H   25    0.08976      0.00000     0.40939    0.00085     0.41024
      H   26    0.09349      0.00000     0.40526    0.00124     0.40651
      H   27    0.09173      0.00000     0.40684    0.00143     0.40827
      H   28    0.10078      0.00000     0.39784    0.00139     0.39922
      H   29    0.10784      0.00000     0.39012    0.00205     0.39216
      H   30    0.10164      0.00000     0.39595    0.00241     0.39836
      H   31    0.11152      0.00000     0.38689    0.00159     0.38848
      H   32    0.22097      0.00000     0.27278    0.00625     0.27903
 =======================================================================
   * Total *   -0.00000     15.99407    42.81551    0.19042    59.00000

 Normal termination of Gaussian 16 at Fri Dec 11 00:43:20 2020.
