 Gaussian 16, Revision A.03,

 -----------------------------------------------------------
 # opt freq B3LYP/6-31G(d) empiricaldispersion=gd3bj scf=xqc
 -----------------------------------------------------------

 ------------------------------
 CID_116944138_JID_847_neutraal
 ------------------------------
 Symbolic Z-matrix:
 Charge =  0 Multiplicity = 1

 SCF Done:  E(RB3LYP) =  -445.054344284     A.U. after   13 cycles
 SCF Done:  E(RB3LYP) =  -445.060455187     A.U. after   11 cycles
 SCF Done:  E(RB3LYP) =  -445.060630929     A.U. after   10 cycles
 SCF Done:  E(RB3LYP) =  -445.060616609     A.U. after   10 cycles
 SCF Done:  E(RB3LYP) =  -445.060856103     A.U. after   11 cycles
 SCF Done:  E(RB3LYP) =  -445.060930353     A.U. after    9 cycles
 SCF Done:  E(RB3LYP) =  -445.060964203     A.U. after   10 cycles
 SCF Done:  E(RB3LYP) =  -445.060981917     A.U. after    9 cycles
 SCF Done:  E(RB3LYP) =  -445.060985318     A.U. after    7 cycles
 SCF Done:  E(RB3LYP) =  -445.060987442     A.U. after    7 cycles
 SCF Done:  E(RB3LYP) =  -445.060987701     A.U. after    7 cycles
 Optimization completed.
    -- Stationary point found.
 Normal termination of Gaussian 16 at Tue Dec  8 12:41:44 2020.

 --------------------------------------------------------------------
 #N Geom=AllCheck Guess=TCheck SCRF=Check GenChk RB3LYP/6-31G(d) Freq
 --------------------------------------------------------------------

 Structure from the checkpoint file:  "JID_847.chk"
 ------------------------------
 CID_116944138_JID_847_neutraal
 ------------------------------
 Charge =  0 Multiplicity = 1

 SCF Done:  E(RB3LYP) =  -445.060987701     A.U. after    1 cycles

  Exact polarizability:  98.176  -1.677  89.335   0.850   3.576  85.530
 Approx polarizability: 126.432  -1.613 128.484   2.978   2.185 126.415

                      1                      2                      3
                      A                      A                      A
 Frequencies --     72.1035               115.6030               146.0786
 Red. masses --      3.5862                 2.5238                 2.2372
 Frc consts  --      0.0110                 0.0199                 0.0281
 IR Inten    --      2.3736                 0.5134                 0.4085

                      4                      5                      6
                      A                      A                      A
 Frequencies --    158.9743               206.2669               222.0118
 Red. masses --      2.2646                 2.0512                 2.6830
 Frc consts  --      0.0337                 0.0514                 0.0779
 IR Inten    --      1.7740                 0.6209                 1.1408

                      7                      8                      9
                      A                      A                      A
 Frequencies --    241.6035               258.1505               278.5784
 Red. masses --      1.7900                 1.5790                 1.4626
 Frc consts  --      0.0616                 0.0620                 0.0669
 IR Inten    --      5.0919                16.0678                49.3126

                     10                     11                     12
                      A                      A                      A
 Frequencies --    305.5172               335.6219               353.7469
 Red. masses --      1.1959                 1.7238                 2.3811
 Frc consts  --      0.0658                 0.1144                 0.1756
 IR Inten    --     37.7984                73.0423                 6.6917

                     13                     14                     15
                      A                      A                      A
 Frequencies --    385.7488               422.2621               489.7432
 Red. masses --      2.9745                 2.4373                 3.6880
 Frc consts  --      0.2608                 0.2561                 0.5212
 IR Inten    --     22.7084                 1.7188                 5.1997

                     16                     17                     18
                      A                      A                      A
 Frequencies --    541.0091               666.3289               714.2397
 Red. masses --      3.1992                 1.7695                 1.6959
 Frc consts  --      0.5517                 0.4629                 0.5097
 IR Inten    --      2.1358                 7.1370                13.8176

                     19                     20                     21
                      A                      A                      A
 Frequencies --    808.3801               812.1233               864.2906
 Red. masses --      1.2643                 1.2887                 1.9200
 Frc consts  --      0.4868                 0.5008                 0.8450
 IR Inten    --      3.7960                 8.2427                 5.2056

                     22                     23                     24
                      A                      A                      A
 Frequencies --    880.2925               897.2597               913.8948
 Red. masses --      1.8472                 1.6218                 1.9147
 Frc consts  --      0.8434                 0.7693                 0.9422
 IR Inten    --      5.0834               156.4554                 2.1870

                     25                     26                     27
                      A                      A                      A
 Frequencies --    942.9644               960.0895               992.4407
 Red. masses --      1.8237                 2.3597                 2.3095
 Frc consts  --      0.9554                 1.2815                 1.3402
 IR Inten    --     73.2030                 2.0560                 3.0267

                     28                     29                     30
                      A                      A                      A
 Frequencies --   1047.5661              1050.5388              1065.9819
 Red. masses --      2.1781                 2.6871                 1.9696
 Frc consts  --      1.4083                 1.7473                 1.3186
 IR Inten    --      3.2583                17.3660                 8.4798

                     31                     32                     33
                      A                      A                      A
 Frequencies --   1072.7642              1083.5153              1104.2265
 Red. masses --      2.1547                 1.4638                 1.6090
 Frc consts  --      1.4610                 1.0125                 1.1559
 IR Inten    --     24.2987                49.2616                 9.3654

                     34                     35                     36
                      A                      A                      A
 Frequencies --   1138.0730              1158.8370              1217.5559
 Red. masses --      2.2106                 2.4666                 1.7191
 Frc consts  --      1.6869                 1.9516                 1.5015
 IR Inten    --      0.9310                 5.2018                 9.1680

                     37                     38                     39
                      A                      A                      A
 Frequencies --   1222.2302              1247.3777              1260.2232
 Red. masses --      1.3399                 1.3679                 1.5383
 Frc consts  --      1.1793                 1.2540                 1.4394
 IR Inten    --      1.4682                12.9923                 1.7323

                     40                     41                     42
                      A                      A                      A
 Frequencies --   1274.6138              1287.8561              1295.1528
 Red. masses --      1.2549                 1.6225                 1.3920
 Frc consts  --      1.2012                 1.5855                 1.3757
 IR Inten    --      1.7895                 3.2563                 0.5289

                     43                     44                     45
                      A                      A                      A
 Frequencies --   1321.3371              1341.8658              1377.3266
 Red. masses --      1.5336                 1.5334                 1.3377
 Frc consts  --      1.5776                 1.6267                 1.4952
 IR Inten    --      3.2790                 0.9424                 7.9647

                     46                     47                     48
                      A                      A                      A
 Frequencies --   1399.8904              1410.2171              1427.4201
 Red. masses --      1.2372                 1.2156                 1.4629
 Frc consts  --      1.4285                 1.4243                 1.7562
 IR Inten    --      4.6888                15.0513                 1.1562

                     49                     50                     51
                      A                      A                      A
 Frequencies --   1438.9089              1441.6351              1506.5498
 Red. masses --      1.2636                 1.3239                 1.0874
 Frc consts  --      1.5414                 1.6211                 1.4541
 IR Inten    --      9.1073                39.0930                 3.4411

                     52                     53                     54
                      A                      A                      A
 Frequencies --   1513.4862              1517.8313              1529.1250
 Red. masses --      1.0800                 1.0721                 1.0664
 Frc consts  --      1.4576                 1.4552                 1.4691
 IR Inten    --      0.9365                 1.3363                 8.6704

                     55                     56                     57
                      A                      A                      A
 Frequencies --   1531.6535              1536.6976              1542.6969
 Red. masses --      1.0775                 1.0652                 1.1058
 Frc consts  --      1.4894                 1.4820                 1.5505
 IR Inten    --      0.5632                 6.4411                 2.3414

                     58                     59                     60
                      A                      A                      A
 Frequencies --   1692.1898              2993.5353              2999.1503
 Red. masses --      1.0922                 1.0732                 1.0824
 Frc consts  --      1.8427                 5.6665                 5.7366
 IR Inten    --     21.9444                67.9845                26.3451

                     61                     62                     63
                      A                      A                      A
 Frequencies --   3047.1000              3050.8338              3055.3895
 Red. masses --      1.0585                 1.0442                 1.0585
 Frc consts  --      5.7904                 5.7260                 5.8219
 IR Inten    --     30.4548                63.0257                14.9607

                     64                     65                     66
                      A                      A                      A
 Frequencies --   3058.9382              3078.9350              3087.2618
 Red. masses --      1.0617                 1.0613                 1.0910
 Frc consts  --      5.8534                 5.9275                 6.1269
 IR Inten    --     26.2930                38.1026                40.3502

                     67                     68                     69
                      A                      A                      A
 Frequencies --   3097.5600              3099.3408              3105.9574
 Red. masses --      1.0997                 1.1063                 1.1026
 Frc consts  --      6.2169                 6.2613                 6.2671
 IR Inten    --      8.6796                25.4514                 2.3350

                     70                     71                     72
                      A                      A                      A
 Frequencies --   3113.5452              3130.3413              3131.6324
 Red. masses --      1.1012                 1.1050                 1.1025
 Frc consts  --      6.2897                 6.3795                 6.3703
 IR Inten    --     36.7629                24.5267                95.5674

                     73                     74                     75
                      A                      A                      A
 Frequencies --   3459.3920              3548.2227              3748.5591
 Red. masses --      1.0486                 1.0925                 1.0657
 Frc consts  --      7.3934                 8.1040                 8.8228
 IR Inten    --      2.5605                 0.9645                 6.9738

 - Thermochemistry -
 -------------------
 Temperature   298.150 Kelvin.  Pressure   1.00000 Atm.
 Atom     1 has atomic number  6 and mass  12.00000

 Molecular mass:   143.13101 amu.
 Principal axes and moments of inertia in atomic units:
                           1         2         3
     Eigenvalues --  1173.479871686.077381835.33161
           X            0.99956  -0.01872  -0.02285
           Y            0.02203   0.98778   0.15428
           Z            0.01968  -0.15471   0.98776
 This molecule is an asymmetric top.
 Rotational symmetry number  1.
 Warning -- assumption of classical behavior for rotation
           may cause significant error
 Rotational temperatures (Kelvin)      0.07381     0.05137     0.04719
 Rotational constants (GHZ):           1.53794     1.07038     0.98333
 Zero-point vibrational energy     651045.8 (Joules/Mol)
                                  155.60369 (Kcal/Mol)
 Warning -- explicit consideration of  16 degrees of freedom as
           vibrations may cause significant error
 Vibrational temperatures:    103.74   166.33   210.17   228.73   296.77
          (Kelvin)            319.43   347.61   371.42   400.81   439.57
                              482.89   508.96   555.01   607.54   704.63
                              778.39   958.70  1027.63  1163.08  1168.46
                             1243.52  1266.54  1290.96  1314.89  1356.72
                             1381.35  1427.90  1507.21  1511.49  1533.71
                             1543.47  1558.94  1588.74  1637.43  1667.31
                             1751.79  1758.52  1794.70  1813.18  1833.88
                             1852.94  1863.44  1901.11  1930.65  1981.67
                             2014.13  2028.99  2053.74  2070.27  2074.19
                             2167.59  2177.57  2183.82  2200.07  2203.71
                             2210.97  2219.60  2434.68  4307.03  4315.11
                             4384.10  4389.47  4396.02  4401.13  4429.90
                             4441.88  4456.70  4459.26  4468.78  4479.70
                             4503.86  4505.72  4977.29  5105.10  5393.34

 Zero-point correction=                           0.247970 (Hartree/Particle)
 Thermal correction to Energy=                    0.259397
 Thermal correction to Enthalpy=                  0.260341
 Thermal correction to Gibbs Free Energy=         0.211932
 Sum of electronic and zero-point Energies=           -444.813017
 Sum of electronic and thermal Energies=              -444.801591
 Sum of electronic and thermal Enthalpies=            -444.800646
 Sum of electronic and thermal Free Energies=         -444.849056

                     E (Thermal)             CV                S
                      KCal/Mol        Cal/Mol-Kelvin    Cal/Mol-Kelvin
 Total                  162.774             43.918            101.886
 Electronic               0.000              0.000              0.000
 Translational            0.889              2.981             40.787
 Rotational               0.889              2.981             29.675
 Vibrational            160.997             37.956             31.425
 Vibration     1          0.598              1.967              4.095
 Vibration     2          0.608              1.936              3.173
 Vibration     3          0.617              1.907              2.723
 Vibration     4          0.621              1.893              2.562
 Vibration     5          0.641              1.831              2.076
 Vibration     6          0.648              1.808              1.943
 Vibration     7          0.658              1.777              1.791
 Vibration     8          0.667              1.749              1.674
 Vibration     9          0.679              1.713              1.542
 Vibration    10          0.696              1.663              1.386
 Vibration    11          0.717              1.604              1.233
 Vibration    12          0.730              1.568              1.149
 Vibration    13          0.754              1.501              1.017
 Vibration    14          0.785              1.422              0.884
 Vibration    15          0.846              1.273              0.684
 Vibration    16          0.896              1.159              0.563

 Optimization completed.
    -- Stationary point found.
 Normal termination of Gaussian 16 at Tue Dec  8 13:04:06 2020.

 ----------------------------------------------------------------------
 # B3LYP/6-311++G(d,p) empiricaldispersion=gd3bj scf=xqc pop=npa geom=c
 heck
 ----------------------------------------------------------------------

 --------------------------------------
 CID_116944138_JID_847_Energie_neutraal
 --------------------------------------
 Structure from the checkpoint file:  "JID_847.chk"
 Charge =  0 Multiplicity = 1

 SCF Done:  E(RB3LYP) =  -445.203292299     A.U. after   14 cycles
 Normal termination of Gaussian 16 at Tue Dec  8 13:08:46 2020.

 ----------------------------------------------------------------------
 # B3LYP/6-311++G(d,p) empiricaldispersion=gd3bj scf=xqc pop=npa geom=c
 heck
 ----------------------------------------------------------------------

 ------------------------------------
 CID_116944138_JID_847_Energie_kation
 ------------------------------------
 Structure from the checkpoint file:  "JID_847.chk"
 Charge =  1 Multiplicity = 2

 SCF Done:  E(UB3LYP) =  -444.881679863     A.U. after   21 cycles
 Normal termination of Gaussian 16 at Tue Dec  8 13:17:08 2020.
 Gaussian 16:  ES64L-G16RevA.03 25-Dec-2016

 ----------------------------------------------------------------------
 # B3LYP/6-311++G(d,p) empiricaldispersion=gd3bj scf=xqc pop=npa geom=c
 heck
 ----------------------------------------------------------------------

 -----------------------------------
 CID_116944138_JID_847_Energie_anion
 -----------------------------------
 Structure from the checkpoint file:  "JID_847.chk"
 Charge = -1 Multiplicity = 2

                         Standard orientation:
 ---------------------------------------------------------------------
 Center     Atomic      Atomic             Coordinates (Angstroms)
 Number     Number       Type             X           Y           Z
 ---------------------------------------------------------------------
      1          6           0        2.183588   -1.044029   -1.154438
      2          6           0        2.056849    0.205612   -0.281600
      3          6           0        0.709442    0.938761   -0.367745
      4          6           0       -0.547063    0.133076    0.049015
      5          6           0       -1.889082    0.902813   -0.187983
      6          6           0       -2.498653   -0.377521   -0.812556
      7          6           0       -1.069871   -0.955667   -0.944983
      8          6           0       -0.511360   -0.381562    1.492133
      9          8           0        0.442144   -1.407409    1.743832
     10          7           0        0.851106    2.207709    0.362519
     11          1           0        1.520164   -1.845070   -0.815888
     12          1           0        3.207339   -1.432582   -1.120920
     13          1           0        1.944199   -0.830426   -2.203257
     14          1           0        2.252276   -0.066804    0.761232
     15          1           0        2.822550    0.933902   -0.573627
     16          1           0        0.550895    1.211539   -1.422790
     17          1           0       -2.387785    1.319684    0.694530
     18          1           0       -1.769480    1.701938   -0.927985
     19          1           0       -3.072445   -0.253487   -1.735325
     20          1           0       -3.112526   -0.936777   -0.100163
     21          1           0       -0.654614   -0.815360   -1.947417
     22          1           0       -0.928846   -2.009073   -0.672477
     23          1           0       -0.243220    0.439255    2.166470
     24          1           0       -1.519306   -0.716595    1.785893
     25          1           0        0.231116   -2.149178    1.156577
     26          1           0       -0.038335    2.704867    0.382665
     27          1           0        1.100030    2.020570    1.333121
 ---------------------------------------------------------------------

 SCF Done:  E(UB3LYP) =  -445.187731576     A.U. after   28 cycles

 The electronic state is 2-A.
 Alpha  occ. eigenvalues --  -19.01231 -14.18912 -10.10474 -10.08928 -10.07111
 Alpha  occ. eigenvalues --  -10.05958 -10.05668 -10.05574 -10.05442 -10.05180
 Alpha  occ. eigenvalues --   -0.91428  -0.78888  -0.73620  -0.66119  -0.60558
 Alpha  occ. eigenvalues --   -0.56167  -0.55317  -0.52096  -0.46853  -0.43290
 Alpha  occ. eigenvalues --   -0.40369  -0.38622  -0.37370  -0.35014  -0.34452
 Alpha  occ. eigenvalues --   -0.32810  -0.32501  -0.30179  -0.28011  -0.27447
 Alpha  occ. eigenvalues --   -0.25488  -0.25128  -0.24336  -0.23518  -0.22918
 Alpha  occ. eigenvalues --   -0.21669  -0.19690  -0.18625  -0.16269  -0.13765
 Alpha  occ. eigenvalues --    0.04859
 Alpha virt. eigenvalues --    0.07105   0.07839   0.07949   0.09608   0.10119
 Alpha virt. eigenvalues --    0.10207   0.10502   0.11157   0.12485   0.13178
 Alpha virt. eigenvalues --    0.13405   0.13918   0.14149   0.14613   0.15386

  Beta  occ. eigenvalues --  -19.01201 -14.18900 -10.10446 -10.08918 -10.07113
  Beta  occ. eigenvalues --  -10.05936 -10.05629 -10.05541 -10.05434 -10.05156
  Beta  occ. eigenvalues --   -0.91365  -0.78865  -0.73588  -0.66093  -0.60496
  Beta  occ. eigenvalues --   -0.56107  -0.55241  -0.52030  -0.46790  -0.43217
  Beta  occ. eigenvalues --   -0.40310  -0.38556  -0.37326  -0.34947  -0.34419
  Beta  occ. eigenvalues --   -0.32781  -0.32470  -0.30145  -0.27970  -0.27416
  Beta  occ. eigenvalues --   -0.25440  -0.25097  -0.24302  -0.23473  -0.22893
  Beta  occ. eigenvalues --   -0.21621  -0.19649  -0.18590  -0.16234  -0.13748
  Beta virt. eigenvalues --    0.07287   0.07880   0.08535   0.08828   0.10291
  Beta virt. eigenvalues --    0.10496   0.10748   0.11024   0.11618   0.12987
  Beta virt. eigenvalues --    0.13579   0.13725   0.14380   0.14518   0.15011

 Mulliken charges and spin densities:
               1          2
     1  C    0.426852  -1.052594
     2  C   -1.243131   0.974674
     3  C    1.161201  -1.262934
     4  C   -2.519767   2.922767
     5  C    0.465220  -0.867609
     6  C    1.823601  -2.261424
     7  C   -0.223587  -0.016930
     8  C    1.887878  -2.627683
     9  O   -0.210191   0.038549
    10  N   -0.301053  -0.018735
    11  H   -0.107426   0.247760
    12  H   -0.309987   0.447472
    13  H    0.023413   0.105742
    14  H    0.178852  -0.000404
    15  H    0.070285   0.091669
    16  H   -0.141956   0.361605
    17  H   -0.444013   0.618569
    18  H   -0.031391   0.150615
    19  H   -0.461775   0.612690
    20  H   -0.090966   0.230465
    21  H    0.004256   0.143851
    22  H   -0.754576   0.889479
    23  H   -0.016684   0.191085
    24  H   -0.323415   0.509621
    25  H   -0.026372   0.269039
    26  H    0.051555   0.185514
    27  H    0.113178   0.117146
 Sum of Mulliken charges =  -1.00000   1.00000

 Dipole moment (field-independent basis, Debye):
    X=              3.1180    Y=              2.5138    Z=              0.5445  Tot=              4.0419
 Quadrupole moment (field-independent basis, Debye-Ang):
   XX=           -112.9526   YY=           -109.8975   ZZ=           -101.8916
   XY=             -1.5092   XZ=              0.7141   YZ=              1.8698

 Summary of Natural Population Analysis:

                                       Natural Population
                Natural  -----------------------------------------------
    Atom  No    Charge         Core      Valence    Rydberg      Total
 -----------------------------------------------------------------------
      C    1   -0.28346      0.99966     2.27887    0.00493     3.28346
      C    2   -0.19331      0.99961     2.18541    0.00830     3.19331
      C    3   -0.00667      0.99953     1.99387    0.01327     3.00667
      C    4   -0.05760      0.99953     2.04015    0.01792     3.05760
      C    5   -0.18859      0.99960     2.17908    0.00990     3.18859
      C    6   -0.18959      0.99964     2.18077    0.00918     3.18959
      C    7   -0.18873      0.99959     2.17890    0.01024     3.18873
      C    8   -0.00843      0.99950     1.99411    0.01482     3.00843
      O    9   -0.37246      0.99990     3.36576    0.00680     4.37246
      N   10   -0.42201      0.99977     2.91238    0.00985     3.92201
      H   11    0.09832      0.00000     0.40009    0.00158     0.40168
      H   12    0.09602      0.00000     0.40318    0.00080     0.40398
      H   13    0.09516      0.00000     0.40371    0.00112     0.40484
      H   14    0.10256      0.00000     0.39604    0.00140     0.39744
      H   15    0.09631      0.00000     0.40238    0.00131     0.40369
      H   16    0.08798      0.00000     0.41003    0.00198     0.41202
      H   17    0.09847      0.00000     0.39985    0.00168     0.40153
      H   18    0.09777      0.00000     0.40078    0.00145     0.40223
      H   19    0.09687      0.00000     0.40165    0.00148     0.40313
      H   20    0.09857      0.00000     0.39917    0.00226     0.40143
      H   21    0.10169      0.00000     0.39650    0.00181     0.39831
      H   22    0.09747      0.00000     0.39958    0.00295     0.40253
      H   23    0.08463      0.00000     0.41381    0.00156     0.41537
      H   24    0.08307      0.00000     0.41498    0.00194     0.41693
      H   25    0.23083      0.00000     0.26435    0.00483     0.26917
      H   26    0.17487      0.00000     0.32330    0.00183     0.32513
      H   27    0.17026      0.00000     0.32776    0.00199     0.32974
 =======================================================================
   * Total *    0.00000      9.99634    29.86647    0.13719    40.00000

 Normal termination of Gaussian 16 at Tue Dec  8 13:26:59 2020.
