 Gaussian 16, Revision A.03,

 -----------------------------------------------------------
 # opt freq B3LYP/6-31G(d) empiricaldispersion=gd3bj scf=xqc
 -----------------------------------------------------------

 -------------------------------
 CID_105769640_JID_8649_neutraal
 -------------------------------
 Symbolic Z-matrix:
 Charge =  0 Multiplicity = 1

 SCF Done:  E(RB3LYP) =  -802.935425202     A.U. after   14 cycles
 SCF Done:  E(RB3LYP) =  -802.939444784     A.U. after   12 cycles
 SCF Done:  E(RB3LYP) =  -802.936970947     A.U. after   13 cycles
 SCF Done:  E(RB3LYP) =  -802.942002921     A.U. after   12 cycles
 SCF Done:  E(RB3LYP) =  -802.943609302     A.U. after   12 cycles
 SCF Done:  E(RB3LYP) =  -802.946002148     A.U. after   12 cycles
 SCF Done:  E(RB3LYP) =  -802.948079756     A.U. after   12 cycles
 SCF Done:  E(RB3LYP) =  -802.949402596     A.U. after   11 cycles
 SCF Done:  E(RB3LYP) =  -802.950651920     A.U. after   12 cycles
 SCF Done:  E(RB3LYP) =  -802.950875733     A.U. after   12 cycles
 SCF Done:  E(RB3LYP) =  -802.962598145     A.U. after    9 cycles
 SCF Done:  E(RB3LYP) =  -802.962598516     A.U. after    7 cycles
 SCF Done:  E(RB3LYP) =  -802.962598656     A.U. after    8 cycles
 SCF Done:  E(RB3LYP) =  -802.962598735     A.U. after    8 cycles
 SCF Done:  E(RB3LYP) =  -802.962598740     A.U. after    5 cycles
 Optimization completed on the basis of negligible forces.
    -- Stationary point found.
 Normal termination of Gaussian 16 at Fri Dec 11 22:03:13 2020.

 --------------------------------------------------------------------
 #N Geom=AllCheck Guess=TCheck SCRF=Check GenChk RB3LYP/6-31G(d) Freq
 --------------------------------------------------------------------

 Structure from the checkpoint file:  "JID_8649.chk"
 -------------------------------
 CID_105769640_JID_8649_neutraal
 -------------------------------
 Charge =  0 Multiplicity = 1

 SCF Done:  E(RB3LYP) =  -802.962598740     A.U. after    1 cycles

  Exact polarizability: 201.525   0.020 184.841  -5.315  -1.618 121.570
 Approx polarizability: 267.773 -15.056 275.183 -10.390  -6.218 173.633

                      1                      2                      3
                      A                      A                      A
 Frequencies --     14.4638                15.5919                36.4668
 Red. masses --      2.7671                 1.1687                 3.3354
 Frc consts  --      0.0003                 0.0002                 0.0026
 IR Inten    --      0.2426                 0.1837                 0.9031

                      4                      5                      6
                      A                      A                      A
 Frequencies --     48.2492                71.9970                79.3665
 Red. masses --      3.7363                 2.8116                 2.1770
 Frc consts  --      0.0051                 0.0086                 0.0081
 IR Inten    --      0.6421                 0.2901                 7.1159

                      7                      8                      9
                      A                      A                      A
 Frequencies --    103.6990               149.8866               182.8396
 Red. masses --      3.4639                 2.7698                 3.8649
 Frc consts  --      0.0219                 0.0367                 0.0761
 IR Inten    --      0.2680                 0.9478                 1.5760

                     10                     11                     12
                      A                      A                      A
 Frequencies --    187.3192               210.8579               220.0620
 Red. masses --      3.1937                 3.3361                 3.6309
 Frc consts  --      0.0660                 0.0874                 0.1036
 IR Inten    --      0.9452                 0.7977                 2.9294

                     13                     14                     15
                      A                      A                      A
 Frequencies --    226.1718               238.6223               268.3076
 Red. masses --      1.6033                 1.9966                 1.8996
 Frc consts  --      0.0483                 0.0670                 0.0806
 IR Inten    --      0.7742                 0.4373                 2.9566

                     16                     17                     18
                      A                      A                      A
 Frequencies --    271.4034               310.3064               330.9944
 Red. masses --      1.7311                 2.1882                 3.0703
 Frc consts  --      0.0751                 0.1241                 0.1982
 IR Inten    --      3.5742                 5.5036                 0.7005

                     19                     20                     21
                      A                      A                      A
 Frequencies --    344.9360               374.4676               430.3401
 Red. masses --      3.6389                 3.5001                 2.4531
 Frc consts  --      0.2551                 0.2892                 0.2677
 IR Inten    --      1.8736                24.1055                 7.7211

                     22                     23                     24
                      A                      A                      A
 Frequencies --    439.1309               451.2689               471.5050
 Red. masses --      2.1675                 1.3923                 1.3058
 Frc consts  --      0.2463                 0.1671                 0.1710
 IR Inten    --     41.1847                77.8095                29.2531

                     25                     26                     27
                      A                      A                      A
 Frequencies --    493.4869               514.2838               530.3696
 Red. masses --      2.2512                 2.7514                 4.3512
 Frc consts  --      0.3230                 0.4288                 0.7211
 IR Inten    --      8.5078                 6.8937                12.3368

                     28                     29                     30
                      A                      A                      A
 Frequencies --    573.6422               606.0394               613.9612
 Red. masses --      3.9083                 3.2081                 3.0673
 Frc consts  --      0.7577                 0.6942                 0.6812
 IR Inten    --      3.4634                 4.6411                 0.4398

                     31                     32                     33
                      A                      A                      A
 Frequencies --    691.6576               702.8843               721.5930
 Red. masses --      4.1132                10.8365                 4.3424
 Frc consts  --      1.1593                 3.1543                 1.3322
 IR Inten    --      8.7654                 1.3134                 1.2695

                     34                     35                     36
                      A                      A                      A
 Frequencies --    768.0149               810.5225               822.2006
 Red. masses --      1.4769                 3.7604                 2.1409
 Frc consts  --      0.5133                 1.4555                 0.8527
 IR Inten    --      0.2743                46.7455                 2.8331

                     37                     38                     39
                      A                      A                      A
 Frequencies --    836.9848               852.1910               879.7370
 Red. masses --      1.1379                 2.2346                 2.0448
 Frc consts  --      0.4697                 0.9562                 0.9324
 IR Inten    --      0.9623                 6.8006                 1.1721

                     40                     41                     42
                      A                      A                      A
 Frequencies --    921.7386               932.2330               958.5454
 Red. masses --      1.8083                 1.9479                 1.9780
 Frc consts  --      0.9052                 0.9974                 1.0708
 IR Inten    --      2.7079                 0.5365                 4.0157

                     43                     44                     45
                      A                      A                      A
 Frequencies --    980.1626               993.6471               998.7712
 Red. masses --      2.0711                 4.6404                 3.4100
 Frc consts  --      1.1723                 2.6994                 2.0042
 IR Inten    --      4.5628                11.9707                11.4178

                     46                     47                     48
                      A                      A                      A
 Frequencies --   1022.4088              1036.6942              1060.1793
 Red. masses --      2.0890                 1.3411                 2.7021
 Frc consts  --      1.2866                 0.8492                 1.7894
 IR Inten    --     10.1536                 7.7714                 1.1162

                     49                     50                     51
                      A                      A                      A
 Frequencies --   1075.8982              1094.5140              1111.1460
 Red. masses --      1.6302                 2.4820                 2.0692
 Frc consts  --      1.1118                 1.7518                 1.5052
 IR Inten    --      7.1249                 6.2815                15.0488

                     52                     53                     54
                      A                      A                      A
 Frequencies --   1114.6487              1148.6949              1172.4901
 Red. masses --      4.0446                 2.0091                 1.9500
 Frc consts  --      2.9608                 1.5619                 1.5795
 IR Inten    --     33.8758                32.9351                 7.7788

                     55                     56                     57
                      A                      A                      A
 Frequencies --   1179.5635              1182.4135              1192.1081
 Red. masses --      2.7455                 1.5465                 2.6425
 Frc consts  --      2.2507                 1.2739                 2.2126
 IR Inten    --     33.5606                 6.5189                54.5932

                     58                     59                     60
                      A                      A                      A
 Frequencies --   1212.6031              1221.7413              1268.1395
 Red. masses --      3.1155                 1.4777                 2.6377
 Frc consts  --      2.6991                 1.2996                 2.4992
 IR Inten    --     41.1422                 2.7666               104.4451

                     61                     62                     63
                      A                      A                      A
 Frequencies --   1285.0387              1296.1702              1309.9352
 Red. masses --      1.8249                 1.3388                 1.3232
 Frc consts  --      1.7755                 1.3252                 1.3377
 IR Inten    --     52.9851                15.2135                 5.7512

                     64                     65                     66
                      A                      A                      A
 Frequencies --   1311.5406              1324.3400              1351.3417
 Red. masses --      1.1265                 1.6329                 1.7324
 Frc consts  --      1.1417                 1.6874                 1.8639
 IR Inten    --      9.1854                16.4117                 0.6882

                     67                     68                     69
                      A                      A                      A
 Frequencies --   1365.7443              1388.3580              1394.7967
 Red. masses --      1.3951                 1.2559                 1.2807
 Frc consts  --      1.5332                 1.4263                 1.4680
 IR Inten    --      5.5671                 2.4034                14.9310

                     70                     71                     72
                      A                      A                      A
 Frequencies --   1401.2245              1410.7520              1428.9071
 Red. masses --      1.5015                 1.4137                 1.4582
 Frc consts  --      1.7370                 1.6578                 1.7541
 IR Inten    --     32.0532                13.8554                18.8585

                     73                     74                     75
                      A                      A                      A
 Frequencies --   1431.5557              1435.9043              1440.5796
 Red. masses --      1.3851                 1.4365                 1.3839
 Frc consts  --      1.6724                 1.7451                 1.6921
 IR Inten    --    118.3396                27.7865                11.6821

                     76                     77                     78
                      A                      A                      A
 Frequencies --   1445.3916              1446.4403              1480.4357
 Red. masses --      1.4519                 1.6526                 2.8435
 Frc consts  --      1.7871                 2.0371                 3.6718
 IR Inten    --      6.4987                83.3526               161.2186

                     79                     80                     81
                      A                      A                      A
 Frequencies --   1506.6016              1508.7250              1510.7300
 Red. masses --      1.0906                 1.0975                 1.1041
 Frc consts  --      1.4585                 1.4719                 1.4846
 IR Inten    --      0.9046                18.5261                10.7917

                     82                     83                     84
                      A                      A                      A
 Frequencies --   1514.0244              1520.2130              1523.8506
 Red. masses --      1.0575                 1.0939                 1.0420
 Frc consts  --      1.4283                 1.4895                 1.4256
 IR Inten    --      2.9986                 0.2308                 5.8841

                     85                     86                     87
                      A                      A                      A
 Frequencies --   1527.6690              1532.7196              1533.3737
 Red. masses --      1.0728                 1.0681                 1.0645
 Frc consts  --      1.4751                 1.4783                 1.4746
 IR Inten    --      1.4306                24.5883                 8.7167

                     88                     89                     90
                      A                      A                      A
 Frequencies --   1558.5931              1573.9599              1579.2026
 Red. masses --      1.1407                 2.2882                 5.1348
 Frc consts  --      1.6326                 3.3399                 7.5448
 IR Inten    --     97.2673               187.5537                43.7013

                     91                     92                     93
                      A                      A                      A
 Frequencies --   1623.2033              1649.8712              2947.8811
 Red. masses --      3.6659                 5.9080                 1.0825
 Frc consts  --      5.6908                 9.4753                 5.5422
 IR Inten    --    349.6317               830.7317                40.1017

                     94                     95                     96
                      A                      A                      A
 Frequencies --   2971.2592              2990.3032              3036.3598
 Red. masses --      1.0727                 1.0702                 1.0847
 Frc consts  --      5.5795                 5.6381                 5.8921
 IR Inten    --     86.6924                43.6508                34.0712

                     97                     98                     99
                      A                      A                      A
 Frequencies --   3040.5507              3054.4859              3057.6443
 Red. masses --      1.0916                 1.0374                 1.0377
 Frc consts  --      5.9457                 5.7027                 5.7161
 IR Inten    --     23.1723                26.6455                11.7045

                    100                    101                    102
                      A                      A                      A
 Frequencies --   3058.5661              3065.4305              3070.9566
 Red. masses --      1.0406                 1.0600                 1.0643
 Frc consts  --      5.7355                 5.8689                 5.9138
 IR Inten    --     15.8169                34.0339                15.4757

                    103                    104                    105
                      A                      A                      A
 Frequencies --   3108.5957              3115.2366              3119.9300
 Red. masses --      1.0920                 1.1004                 1.0957
 Frc consts  --      6.2171                 6.2920                 6.2839
 IR Inten    --     43.6998                 7.2587                13.9604

                    106                    107                    108
                      A                      A                      A
 Frequencies --   3120.7502              3125.4135              3130.1152
 Red. masses --      1.1022                 1.0996                 1.1023
 Frc consts  --      6.3243                 6.3284                 6.3633
 IR Inten    --     34.8536                27.4101                43.9412

                    109                    110                    111
                      A                      A                      A
 Frequencies --   3137.3105              3137.4148              3165.0635
 Red. masses --      1.1031                 1.1022                 1.1031
 Frc consts  --      6.3970                 6.3924                 6.5110
 IR Inten    --     24.3650                24.5416                13.0642

                    112                    113                    114
                      A                      A                      A
 Frequencies --   3272.5011              3608.9875              3617.3027
 Red. masses --      1.0898                 1.0762                 1.0763
 Frc consts  --      6.8761                 8.2588                 8.2974
 IR Inten    --     10.5874                38.4437                36.0284

 - Thermochemistry -
 -------------------
 Temperature   298.150 Kelvin.  Pressure   1.00000 Atm.
 Atom     1 has atomic number  6 and mass  12.00000

 Molecular mass:   250.17936 amu.
 Principal axes and moments of inertia in atomic units:
                           1         2         3
     Eigenvalues --  3524.498677196.309539477.22082
           X            0.99993  -0.01072   0.00395
           Y            0.01072   0.99994   0.00247
           Z           -0.00398  -0.00243   0.99999
 This molecule is an asymmetric top.
 Rotational symmetry number  1.
 Warning -- assumption of classical behavior for rotation
           may cause significant error
 Rotational temperatures (Kelvin)      0.02457     0.01204     0.00914
 Rotational constants (GHZ):           0.51206     0.25079     0.19043
 Zero-point vibrational energy     923142.7 (Joules/Mol)
                                  220.63641 (Kcal/Mol)
 Warning -- explicit consideration of  30 degrees of freedom as
           vibrations may cause significant error
 Vibrational temperatures:     20.81    22.43    52.47    69.42   103.59
          (Kelvin)            114.19   149.20   215.65   263.07   269.51
                              303.38   316.62   325.41   343.32   386.03
                              390.49   446.46   476.23   496.29   538.78
                              619.16   631.81   649.28   678.39   710.02
                              739.94   763.08   825.34   871.96   883.35
                              995.14  1011.29  1038.21  1105.00  1166.16
                             1182.96  1204.23  1226.11  1265.75  1326.18
                             1341.28  1379.13  1410.24  1429.64  1437.01
                             1471.02  1491.57  1525.36  1547.98  1574.76
                             1598.69  1603.73  1652.72  1686.95  1697.13
                             1701.23  1715.18  1744.67  1757.81  1824.57
                             1848.88  1864.90  1884.70  1887.01  1905.43
                             1944.28  1965.00  1997.54  2006.80  2016.05
                             2029.76  2055.88  2059.69  2065.95  2072.67
                             2079.60  2081.10  2130.02  2167.66  2170.72
                             2173.60  2178.34  2187.25  2192.48  2197.97
                             2205.24  2206.18  2242.47  2264.58  2272.12
                             2335.43  2373.80  4241.34  4274.98  4302.38
                             4368.64  4374.67  4394.72  4399.27  4400.59
                             4410.47  4418.42  4472.58  4482.13  4488.88
                             4490.06  4496.77  4503.54  4513.89  4514.04
                             4553.82  4708.40  5192.53  5204.49

 Zero-point correction=                           0.351607 (Hartree/Particle)
 Thermal correction to Energy=                    0.370316
 Thermal correction to Enthalpy=                  0.371260
 Thermal correction to Gibbs Free Energy=         0.301950
 Sum of electronic and zero-point Energies=           -802.610992
 Sum of electronic and thermal Energies=              -802.592283
 Sum of electronic and thermal Enthalpies=            -802.591338
 Sum of electronic and thermal Free Energies=         -802.660649

                     E (Thermal)             CV                S
                      KCal/Mol        Cal/Mol-Kelvin    Cal/Mol-Kelvin
 Total                  232.377             70.026            145.876
 Electronic               0.000              0.000              0.000
 Translational            0.889              2.981             42.451
 Rotational               0.889              2.981             33.841
 Vibrational            230.599             64.064             69.584
 Vibration     1          0.593              1.986              7.278
 Vibration     2          0.593              1.986              7.129
 Vibration     3          0.594              1.982              5.442
 Vibration     4          0.595              1.978              4.888
 Vibration     5          0.598              1.967              4.098
 Vibration     6          0.600              1.963              3.906
 Vibration     7          0.605              1.946              3.384
 Vibration     8          0.618              1.903              2.674
 Vibration     9          0.630              1.863              2.299
 Vibration    10          0.632              1.857              2.254
 Vibration    11          0.643              1.824              2.036
 Vibration    12          0.647              1.811              1.959
 Vibration    13          0.650              1.801              1.909
 Vibration    14          0.657              1.781              1.813
 Vibration    15          0.673              1.731              1.607
 Vibration    16          0.675              1.726              1.587
 Vibration    17          0.699              1.654              1.361
 Vibration    18          0.713              1.614              1.255
 Vibration    19          0.723              1.586              1.189
 Vibration    20          0.746              1.524              1.061
 Vibration    21          0.792              1.404              0.858
 Vibration    22          0.799              1.385              0.829
 Vibration    23          0.810              1.358              0.792
 Vibration    24          0.828              1.313              0.733
 Vibration    25          0.849              1.264              0.675
 Vibration    26          0.869              1.218              0.623
 Vibration    27          0.885              1.183              0.586
 Vibration    28          0.930              1.088              0.497
 Vibration    29          0.965              1.019              0.439
 Vibration    30          0.973              1.002              0.426

 Optimization completed on the basis of negligible forces.
    -- Stationary point found.
 Normal termination of Gaussian 16 at Fri Dec 11 22:22:46 2020.

 ----------------------------------------------------------------------
 # B3LYP/6-311++G(d,p) empiricaldispersion=gd3bj scf=xqc pop=npa geom=c
 heck
 ----------------------------------------------------------------------

 ---------------------------------------
 CID_105769640_JID_8649_Energie_neutraal
 ---------------------------------------
 Structure from the checkpoint file:  "JID_8649.chk"
 Charge =  0 Multiplicity = 1

 SCF Done:  E(RB3LYP) =  -803.187713204     A.U. after   15 cycles
 Normal termination of Gaussian 16 at Fri Dec 11 22:32:30 2020.

 ----------------------------------------------------------------------
 # B3LYP/6-311++G(d,p) empiricaldispersion=gd3bj scf=xqc pop=npa geom=c
 heck
 ----------------------------------------------------------------------

 -------------------------------------
 CID_105769640_JID_8649_Energie_kation
 -------------------------------------
 Structure from the checkpoint file:  "JID_8649.chk"
 Charge =  1 Multiplicity = 2

 SCF Done:  E(UB3LYP) =  -802.906979688     A.U. after   27 cycles
 Normal termination of Gaussian 16 at Fri Dec 11 22:57:03 2020.
 Gaussian 16:  ES64L-G16RevA.03 25-Dec-2016

 ----------------------------------------------------------------------
 # B3LYP/6-311++G(d,p) empiricaldispersion=gd3bj scf=xqc pop=npa geom=c
 heck
 ----------------------------------------------------------------------

 ------------------------------------
 CID_105769640_JID_8649_Energie_anion
 ------------------------------------
 Structure from the checkpoint file:  "JID_8649.chk"
 Charge = -1 Multiplicity = 2

                         Standard orientation:
 ---------------------------------------------------------------------
 Center     Atomic      Atomic             Coordinates (Angstroms)
 Number     Number       Type             X           Y           Z
 ---------------------------------------------------------------------
      1          6           0       -2.235157    4.285895   -0.181232
      2          6           0       -1.552157    2.923433   -0.132139
      3          7           0       -2.538737    1.861513   -0.142410
      4          6           0       -2.234794    0.533555   -0.051024
      5          6           0       -0.924883    0.055368   -0.178189
      6          6           0       -0.760101   -1.334607   -0.082466
      7          7           0       -1.810475   -2.161336    0.125173
      8          6           0       -3.013796   -1.588809    0.231668
      9          7           0       -3.291275   -0.284817    0.160488
     10          6           0       -4.178786   -2.520712    0.441489
     11          7           0        0.438138   -1.985457   -0.192157
     12          6           0        1.781407   -1.428574   -0.267383
     13          6           0        2.062083   -0.678931   -1.581368
     14          6           0        3.485542   -0.120697   -1.566254
     15          8           0        3.709193    0.713548   -0.439627
     16          6           0        3.582422    0.002754    0.792094
     17          6           0        2.164241   -0.560604    0.945775
     18          6           0        3.955478    0.969372    1.904508
     19          1           0       -2.851141    4.379632   -1.081990
     20          1           0       -1.490405    5.087309   -0.188813
     21          1           0       -2.879588    4.433756    0.693484
     22          1           0       -0.892471    2.810975   -1.003260
     23          1           0       -0.909538    2.854251    0.760965
     24          1           0       -3.488954    2.081976    0.124689
     25          1           0       -0.097113    0.727101   -0.342399
     26          1           0       -5.066690   -1.958800    0.737306
     27          1           0       -4.398099   -3.061200   -0.487485
     28          1           0       -3.936164   -3.269694    1.201264
     29          1           0        0.344824   -2.979177   -0.034806
     30          1           0        2.445329   -2.303049   -0.256977
     31          1           0        1.925239   -1.358776   -2.430388
     32          1           0        1.356954    0.147207   -1.709846
     33          1           0        3.677035    0.497592   -2.447967
     34          1           0        4.215931   -0.949451   -1.568368
     35          1           0        4.298318   -0.840258    0.782850
     36          1           0        1.465355    0.275002    1.051922
     37          1           0        2.093390   -1.160272    1.861099
     38          1           0        3.908180    0.472300    2.879154
     39          1           0        4.969196    1.352137    1.753139
     40          1           0        3.264321    1.819076    1.912916
 ---------------------------------------------------------------------

 SCF Done:  E(UB3LYP) =  -803.176168685     A.U. after   33 cycles
 SCF Done:  E(UB3LYP) =  -803.176168685     a.u. after    1 cycles

 The electronic state is 2-A.
 Alpha  occ. eigenvalues --  -19.03371 -14.24033 -14.23773 -14.20147 -14.19945
 Alpha  occ. eigenvalues --  -10.15965 -10.15722 -10.14805 -10.13288 -10.12692
 Alpha  occ. eigenvalues --  -10.12555 -10.12119 -10.08136 -10.07947 -10.07842
 Alpha  occ. eigenvalues --  -10.07726 -10.07329 -10.07261  -0.95001  -0.90147
 Alpha  occ. eigenvalues --   -0.86589  -0.83336  -0.76829  -0.71112  -0.69926
 Alpha  occ. eigenvalues --   -0.68803  -0.66254  -0.63198  -0.61377  -0.57139
 Alpha  occ. eigenvalues --   -0.55850  -0.54331  -0.52351  -0.49821  -0.48485
 Alpha  occ. eigenvalues --   -0.45542  -0.44566  -0.40513  -0.40062  -0.39628
 Alpha  occ. eigenvalues --   -0.38532  -0.37627  -0.37210  -0.36136  -0.35784
 Alpha  occ. eigenvalues --   -0.35358  -0.34841  -0.32310  -0.31976  -0.31400
 Alpha  occ. eigenvalues --   -0.30614  -0.30457  -0.29617  -0.29496  -0.29251
 Alpha  occ. eigenvalues --   -0.28795  -0.28561  -0.26867  -0.25600  -0.25325
 Alpha  occ. eigenvalues --   -0.24065  -0.22176  -0.20517  -0.20427  -0.17267
 Alpha  occ. eigenvalues --   -0.16283  -0.13859  -0.13038   0.03934
 Alpha virt. eigenvalues --    0.05220   0.06717   0.06862   0.07266   0.07853
 Alpha virt. eigenvalues --    0.08006   0.08453   0.08609   0.08741   0.09445
 Alpha virt. eigenvalues --    0.09800   0.10046   0.10590   0.10872   0.11410

  Beta  occ. eigenvalues --  -19.03358 -14.24028 -14.23763 -14.20146 -14.19941
  Beta  occ. eigenvalues --  -10.15966 -10.15721 -10.14804 -10.13273 -10.12673
  Beta  occ. eigenvalues --  -10.12533 -10.12102 -10.08089 -10.07936 -10.07840
  Beta  occ. eigenvalues --  -10.07715 -10.07325 -10.07244  -0.94979  -0.90140
  Beta  occ. eigenvalues --   -0.86572  -0.83319  -0.76818  -0.71090  -0.69900
  Beta  occ. eigenvalues --   -0.68781  -0.66218  -0.63192  -0.61343  -0.57109
  Beta  occ. eigenvalues --   -0.55784  -0.54294  -0.52314  -0.49787  -0.48436
  Beta  occ. eigenvalues --   -0.45512  -0.44540  -0.40479  -0.40023  -0.39601
  Beta  occ. eigenvalues --   -0.38508  -0.37607  -0.37171  -0.36117  -0.35747
  Beta  occ. eigenvalues --   -0.35346  -0.34820  -0.32290  -0.31951  -0.31387
  Beta  occ. eigenvalues --   -0.30599  -0.30433  -0.29587  -0.29461  -0.29220
  Beta  occ. eigenvalues --   -0.28756  -0.28511  -0.26842  -0.25555  -0.25276
  Beta  occ. eigenvalues --   -0.24044  -0.22139  -0.20508  -0.20417  -0.17212
  Beta  occ. eigenvalues --   -0.16274  -0.13851  -0.13029
  Beta virt. eigenvalues --    0.06001   0.06490   0.06931   0.07176   0.07688
  Beta virt. eigenvalues --    0.07919   0.08376   0.08707   0.08932   0.09113
  Beta virt. eigenvalues --    0.09704   0.10177   0.10293   0.10747   0.11044

 Mulliken charges and spin densities:
               1          2
     1  C    1.631669  -2.363955
     2  C   -0.922415   0.855960
     3  N   -0.195629   0.065044
     4  C    1.004835  -0.988187
     5  C    0.024091   0.050776
     6  C   -1.323078   1.117463
     7  N   -0.079199   0.052346
     8  C   -0.339598   0.145261
     9  N   -0.083489  -0.012783
    10  C   -0.236977  -0.078596
    11  N   -0.298675   0.108954
    12  C    0.946974  -1.299513
    13  C   -0.618708   0.547710
    14  C    0.620672  -1.032193
    15  O   -0.070927   0.038776
    16  C   -0.372338  -0.010889
    17  C    0.068878  -0.002213
    18  C    0.444008  -1.076118
    19  H   -0.213948   0.365658
    20  H   -0.380732   0.543384
    21  H   -0.343980   0.486281
    22  H   -0.025827   0.185464
    23  H    0.022828   0.155856
    24  H    0.345011  -0.052971
    25  H    0.355064  -0.309813
    26  H    0.127152   0.019425
    27  H    0.140604   0.017238
    28  H    0.122179   0.028822
    29  H    0.082630   0.258818
    30  H   -0.726472   0.902306
    31  H   -0.169621   0.347503
    32  H   -0.003107   0.162623
    33  H   -0.064315   0.251242
    34  H   -0.098883   0.241907
    35  H   -0.226016   0.388275
    36  H   -0.043618   0.161066
    37  H   -0.060787   0.243696
    38  H   -0.064326   0.207632
    39  H   -0.012291   0.163870
    40  H    0.038363   0.113878
 Sum of Mulliken charges =  -1.00000   1.00000

 Dipole moment (field-independent basis, Debye):
    X=             -2.8984    Y=             -1.9525    Z=              0.0168  Tot=              3.4948
 Quadrupole moment (field-independent basis, Debye-Ang):
   XX=           -186.4520   YY=           -189.0192   ZZ=           -143.4527
   XY=             18.1563   XZ=             -0.8437   YZ=             -0.4591

 Summary of Natural Population Analysis:

                                       Natural Population
                Natural  -----------------------------------------------
    Atom  No    Charge         Core      Valence    Rydberg      Total
 -----------------------------------------------------------------------
      C    1   -0.28803      0.99967     2.28324    0.00512     3.28803
      C    2   -0.08802      0.99964     2.07770    0.01069     3.08802
      N    3   -0.30528      0.99966     2.79585    0.00977     3.80528
      C    4    0.22403      0.99954     1.76265    0.01378     2.77597
      C    5   -0.21003      0.99947     2.20497    0.00559     3.21003
      C    6    0.22677      0.99954     1.75919    0.01450     2.77323
      N    7   -0.29851      0.99965     2.78884    0.01002     3.79851
      C    8    0.22964      0.99964     1.75434    0.01638     2.77036
      N    9   -0.29748      0.99965     2.78818    0.00965     3.79748
      C   10   -0.30078      0.99963     2.29570    0.00545     3.30078
      N   11   -0.30559      0.99965     2.79377    0.01216     3.80559
      C   12   -0.00873      0.99957     1.99476    0.01440     3.00873
      C   13   -0.20628      0.99960     2.19798    0.00870     3.20628
      C   14   -0.00801      0.99958     1.99592    0.01251     3.00801
      O   15   -0.30331      0.99988     3.29418    0.00925     4.30331
      C   16    0.06417      0.99956     1.92131    0.01496     2.93583
      C   17   -0.20725      0.99958     2.19774    0.00993     3.20725
      C   18   -0.28706      0.99964     2.28232    0.00510     3.28706
      H   19    0.09974      0.00000     0.39899    0.00128     0.40026
      H   20    0.10721      0.00000     0.39123    0.00156     0.39279
      H   21    0.09779      0.00000     0.40072    0.00149     0.40221
      H   22    0.09360      0.00000     0.40474    0.00167     0.40640
      H   23    0.09030      0.00000     0.40804    0.00166     0.40970
      H   24    0.19223      0.00000     0.30468    0.00309     0.30777
      H   25    0.10935      0.00000     0.38814    0.00251     0.39065
      H   26    0.10465      0.00000     0.39447    0.00088     0.39535
      H   27    0.10509      0.00000     0.39388    0.00103     0.39491
      H   28    0.10557      0.00000     0.39343    0.00101     0.39443
      H   29    0.19829      0.00000     0.29860    0.00311     0.30171
      H   30    0.10231      0.00000     0.39420    0.00348     0.39769
      H   31    0.10523      0.00000     0.39355    0.00122     0.39477
      H   32    0.09896      0.00000     0.39932    0.00173     0.40104
      H   33    0.09151      0.00000     0.40739    0.00110     0.40849
      H   34    0.07852      0.00000     0.41977    0.00171     0.42148
      H   35    0.07894      0.00000     0.41896    0.00209     0.42106
      H   36    0.10052      0.00000     0.39755    0.00192     0.39948
      H   37    0.10564      0.00000     0.39317    0.00119     0.39436
      H   38    0.10075      0.00000     0.39836    0.00089     0.39925
      H   39    0.10262      0.00000     0.39629    0.00110     0.39738
      H   40    0.10092      0.00000     0.39775    0.00133     0.39908
 =======================================================================
   * Total *   -0.00000     17.99314    49.78186    0.22500    68.00000

 Normal termination of Gaussian 16 at Fri Dec 11 23:26:41 2020.
