 Gaussian 16, Revision A.03,

 -----------------------------------------------------------
 # opt freq B3LYP/6-31G(d) empiricaldispersion=gd3bj scf=xqc
 -----------------------------------------------------------

 ------------------------------
 CID_82842249_JID_9776_neutraal
 ------------------------------
 Symbolic Z-matrix:
 Charge =  0 Multiplicity = 1

 SCF Done:  E(RB3LYP) =  -2427.39882840     A.U. after   15 cycles
 SCF Done:  E(RB3LYP) =  -2427.41473045     A.U. after   13 cycles
 SCF Done:  E(RB3LYP) =  -2427.41180011     A.U. after   13 cycles
 SCF Done:  E(RB3LYP) =  -2427.41640080     A.U. after   13 cycles
 SCF Done:  E(RB3LYP) =  -2427.41747744     A.U. after   13 cycles
 SCF Done:  E(RB3LYP) =  -2427.41825744     A.U. after   12 cycles
 SCF Done:  E(RB3LYP) =  -2427.41892283     A.U. after   13 cycles
 SCF Done:  E(RB3LYP) =  -2427.41916368     A.U. after   13 cycles
 SCF Done:  E(RB3LYP) =  -2427.41964609     A.U. after   12 cycles
 SCF Done:  E(RB3LYP) =  -2427.41983893     A.U. after   12 cycles
 SCF Done:  E(RB3LYP) =  -2427.42100654     A.U. after   11 cycles
 SCF Done:  E(RB3LYP) =  -2427.42100689     A.U. after    8 cycles
 SCF Done:  E(RB3LYP) =  -2427.42100754     A.U. after    8 cycles
 SCF Done:  E(RB3LYP) =  -2427.42100832     A.U. after    8 cycles
 SCF Done:  E(RB3LYP) =  -2427.42100844     A.U. after    7 cycles
 SCF Done:  E(RB3LYP) =  -2427.42100848     A.U. after    7 cycles
 Optimization completed.
    -- Stationary point found.
 Normal termination of Gaussian 16 at Mon Dec 14 13:44:05 2020.

 --------------------------------------------------------------------
 #N Geom=AllCheck Guess=TCheck SCRF=Check GenChk RB3LYP/6-31G(d) Freq
 --------------------------------------------------------------------

 Structure from the checkpoint file:  "JID_9776.chk"
 ------------------------------
 CID_82842249_JID_9776_neutraal
 ------------------------------
 Charge =  0 Multiplicity = 1

 SCF Done:  E(RB3LYP) =  -2427.42100848     A.U. after    1 cycles

  Exact polarizability: 199.746  -5.274 171.063  12.086  -2.741 129.512
 Approx polarizability: 293.314  -3.100 295.928  19.989   4.616 219.284

                      1                      2                      3
                      A                      A                      A
 Frequencies --     23.6166                26.7426                34.2371
 Red. masses --      8.2397                 7.1283                 7.2120
 Frc consts  --      0.0027                 0.0030                 0.0050
 IR Inten    --      4.2482                 0.0281                 1.1633

                      4                      5                      6
                      A                      A                      A
 Frequencies --     49.2167                76.5711                90.7635
 Red. masses --      6.3229                 5.2884                 5.6417
 Frc consts  --      0.0090                 0.0183                 0.0274
 IR Inten    --      1.5901                 6.4800                 6.0630

                      7                      8                      9
                      A                      A                      A
 Frequencies --    102.0426               106.9837               145.9180
 Red. masses --      9.3151                 7.7685                 5.3097
 Frc consts  --      0.0571                 0.0524                 0.0666
 IR Inten    --      3.7279                 1.6505                 9.3342

                     10                     11                     12
                      A                      A                      A
 Frequencies --    170.6500               177.6235               183.3247
 Red. masses --      3.7617                 3.2873                 1.3756
 Frc consts  --      0.0645                 0.0611                 0.0272
 IR Inten    --     13.2546                12.2687                 1.6774

                     13                     14                     15
                      A                      A                      A
 Frequencies --    201.6225               221.5764               239.7480
 Red. masses --      3.3319                 4.2530                 7.3375
 Frc consts  --      0.0798                 0.1230                 0.2485
 IR Inten    --      5.1361                 1.4078                 9.8342

                     16                     17                     18
                      A                      A                      A
 Frequencies --    258.2684               276.2832               290.0464
 Red. masses --      5.8826                 3.8479                 4.5804
 Frc consts  --      0.2312                 0.1731                 0.2270
 IR Inten    --      1.6372                19.3801                 5.5475

                     19                     20                     21
                      A                      A                      A
 Frequencies --    310.4255               321.3675               336.1705
 Red. masses --      2.3543                 3.7896                 3.8162
 Frc consts  --      0.1337                 0.2306                 0.2541
 IR Inten    --      5.8883                 4.4582                 0.1711

                     22                     23                     24
                      A                      A                      A
 Frequencies --    341.4417               361.2721               390.7520
 Red. masses --      3.0384                 3.4804                 1.3928
 Frc consts  --      0.2087                 0.2676                 0.1253
 IR Inten    --      6.7838                24.8783                72.0378

                     25                     26                     27
                      A                      A                      A
 Frequencies --    414.3957               440.5425               452.3359
 Red. masses --      5.1220                 4.8989                 5.2457
 Frc consts  --      0.5182                 0.5602                 0.6324
 IR Inten    --      5.0841                33.2543                16.4611

                     28                     29                     30
                      A                      A                      A
 Frequencies --    483.7523               490.2393               517.9464
 Red. masses --      8.6040                 8.6886                 6.9289
 Frc consts  --      1.1863                 1.2303                 1.0952
 IR Inten    --      6.4165                72.2560                41.9002

                     31                     32                     33
                      A                      A                      A
 Frequencies --    531.1693               553.4911               570.4307
 Red. masses --      6.0843                 8.3094                 4.1448
 Frc consts  --      1.0114                 1.4998                 0.7946
 IR Inten    --     80.7289                14.5515                19.3089

                     34                     35                     36
                      A                      A                      A
 Frequencies --    595.0446               657.1322               672.7062
 Red. masses --      4.5710                 6.3405                 4.9347
 Frc consts  --      0.9536                 1.6132                 1.3157
 IR Inten    --     46.5296                25.4923                 2.6727

                     37                     38                     39
                      A                      A                      A
 Frequencies --    692.8693               695.4310               754.0259
 Red. masses --      3.0606                 4.3789                 4.1430
 Frc consts  --      0.8657                 1.2477                 1.3878
 IR Inten    --    211.8935                 2.5120                62.7513

                     40                     41                     42
                      A                      A                      A
 Frequencies --    758.1718               770.7882               816.3353
 Red. masses --      5.4114                 4.2906                 2.0416
 Frc consts  --      1.8327                 1.5019                 0.8016
 IR Inten    --     15.7889                35.7826                69.4293

                     43                     44                     45
                      A                      A                      A
 Frequencies --    832.8160               877.1421               879.3888
 Red. masses --      1.9340                 2.3046                 2.1204
 Frc consts  --      0.7903                 1.0447                 0.9661
 IR Inten    --      5.1099                15.0171               166.5376

                     46                     47                     48
                      A                      A                      A
 Frequencies --    912.5485               979.5448              1005.8136
 Red. masses --      1.4272                 1.8528                 1.4445
 Frc consts  --      0.7002                 1.0474                 0.8610
 IR Inten    --      0.2504                 3.7190                 4.7519

                     49                     50                     51
                      A                      A                      A
 Frequencies --   1011.1725              1029.6480              1053.5479
 Red. masses --      1.3736                 2.7080                 4.7371
 Frc consts  --      0.8275                 1.6915                 3.0979
 IR Inten    --      9.1167                81.1373                50.4327

                     52                     53                     54
                      A                      A                      A
 Frequencies --   1098.0996              1107.8968              1110.6930
 Red. masses --      2.3597                 2.7803                 1.5310
 Frc consts  --      1.6765                 2.0107                 1.1128
 IR Inten    --     35.6012                16.2341                23.5693

                     55                     56                     57
                      A                      A                      A
 Frequencies --   1128.5526              1144.1226              1172.8960
 Red. masses --      7.7044                 3.7679                 1.5049
 Frc consts  --      5.7814                 2.9060                 1.2198
 IR Inten    --    255.9200               193.3662                 8.6295

                     58                     59                     60
                      A                      A                      A
 Frequencies --   1191.1911              1247.2718              1250.7219
 Red. masses --      3.6731                 1.3594                 1.5142
 Frc consts  --      3.0707                 1.2460                 1.3955
 IR Inten    --     27.7115                22.2438                33.5642

                     61                     62                     63
                      A                      A                      A
 Frequencies --   1298.5720              1321.8128              1331.6279
 Red. masses --      1.3215                 6.7838                 3.0959
 Frc consts  --      1.3130                 6.9833                 3.2345
 IR Inten    --      3.6173               286.4576               114.5391

                     64                     65                     66
                      A                      A                      A
 Frequencies --   1339.3516              1376.4709              1387.1941
 Red. masses --      9.8953                 1.6865                 1.6806
 Frc consts  --     10.4584                 1.8827                 1.9054
 IR Inten    --    186.9794                63.4087                23.3948

                     67                     68                     69
                      A                      A                      A
 Frequencies --   1411.0866              1436.6256              1464.7222
 Red. masses --      1.5916                 1.0820                 1.4637
 Frc consts  --      1.8672                 1.3157                 1.8502
 IR Inten    --     97.7407                 8.0347                25.6589

                     70                     71                     72
                      A                      A                      A
 Frequencies --   1474.4776              1484.9298              1494.3827
 Red. masses --      1.0809                 1.0829                 4.1065
 Frc consts  --      1.3845                 1.4069                 5.4032
 IR Inten    --      7.4920                 6.5236                10.1904

                     73                     74                     75
                      A                      A                      A
 Frequencies --   1523.9307              1597.5244              1620.8395
 Red. masses --      1.0986                 5.0728                 1.1051
 Frc consts  --      1.5032                 7.6276                 1.7105
 IR Inten    --     10.2569                 9.4259                40.1834

                     76                     77                     78
                      A                      A                      A
 Frequencies --   3079.6085              3091.4245              3107.5543
 Red. masses --      1.0678                 1.0295                 1.0577
 Frc consts  --      5.9667                 5.7971                 6.0180
 IR Inten    --     20.3102                 2.6508                 2.1834

                     79                     80                     81
                      A                      A                      A
 Frequencies --   3157.1541              3177.2810              3189.7397
 Red. masses --      1.0975                 1.1088                 1.1069
 Frc consts  --      6.4452                 6.5949                 6.6353
 IR Inten    --      3.6533                 2.4154                 1.5446

                     82                     83                     84
                      A                      A                      A
 Frequencies --   3214.9727              3224.3110              3253.0609
 Red. masses --      1.1074                 1.0918                 1.0959
 Frc consts  --      6.7439                 6.6878                 6.8327
 IR Inten    --      7.5134                 4.2337                 0.1873

                     85                     86                     87
                      A                      A                      A
 Frequencies --   3488.2485              3584.0924              3600.4382
 Red. masses --      1.0466                 1.0765                 1.0980
 Frc consts  --      7.5034                 8.1477                 8.3863
 IR Inten    --     34.0045                43.2217                31.8839

 - Thermochemistry -
 -------------------
 Temperature   298.150 Kelvin.  Pressure   1.00000 Atm.
 Atom     1 has atomic number  6 and mass  12.00000

 Molecular mass:   347.95782 amu.
 Principal axes and moments of inertia in atomic units:
                           1         2         3
     Eigenvalues --  3871.69020********************
           X            0.99996   0.00500   0.00733
           Y           -0.00468   0.99905  -0.04325
           Z           -0.00754   0.04321   0.99904
 This molecule is an asymmetric top.
 Rotational symmetry number  1.
 Warning -- assumption of classical behavior for rotation
           may cause significant error
 Rotational temperatures (Kelvin)      0.02237     0.00817     0.00704
 Rotational constants (GHZ):           0.46614     0.17026     0.14667
 Zero-point vibrational energy     570427.2 (Joules/Mol)
                                  136.33536 (Kcal/Mol)
 Warning -- explicit consideration of  34 degrees of freedom as
           vibrations may cause significant error
 Vibrational temperatures:     33.98    38.48    49.26    70.81   110.17
          (Kelvin)            130.59   146.82   153.93   209.94   245.53
                              255.56   263.76   290.09   318.80   344.94
                              371.59   397.51   417.31   446.63   462.38
                              483.67   491.26   519.79   562.21   596.22
                              633.84   650.81   696.01   705.35   745.21
                              764.23   796.35   820.72   856.14   945.47
                              967.87   996.88  1000.57  1084.88  1090.84
                             1108.99  1174.52  1198.24  1262.01  1265.24
                             1312.95  1409.35  1447.14  1454.85  1481.43
                             1515.82  1579.92  1594.02  1598.04  1623.74
                             1646.14  1687.54  1713.86  1794.55  1799.51
                             1868.36  1901.79  1915.92  1927.03  1980.43
                             1995.86  2030.24  2066.98  2107.41  2121.44
                             2136.48  2150.08  2192.60  2298.48  2332.03
                             4430.87  4447.87  4471.08  4542.44  4571.40
                             4589.32  4625.63  4639.06  4680.43  5018.81
                             5156.71  5180.23

 Zero-point correction=                           0.217264 (Hartree/Particle)
 Thermal correction to Energy=                    0.237930
 Thermal correction to Enthalpy=                  0.238874
 Thermal correction to Gibbs Free Energy=         0.166016
 Sum of electronic and zero-point Energies=          -2427.203744
 Sum of electronic and thermal Energies=             -2427.183079
 Sum of electronic and thermal Enthalpies=           -2427.182135
 Sum of electronic and thermal Free Energies=        -2427.254993

                     E (Thermal)             CV                S
                      KCal/Mol        Cal/Mol-Kelvin    Cal/Mol-Kelvin
 Total                  149.303             75.498            153.343
 Electronic               0.000              0.000              0.000
 Translational            0.889              2.981             43.435
 Rotational               0.889              2.981             34.578
 Vibrational            147.526             69.536             75.330
 Vibration     1          0.593              1.985              6.304
 Vibration     2          0.593              1.984              6.057
 Vibration     3          0.594              1.983              5.567
 Vibration     4          0.595              1.978              4.849
 Vibration     5          0.599              1.965              3.977
 Vibration     6          0.602              1.956              3.644
 Vibration     7          0.604              1.948              3.415
 Vibration     8          0.606              1.944              3.323
 Vibration     9          0.617              1.907              2.725
 Vibration    10          0.626              1.879              2.428
 Vibration    11          0.628              1.870              2.353
 Vibration    12          0.631              1.863              2.294
 Vibration    13          0.639              1.838              2.118
 Vibration    14          0.648              1.808              1.946
 Vibration    15          0.657              1.780              1.805
 Vibration    16          0.667              1.749              1.673
 Vibration    17          0.678              1.717              1.557
 Vibration    18          0.686              1.692              1.474
 Vibration    19          0.699              1.654              1.360
 Vibration    20          0.707              1.633              1.303
 Vibration    21          0.717              1.603              1.230
 Vibration    22          0.721              1.593              1.205
 Vibration    23          0.735              1.552              1.117
 Vibration    24          0.758              1.490              0.997
 Vibration    25          0.778              1.439              0.911
 Vibration    26          0.800              1.382              0.825
 Vibration    27          0.811              1.356              0.789
 Vibration    28          0.840              1.286              0.700
 Vibration    29          0.846              1.272              0.683
 Vibration    30          0.873              1.210              0.615
 Vibration    31          0.886              1.181              0.585
 Vibration    32          0.909              1.132              0.537
 Vibration    33          0.927              1.095              0.503
 Vibration    34          0.953              1.042              0.458

                           ! Non-Optimized Parameters !
 Normal termination of Gaussian 16 at Mon Dec 14 14:01:10 2020.

 ----------------------------------------------------------------------
 # B3LYP/6-311++G(d,p) empiricaldispersion=gd3bj scf=xqc pop=npa geom=c
 heck
 ----------------------------------------------------------------------

 --------------------------------------
 CID_82842249_JID_9776_Energie_neutraal
 --------------------------------------
 Structure from the checkpoint file:  "JID_9776.chk"
 Charge =  0 Multiplicity = 1

 SCF Done:  E(RB3LYP) =  -2427.78545267     A.U. after   16 cycles
 Normal termination of Gaussian 16 at Mon Dec 14 14:09:06 2020.

 ----------------------------------------------------------------------
 # B3LYP/6-311++G(d,p) empiricaldispersion=gd3bj scf=xqc pop=npa geom=c
 heck
 ----------------------------------------------------------------------

 ------------------------------------
 CID_82842249_JID_9776_Energie_kation
 ------------------------------------
 Structure from the checkpoint file:  "JID_9776.chk"
 Charge =  1 Multiplicity = 2

 SCF Done:  E(UB3LYP) =  -2427.46108485     A.U. after   27 cycles
 Normal termination of Gaussian 16 at Mon Dec 14 14:27:38 2020.
 Gaussian 16:  ES64L-G16RevA.03 25-Dec-2016

 ----------------------------------------------------------------------
 # B3LYP/6-311++G(d,p) empiricaldispersion=gd3bj scf=xqc pop=npa geom=c
 heck
 ----------------------------------------------------------------------

 -----------------------------------
 CID_82842249_JID_9776_Energie_anion
 -----------------------------------
 Structure from the checkpoint file:  "JID_9776.chk"
 Charge = -1 Multiplicity = 2

                         Standard orientation:
 ---------------------------------------------------------------------
 Center     Atomic      Atomic             Coordinates (Angstroms)
 Number     Number       Type             X           Y           Z
 ---------------------------------------------------------------------
      1          6           0        1.421892    2.279374   -0.985905
      2         16           0        2.595360    1.719272    0.253935
      3          8           0        3.677597    2.702934    0.374593
      4          8           0        1.847963    1.290818    1.448467
      5          6           0        3.381169    0.237423   -0.466454
      6         16           0        2.367173   -1.255466   -0.782530
      7          8           0        1.130141   -0.791836   -1.405962
      8          8           0        3.297481   -2.156919   -1.459212
      9          7           0        2.000861   -2.008355    0.642158
     10          6           0        1.013191   -1.582155    1.660619
     11          6           0       -0.358854   -1.379773    1.089106
     12          6           0       -1.190002   -2.342807    0.568612
     13          6           0       -2.405796   -1.815563    0.063128
     14          6           0       -2.466968   -0.451947    0.209752
     15         16           0       -1.051335    0.207590    0.965351
     16         16           0       -3.808280    0.615721   -0.201509
     17          8           0       -4.971022    0.369858    0.651701
     18          8           0       -3.232509    1.961513   -0.310694
     19          7           0       -4.241502   -0.004421   -1.715660
     20          1           0        0.903311    3.129194   -0.536198
     21          1           0        0.727343    1.469278   -1.206288
     22          1           0        1.974171    2.592760   -1.873576
     23          1           0        3.807410    0.511751   -1.434654
     24          1           0        4.192454   -0.020631    0.218597
     25          1           0        2.784766   -2.558040    0.977043
     26          1           0        0.983990   -2.415584    2.370037
     27          1           0        1.350849   -0.690554    2.189398
     28          1           0       -0.920464   -3.392461    0.528336
     29          1           0       -3.193241   -2.396643   -0.400203
     30          1           0       -5.239294    0.151128   -1.850393
     31          1           0       -3.698493    0.437100   -2.455833
 ---------------------------------------------------------------------

 SCF Done:  E(UB3LYP) =  -2427.79952356     A.U. after   29 cycles

 The electronic state is 2-A.
 Alpha  occ. eigenvalues --  -88.98738 -88.97862 -88.95893 -88.74896 -19.04332
 Alpha  occ. eigenvalues --  -19.03901 -19.03548 -19.03445 -19.00920 -19.00857
 Alpha  occ. eigenvalues --  -14.25122 -14.24774 -10.15891 -10.12874 -10.11446
 Alpha  occ. eigenvalues --  -10.08381 -10.07376 -10.06114 -10.05304  -8.04777
 Alpha  occ. eigenvalues --   -8.04290  -8.01971  -7.83536  -6.01027  -6.01017
 Alpha  occ. eigenvalues --   -6.00946  -6.00531  -6.00480  -6.00395  -5.98310
 Alpha  occ. eigenvalues --   -5.98207  -5.98048  -5.79848  -5.79459  -5.79134
 Alpha  occ. eigenvalues --   -1.04211  -1.03479  -1.01355  -0.93224  -0.93080
 Alpha  occ. eigenvalues --   -0.90270  -0.83520  -0.81552  -0.76496  -0.73131
 Alpha  occ. eigenvalues --   -0.68668  -0.66058  -0.62179  -0.60779  -0.56314
 Alpha  occ. eigenvalues --   -0.54013  -0.51436  -0.46736  -0.46168  -0.43419
 Alpha  occ. eigenvalues --   -0.43153  -0.42563  -0.42104  -0.41978  -0.41287
 Alpha  occ. eigenvalues --   -0.39647  -0.39173  -0.38940  -0.37284  -0.36281
 Alpha  occ. eigenvalues --   -0.35800  -0.34804  -0.34567  -0.34125  -0.31508
 Alpha  occ. eigenvalues --   -0.28248  -0.27586  -0.27267  -0.27127  -0.26029
 Alpha  occ. eigenvalues --   -0.25781  -0.25242  -0.24779  -0.23863  -0.23236
 Alpha  occ. eigenvalues --   -0.22849  -0.22531  -0.22162  -0.21611  -0.21179
 Alpha  occ. eigenvalues --   -0.20207  -0.19365  -0.18479  -0.13942  -0.12486
 Alpha  occ. eigenvalues --    0.03130
 Alpha virt. eigenvalues --    0.05883   0.06354   0.07007   0.08499   0.08935
 Alpha virt. eigenvalues --    0.09741   0.10097   0.10165   0.10715   0.11026
 Alpha virt. eigenvalues --    0.11629   0.12039   0.12646   0.12899   0.13435

  Beta  occ. eigenvalues --  -88.98736 -88.97861 -88.95887 -88.74830 -19.04331
  Beta  occ. eigenvalues --  -19.03897 -19.03539 -19.03432 -19.00896 -19.00809
  Beta  occ. eigenvalues --  -14.25005 -14.24757 -10.15864 -10.12869 -10.11448
  Beta  occ. eigenvalues --  -10.08140 -10.07054 -10.06032 -10.05320  -8.04774
  Beta  occ. eigenvalues --   -8.04289  -8.01965  -7.83477  -6.01024  -6.01015
  Beta  occ. eigenvalues --   -6.00945  -6.00530  -6.00479  -6.00395  -5.98295
  Beta  occ. eigenvalues --   -5.98188  -5.98050  -5.79821  -5.79433  -5.78912
  Beta  occ. eigenvalues --   -1.04189  -1.03470  -1.01260  -0.93210  -0.93060
  Beta  occ. eigenvalues --   -0.90186  -0.83343  -0.81489  -0.76166  -0.73103
  Beta  occ. eigenvalues --   -0.68630  -0.65673  -0.61898  -0.60558  -0.56197
  Beta  occ. eigenvalues --   -0.53881  -0.51338  -0.46660  -0.46000  -0.43315
  Beta  occ. eigenvalues --   -0.42998  -0.42545  -0.41928  -0.41870  -0.41116
  Beta  occ. eigenvalues --   -0.39557  -0.39122  -0.38833  -0.37238  -0.36165
  Beta  occ. eigenvalues --   -0.35763  -0.34698  -0.34486  -0.34086  -0.31376
  Beta  occ. eigenvalues --   -0.28070  -0.27464  -0.27091  -0.26771  -0.25892
  Beta  occ. eigenvalues --   -0.25698  -0.25037  -0.24752  -0.23763  -0.23135
  Beta  occ. eigenvalues --   -0.22805  -0.22437  -0.21997  -0.21409  -0.21119
  Beta  occ. eigenvalues --   -0.20082  -0.19240  -0.18345  -0.12994  -0.10996
  Beta virt. eigenvalues --    0.05957   0.06521   0.07240   0.08599   0.08770
  Beta virt. eigenvalues --    0.08970   0.09740   0.10115   0.10241   0.10856
  Beta virt. eigenvalues --    0.11268   0.11606   0.12114   0.12624   0.12887

 Mulliken charges and spin densities:
               1          2
     1  C   -0.481296  -0.031850
     2  S    0.126791  -0.002024
     3  O   -0.121998   0.011791
     4  O   -0.109820  -0.001143
     5  C   -0.658605  -0.096957
     6  S    0.552828  -0.372672
     7  O   -0.130357   0.026194
     8  O   -0.156592  -0.003641
     9  N   -0.072602  -0.019702
    10  C   -0.409033  -0.625028
    11  C    0.171589   0.338126
    12  C   -0.059455  -0.107179
    13  C   -0.038013   0.041019
    14  C   -1.233530   0.119254
    15  S    0.228215   0.235364
    16  S    0.791507   0.027950
    17  O   -0.148196  -0.000725
    18  O   -0.261101  -0.000329
    19  N   -0.413648  -0.019268
    20  H    0.226058   0.000705
    21  H    0.229296  -0.013667
    22  H    0.187557   0.022720
    23  H    0.235287   0.071133
    24  H    0.043671   0.274645
    25  H   -0.188812   0.556227
    26  H   -0.288417   0.479707
    27  H    0.234608   0.019109
    28  H    0.108509   0.033367
    29  H    0.153455   0.000790
    30  H    0.247238   0.023850
    31  H    0.234866   0.012235
 Sum of Mulliken charges =  -1.00000   1.00000

 Dipole moment (field-independent basis, Debye):
    X=              0.6048    Y=              2.5978    Z=             -5.4662  Tot=              6.0823
 Quadrupole moment (field-independent basis, Debye-Ang):
   XX=           -209.1283   YY=           -178.7240   ZZ=           -159.3164
   XY=             11.4959   XZ=              8.2837   YZ=             -7.3400

 Summary of Natural Population Analysis:

                                       Natural Population
                Natural  -----------------------------------------------
    Atom  No    Charge         Core      Valence    Rydberg      Total
 -----------------------------------------------------------------------
      C    1   -0.39487      0.99960     2.38833    0.00694     3.39487
      S    2    1.01960      4.99930     1.88322    0.09788     6.98040
      O    3   -0.46529      0.99991     3.45927    0.00611     4.46529
      O    4   -0.46223      0.99990     3.45546    0.00687     4.46223
      C    5   -0.41906      0.99953     2.40191    0.01762     3.41906
      S    6    1.10966      4.99924     1.78605    0.10505     6.89034
      O    7   -0.45600      0.99990     3.44908    0.00702     4.45600
      O    8   -0.46067      0.99991     3.45473    0.00603     4.46067
      N    9   -0.43485      0.99974     2.92090    0.01421     3.93485
      C   10   -0.10844      0.99953     2.09353    0.01538     3.10844
      C   11   -0.05088      0.99950     2.03712    0.01427     3.05088
      C   12   -0.13302      0.99946     2.12255    0.01101     3.13302
      C   13   -0.09446      0.99947     2.08455    0.01043     3.09446
      C   14   -0.22180      0.99939     2.20714    0.01527     3.22180
      S   15    0.26631      4.99932     2.71266    0.02171     7.73369
      S   16    1.10119      4.99916     1.79530    0.10434     6.89881
      O   17   -0.46219      0.99990     3.45689    0.00540     4.46219
      O   18   -0.46811      0.99991     3.46287    0.00533     4.46811
      N   19   -0.51481      0.99979     3.00393    0.01109     4.01481
      H   20    0.12253      0.00000     0.37646    0.00101     0.37747
      H   21    0.13886      0.00000     0.35971    0.00144     0.36114
      H   22    0.11040      0.00000     0.38858    0.00103     0.38960
      H   23    0.12489      0.00000     0.37406    0.00105     0.37511
      H   24    0.13149      0.00000     0.36711    0.00141     0.36851
      H   25    0.20829      0.00000     0.28236    0.00935     0.29171
      H   26    0.11161      0.00000     0.38629    0.00211     0.38839
      H   27    0.11241      0.00000     0.38579    0.00180     0.38759
      H   28    0.10334      0.00000     0.39562    0.00104     0.39666
      H   29    0.10667      0.00000     0.39205    0.00129     0.39333
      H   30    0.18936      0.00000     0.30786    0.00278     0.31064
      H   31    0.19010      0.00000     0.30766    0.00224     0.30990
 =======================================================================
   * Total *    0.00000     34.99245    54.49903    0.50852    90.00000

 Normal termination of Gaussian 16 at Mon Dec 14 14:47:14 2020.
