 Gaussian 16, Revision A.03,

 -----------------------------------------------------------
 # opt freq B3LYP/6-31G(d) empiricaldispersion=gd3bj scf=xqc
 -----------------------------------------------------------

 -------------------------------
 CID_119378366_JID_5262_neutraal
 -------------------------------
 Symbolic Z-matrix:
 Charge =  0 Multiplicity = 1

 SCF Done:  E(RB3LYP) =  -707.293524851     A.U. after   15 cycles
 SCF Done:  E(RB3LYP) =  -707.298462704     A.U. after   12 cycles
 SCF Done:  E(RB3LYP) =  -707.299158547     A.U. after   12 cycles
 SCF Done:  E(RB3LYP) =  -707.299641347     A.U. after   12 cycles
 SCF Done:  E(RB3LYP) =  -707.299192315     A.U. after   13 cycles
 SCF Done:  E(RB3LYP) =  -707.300080946     A.U. after   13 cycles
 SCF Done:  E(RB3LYP) =  -707.300363530     A.U. after   12 cycles
 SCF Done:  E(RB3LYP) =  -707.300558316     A.U. after   11 cycles
 SCF Done:  E(RB3LYP) =  -707.300613117     A.U. after   10 cycles
 SCF Done:  E(RB3LYP) =  -707.300625448     A.U. after   10 cycles
 SCF Done:  E(RB3LYP) =  -707.300654987     A.U. after   10 cycles
 SCF Done:  E(RB3LYP) =  -707.300656805     A.U. after    9 cycles
 SCF Done:  E(RB3LYP) =  -707.300657353     A.U. after    8 cycles
 SCF Done:  E(RB3LYP) =  -707.300657460     A.U. after    7 cycles
 SCF Done:  E(RB3LYP) =  -707.300657585     A.U. after    7 cycles
 SCF Done:  E(RB3LYP) =  -707.300657656     A.U. after    7 cycles
 Optimization completed.
    -- Stationary point found.
 Normal termination of Gaussian 16 at Thu Dec 10 15:18:24 2020.

 --------------------------------------------------------------------
 #N Geom=AllCheck Guess=TCheck SCRF=Check GenChk RB3LYP/6-31G(d) Freq
 --------------------------------------------------------------------

 Structure from the checkpoint file:  "JID_5262.chk"
 -------------------------------
 CID_119378366_JID_5262_neutraal
 -------------------------------
 Charge =  0 Multiplicity = 1

 SCF Done:  E(RB3LYP) =  -707.300657656     A.U. after    1 cycles

  Exact polarizability: 147.824  -3.565 119.758   6.680   2.294 114.589
 Approx polarizability: 191.511  -6.103 170.063  24.714   8.677 182.939

                      1                      2                      3
                      A                      A                      A
 Frequencies --     22.3415                41.0700                58.7804
 Red. masses --      4.8082                 4.6985                 5.6572
 Frc consts  --      0.0014                 0.0047                 0.0115
 IR Inten    --      1.4870                 0.2141                 1.0282

                      4                      5                      6
                      A                      A                      A
 Frequencies --     66.6152                86.7939               113.2170
 Red. masses --      3.9889                 4.0551                 3.4573
 Frc consts  --      0.0104                 0.0180                 0.0261
 IR Inten    --      0.4614                 0.9650                 0.9032

                      7                      8                      9
                      A                      A                      A
 Frequencies --    161.4970               207.9104               224.9586
 Red. masses --      3.3483                 2.7360                 1.1325
 Frc consts  --      0.0515                 0.0697                 0.0338
 IR Inten    --      0.3241                 2.0305                 0.2273

                     10                     11                     12
                      A                      A                      A
 Frequencies --    241.5394               244.4126               272.3857
 Red. masses --      1.3360                 1.6068                 3.2758
 Frc consts  --      0.0459                 0.0566                 0.1432
 IR Inten    --      0.4408                 1.4406                 7.5693

                     13                     14                     15
                      A                      A                      A
 Frequencies --    291.8291               305.5813               366.1032
 Red. masses --      1.2349                 3.4445                 3.8742
 Frc consts  --      0.0620                 0.1895                 0.3059
 IR Inten    --     56.9915                 6.0692                11.1318

                     16                     17                     18
                      A                      A                      A
 Frequencies --    372.3252               399.3445               427.2848
 Red. masses --      2.9508                 3.0210                 2.6878
 Frc consts  --      0.2410                 0.2839                 0.2891
 IR Inten    --     13.8851                 4.5765                 2.9482

                     19                     20                     21
                      A                      A                      A
 Frequencies --    450.3495               482.6454               501.7671
 Red. masses --      2.3598                 2.8719                 3.1504
 Frc consts  --      0.2820                 0.3942                 0.4673
 IR Inten    --      1.7349                17.8004                16.6265

                     22                     23                     24
                      A                      A                      A
 Frequencies --    540.6016               565.9133               601.8831
 Red. masses --      2.1133                 2.0411                 3.8866
 Frc consts  --      0.3639                 0.3851                 0.8296
 IR Inten    --      1.1309                 6.8249                10.9100

                     25                     26                     27
                      A                      A                      A
 Frequencies --    613.1167               677.7436               705.9557
 Red. masses --      3.9834                 1.3793                 2.2560
 Frc consts  --      0.8822                 0.3733                 0.6624
 IR Inten    --     13.1707               119.4424                 2.4258

                     28                     29                     30
                      A                      A                      A
 Frequencies --    746.3226               767.2528               804.1694
 Red. masses --      6.1387                 3.2765                 2.9087
 Frc consts  --      2.0146                 1.1364                 1.1083
 IR Inten    --      4.7157                 1.3602                 3.2968

                     31                     32                     33
                      A                      A                      A
 Frequencies --    832.0895               867.2777               878.5476
 Red. masses --      2.8051                 2.0390                 1.7515
 Frc consts  --      1.1443                 0.9036                 0.7965
 IR Inten    --      1.3679                12.9199                 6.8701

                     34                     35                     36
                      A                      A                      A
 Frequencies --    911.9139               917.3338               937.5709
 Red. masses --      1.8740                 1.7955                 2.1902
 Frc consts  --      0.9182                 0.8902                 1.1343
 IR Inten    --     18.8739                54.4357                46.9035

                     37                     38                     39
                      A                      A                      A
 Frequencies --    952.6874              1019.7601              1028.9451
 Red. masses --      2.0280                 2.2383                 1.7177
 Frc consts  --      1.0845                 1.3714                 1.0715
 IR Inten    --      5.0320                16.4507                 4.7696

                     40                     41                     42
                      A                      A                      A
 Frequencies --   1041.9275              1051.2701              1074.4252
 Red. masses --      1.5909                 1.8988                 1.6802
 Frc consts  --      1.0176                 1.2364                 1.1428
 IR Inten    --      8.5907                36.8729                 6.1189

                     43                     44                     45
                      A                      A                      A
 Frequencies --   1094.7781              1099.9238              1108.5593
 Red. masses --      1.7996                 1.6288                 2.3864
 Frc consts  --      1.2708                 1.1610                 1.7279
 IR Inten    --     60.9782                 0.9689                 6.9971

                     46                     47                     48
                      A                      A                      A
 Frequencies --   1147.8861              1156.5938              1190.4438
 Red. masses --      1.6312                 1.5636                 1.7021
 Frc consts  --      1.2663                 1.2324                 1.4212
 IR Inten    --      7.2875                20.5820                40.9094

                     49                     50                     51
                      A                      A                      A
 Frequencies --   1218.4413              1235.5720              1259.8649
 Red. masses --      2.2515                 1.4228                 1.6854
 Frc consts  --      1.9694                 1.2798                 1.5762
 IR Inten    --      8.5821                 4.0745                49.9031

                     52                     53                     54
                      A                      A                      A
 Frequencies --   1277.8799              1319.7695              1342.9185
 Red. masses --      2.4591                 1.2366                 1.4917
 Frc consts  --      2.3660                 1.2690                 1.5850
 IR Inten    --     30.1848                11.0298                39.6019

                     55                     56                     57
                      A                      A                      A
 Frequencies --   1351.5576              1357.4242              1370.6989
 Red. masses --      1.4825                 1.6212                 1.2911
 Frc consts  --      1.5955                 1.7600                 1.4291
 IR Inten    --      7.3869                63.6984                 0.9711

                     58                     59                     60
                      A                      A                      A
 Frequencies --   1388.1673              1394.8945              1404.4507
 Red. masses --      1.6031                 1.4192                 1.4845
 Frc consts  --      1.8201                 1.6270                 1.7252
 IR Inten    --     73.8604                 9.7450                 1.1977

                     61                     62                     63
                      A                      A                      A
 Frequencies --   1415.1774              1426.8862              1428.0951
 Red. masses --      1.3680                 1.3602                 1.3101
 Frc consts  --      1.6143                 1.6317                 1.5743
 IR Inten    --      9.5175                33.8034                40.2192

                     64                     65                     66
                      A                      A                      A
 Frequencies --   1433.2730              1474.7561              1503.1830
 Red. masses --      1.4058                 2.2893                 1.3550
 Frc consts  --      1.7015                 2.9335                 1.8039
 IR Inten    --      5.1879               219.0669                35.4861

                     67                     68                     69
                      A                      A                      A
 Frequencies --   1511.2189              1513.4765              1514.6780
 Red. masses --      1.1188                 1.0736                 1.0650
 Frc consts  --      1.5054                 1.4489                 1.4395
 IR Inten    --      7.4455                 7.9867                 2.9249

                     70                     71                     72
                      A                      A                      A
 Frequencies --   1517.7602              1522.9712              1524.1712
 Red. masses --      1.0972                 1.0608                 1.0940
 Frc consts  --      1.4892                 1.4497                 1.4973
 IR Inten    --      1.3195                 7.0659                 7.9456

                     73                     74                     75
                      A                      A                      A
 Frequencies --   1533.6338              1545.8053              1697.7753
 Red. masses --      1.1571                 1.2074                 1.0945
 Frc consts  --      1.6034                 1.6999                 1.8588
 IR Inten    --     16.9470                25.9875                20.9649

                     76                     77                     78
                      A                      A                      A
 Frequencies --   1746.8568              1793.2335              3027.9134
 Red. masses --      9.5486                 8.2236                 1.0648
 Frc consts  --     17.1674                15.5806                 5.7519
 IR Inten    --    303.4913               401.0588                22.8231

                     79                     80                     81
                      A                      A                      A
 Frequencies --   3041.9298              3048.6806              3051.6589
 Red. masses --      1.0718                 1.0397                 1.0662
 Frc consts  --      5.8436                 5.6934                 5.8502
 IR Inten    --     18.8262                 5.9380                 9.6191

                     82                     83                     84
                      A                      A                      A
 Frequencies --   3053.6192              3054.0167              3066.0294
 Red. masses --      1.0463                 1.0632                 1.0829
 Frc consts  --      5.7482                 5.8425                 5.9978
 IR Inten    --      5.8675                39.0159                79.3551

                     85                     86                     87
                      A                      A                      A
 Frequencies --   3076.3455              3095.2926              3110.7007
 Red. masses --      1.0969                 1.1023                 1.1012
 Frc consts  --      6.1165                 6.2223                 6.2780
 IR Inten    --     45.3554                54.6231                 7.6850

                     88                     89                     90
                      A                      A                      A
 Frequencies --   3125.2344              3138.7553              3166.9169
 Red. masses --      1.1013                 1.1032                 1.0914
 Frc consts  --      6.3376                 6.4034                 6.4491
 IR Inten    --     26.2178                14.3925                12.7713

                     91                     92                     93
                      A                      A                      A
 Frequencies --   3174.0833              3175.3346              3187.3454
 Red. masses --      1.0995                 1.0931                 1.0856
 Frc consts  --      6.5265                 6.4935                 6.4979
 IR Inten    --     11.7945                 2.8399                10.9697

                     94                     95                     96
                      A                      A                      A
 Frequencies --   3474.1158              3554.9657              3576.1569
 Red. masses --      1.0497                 1.0921                 1.0752
 Frc consts  --      7.4648                 8.1314                 8.1015
 IR Inten    --      0.0848                 0.2671                44.7697

 - Thermochemistry -
 -------------------
 Temperature   298.150 Kelvin.  Pressure   1.00000 Atm.
 Atom     1 has atomic number  6 and mass  12.00000

 Molecular mass:   213.14773 amu.
 Principal axes and moments of inertia in atomic units:
                           1         2         3
     Eigenvalues --  1949.195744520.225365104.80108
           X            0.99971   0.00792  -0.02269
           Y           -0.00838   0.99976  -0.02013
           Z            0.02253   0.02031   0.99954
 This molecule is an asymmetric top.
 Rotational symmetry number  1.
 Warning -- assumption of classical behavior for rotation
           may cause significant error
 Rotational temperatures (Kelvin)      0.04444     0.01916     0.01697
 Rotational constants (GHZ):           0.92589     0.39926     0.35354
 Zero-point vibrational energy     788921.2 (Joules/Mol)
                                  188.55670 (Kcal/Mol)
 Warning -- explicit consideration of  25 degrees of freedom as
           vibrations may cause significant error
 Vibrational temperatures:     32.14    59.09    84.57    95.84   124.88
          (Kelvin)            162.89   232.36   299.14   323.67   347.52
                              351.66   391.90   419.88   439.66   526.74
                              535.69   574.57   614.77   647.95   694.42
                              721.93   777.81   814.22   865.98   882.14
                              975.12  1015.71  1073.79  1103.91  1157.02
                             1197.19  1247.82  1264.03  1312.04  1319.84
                             1348.96  1370.70  1467.21  1480.42  1499.10
                             1512.54  1545.86  1575.14  1582.55  1594.97
                             1651.55  1664.08  1712.78  1753.07  1777.71
                             1812.66  1838.58  1898.85  1932.16  1944.59
                             1953.03  1972.13  1997.26  2006.94  2020.69
                             2036.12  2052.97  2054.71  2062.16  2121.85
                             2162.75  2174.31  2177.56  2179.28  2183.72
                             2191.22  2192.94  2206.56  2224.07  2442.72
                             2513.34  2580.06  4356.49  4376.66  4386.37
                             4390.66  4393.48  4394.05  4411.33  4426.17
                             4453.44  4475.60  4496.52  4515.97  4556.49
                             4566.80  4568.60  4585.88  4998.48  5114.80
                             5145.29

 Zero-point correction=                           0.300484 (Hartree/Particle)
 Thermal correction to Energy=                    0.316191
 Thermal correction to Enthalpy=                  0.317135
 Thermal correction to Gibbs Free Energy=         0.256508
 Sum of electronic and zero-point Energies=           -707.000173
 Sum of electronic and thermal Energies=              -706.984467
 Sum of electronic and thermal Enthalpies=            -706.983522
 Sum of electronic and thermal Free Energies=         -707.044150

                     E (Thermal)             CV                S
                      KCal/Mol        Cal/Mol-Kelvin    Cal/Mol-Kelvin
 Total                  198.413             59.400            127.602
 Electronic               0.000              0.000              0.000
 Translational            0.889              2.981             41.974
 Rotational               0.889              2.981             32.175
 Vibrational            196.635             53.439             53.452
 Vibration     1          0.593              1.985              6.414
 Vibration     2          0.594              1.981              5.207
 Vibration     3          0.596              1.974              4.498
 Vibration     4          0.598              1.970              4.251
 Vibration     5          0.601              1.958              3.731
 Vibration     6          0.607              1.939              3.213
 Vibration     7          0.622              1.890              2.532
 Vibration     8          0.641              1.829              2.062
 Vibration     9          0.650              1.803              1.919
 Vibration    10          0.658              1.777              1.792
 Vibration    11          0.660              1.772              1.771
 Vibration    12          0.675              1.724              1.581
 Vibration    13          0.687              1.689              1.463
 Vibration    14          0.696              1.663              1.386
 Vibration    15          0.739              1.542              1.096
 Vibration    16          0.744              1.529              1.070
 Vibration    17          0.765              1.472              0.965
 Vibration    18          0.789              1.411              0.868
 Vibration    19          0.809              1.360              0.795
 Vibration    20          0.839              1.289              0.703
 Vibration    21          0.857              1.246              0.654
 Vibration    22          0.896              1.160              0.564
 Vibration    23          0.922              1.105              0.512
 Vibration    24          0.960              1.028              0.446
 Vibration    25          0.972              1.004              0.428

                           ! Non-Optimized Parameters !
 Normal termination of Gaussian 16 at Thu Dec 10 15:30:06 2020.

 ----------------------------------------------------------------------
 # B3LYP/6-311++G(d,p) empiricaldispersion=gd3bj scf=xqc pop=npa geom=c
 heck
 ----------------------------------------------------------------------

 ---------------------------------------
 CID_119378366_JID_5262_Energie_neutraal
 ---------------------------------------
 Structure from the checkpoint file:  "JID_5262.chk"
 Charge =  0 Multiplicity = 1

 SCF Done:  E(RB3LYP) =  -707.514010049     A.U. after   14 cycles
 Normal termination of Gaussian 16 at Thu Dec 10 15:34:44 2020.

 ----------------------------------------------------------------------
 # B3LYP/6-311++G(d,p) empiricaldispersion=gd3bj scf=xqc pop=npa geom=c
 heck
 ----------------------------------------------------------------------

 -------------------------------------
 CID_119378366_JID_5262_Energie_kation
 -------------------------------------
 Structure from the checkpoint file:  "JID_5262.chk"
 Charge =  1 Multiplicity = 2

 SCF Done:  E(UB3LYP) =  -707.205626031     A.U. after   29 cycles
 Normal termination of Gaussian 16 at Thu Dec 10 15:47:21 2020.
 Gaussian 16:  ES64L-G16RevA.03 25-Dec-2016

 ----------------------------------------------------------------------
 # B3LYP/6-311++G(d,p) empiricaldispersion=gd3bj scf=xqc pop=npa geom=c
 heck
 ----------------------------------------------------------------------

 ------------------------------------
 CID_119378366_JID_5262_Energie_anion
 ------------------------------------
 Structure from the checkpoint file:  "JID_5262.chk"
 Charge = -1 Multiplicity = 2

                         Standard orientation:
 ---------------------------------------------------------------------
 Center     Atomic      Atomic             Coordinates (Angstroms)
 Number     Number       Type             X           Y           Z
 ---------------------------------------------------------------------
      1          6           0       -1.573244   -1.843293    1.606093
      2          6           0       -1.172441   -0.756124    0.595075
      3          6           0        0.069345   -1.220972   -0.188557
      4          8           0       -0.083724   -1.887136   -1.210843
      5          7           0        1.310591   -0.915547    0.303925
      6          6           0        2.481221   -1.205353   -0.532221
      7          6           0        2.961119    0.080705   -1.218349
      8          6           0        3.198985    1.202960   -0.194183
      9          6           0        1.979264    1.411583    0.732197
     10          6           0        1.590771    0.061090    1.354749
     11          7           0        0.790835    1.989438    0.088074
     12          7           0       -2.217847   -0.497335   -0.376695
     13          6           0       -2.985026    0.633861   -0.496751
     14          8           0       -3.721815    0.797587   -1.460752
     15          6           0       -2.878469    1.656780    0.625053
     16          1           0       -1.767906   -2.784599    1.082956
     17          1           0       -2.483640   -1.543687    2.134067
     18          1           0       -0.777693   -2.013932    2.340770
     19          1           0       -0.969495    0.175277    1.116712
     20          1           0        3.269288   -1.611627    0.115532
     21          1           0        2.193176   -1.965767   -1.256522
     22          1           0        2.201773    0.386082   -1.949695
     23          1           0        3.878756   -0.118554   -1.783700
     24          1           0        3.443333    2.143218   -0.704052
     25          1           0        4.069489    0.945916    0.426439
     26          1           0        2.258783    2.090854    1.546799
     27          1           0        0.736370    0.175308    2.018958
     28          1           0        2.425582   -0.323995    1.953684
     29          1           0        1.003439    2.925188   -0.253301
     30          1           0        0.536154    1.443383   -0.733959
     31          1           0       -2.220595   -1.115201   -1.181619
     32          1           0       -3.068730    1.205417    1.605659
     33          1           0       -1.877871    2.105855    0.650624
     34          1           0       -3.620106    2.433941    0.437638
 ---------------------------------------------------------------------

 SCF Done:  E(UB3LYP) =  -707.510195359     A.U. after   29 cycles

 The electronic state is 2-A.
 Alpha  occ. eigenvalues --  -19.00082 -18.99250 -14.25530 -14.23882 -14.20470
 Alpha  occ. eigenvalues --  -10.18319 -10.18143 -10.13318 -10.11210 -10.10822
 Alpha  occ. eigenvalues --  -10.10776 -10.08302 -10.07892 -10.07890 -10.07117
 Alpha  occ. eigenvalues --   -0.95616  -0.94247  -0.85770  -0.83251  -0.79489
 Alpha  occ. eigenvalues --   -0.70101  -0.67757  -0.65781  -0.64450  -0.59884
 Alpha  occ. eigenvalues --   -0.56243  -0.53636  -0.50318  -0.48735  -0.45267
 Alpha  occ. eigenvalues --   -0.42890  -0.41204  -0.40228  -0.38315  -0.37363
 Alpha  occ. eigenvalues --   -0.36796  -0.36182  -0.35129  -0.34759  -0.33262
 Alpha  occ. eigenvalues --   -0.32858  -0.32625  -0.31227  -0.30949  -0.29978
 Alpha  occ. eigenvalues --   -0.29323  -0.28489  -0.28245  -0.27757  -0.26983
 Alpha  occ. eigenvalues --   -0.25457  -0.25003  -0.23454  -0.17920  -0.16804
 Alpha  occ. eigenvalues --   -0.16534  -0.15952  -0.14672   0.03703
 Alpha virt. eigenvalues --    0.06355   0.06934   0.07489   0.08530   0.08714
 Alpha virt. eigenvalues --    0.09474   0.09977   0.10024   0.10523   0.10838
 Alpha virt. eigenvalues --    0.10905   0.11724   0.12129   0.12620   0.12886

  Beta  occ. eigenvalues --  -19.00060 -18.99247 -14.25540 -14.23881 -14.20444
  Beta  occ. eigenvalues --  -10.18298 -10.18141 -10.13315 -10.11175 -10.10804
  Beta  occ. eigenvalues --  -10.10757 -10.08276 -10.07878 -10.07874 -10.07082
  Beta  occ. eigenvalues --   -0.95582  -0.94238  -0.85755  -0.83245  -0.79438
  Beta  occ. eigenvalues --   -0.70062  -0.67725  -0.65720  -0.64427  -0.59825
  Beta  occ. eigenvalues --   -0.56201  -0.53589  -0.50277  -0.48711  -0.45198
  Beta  occ. eigenvalues --   -0.42834  -0.41162  -0.40196  -0.38277  -0.37338
  Beta  occ. eigenvalues --   -0.36755  -0.36157  -0.35104  -0.34718  -0.33226
  Beta  occ. eigenvalues --   -0.32804  -0.32596  -0.31193  -0.30934  -0.29948
  Beta  occ. eigenvalues --   -0.29278  -0.28443  -0.28187  -0.27726  -0.26962
  Beta  occ. eigenvalues --   -0.25416  -0.24945  -0.23398  -0.17902  -0.16774
  Beta  occ. eigenvalues --   -0.16518  -0.15939  -0.14638
  Beta virt. eigenvalues --    0.06169   0.07048   0.07687   0.08281   0.08813
  Beta virt. eigenvalues --    0.09005   0.09987   0.10349   0.10487   0.10889
  Beta virt. eigenvalues --    0.11003   0.11056   0.12064   0.12455   0.12973

 Mulliken charges and spin densities:
               1          2
     1  C    0.057207  -0.458120
     2  C   -0.514238   0.153469
     3  C   -0.085809  -0.113652
     4  O   -0.337916   0.018100
     5  N    0.097666   0.048776
     6  C    0.377038  -0.655785
     7  C   -1.016713   0.855087
     8  C    2.110474  -2.804670
     9  C   -0.238380   0.523908
    10  C    0.513864  -1.062075
    11  N   -0.278067  -0.203792
    12  N    0.009098   0.013094
    13  C   -0.249287   0.239669
    14  O   -0.349689  -0.002677
    15  C   -0.014979  -0.418245
    16  H    0.116057   0.049282
    17  H    0.022529   0.137282
    18  H   -0.119520   0.288127
    19  H    0.873888  -0.652767
    20  H   -0.352955   0.535750
    21  H    0.187181   0.005904
    22  H    0.040219   0.123565
    23  H   -0.193756   0.384542
    24  H   -0.471768   0.635944
    25  H   -0.105077   0.257887
    26  H   -0.868602   1.133416
    27  H   -0.454392   0.634327
    28  H   -0.613795   0.813788
    29  H    0.014190   0.260338
    30  H    0.407705  -0.181584
    31  H    0.296823   0.008799
    32  H   -0.044862   0.199775
    33  H    0.077949   0.162358
    34  H    0.107915   0.070179
 Sum of Mulliken charges =  -1.00000   1.00000

 Dipole moment (field-independent basis, Debye):
    X=             -3.7410    Y=             -2.6646    Z=             -1.3379  Tot=              4.7839
 Quadrupole moment (field-independent basis, Debye-Ang):
   XX=           -171.9905   YY=           -134.4180   ZZ=           -136.9136
   XY=             -4.8684   XZ=            -17.6692   YZ=             -2.7729

 Summary of Natural Population Analysis:

                                       Natural Population
                Natural  -----------------------------------------------
    Atom  No    Charge         Core      Valence    Rydberg      Total
 -----------------------------------------------------------------------
      C    1   -0.28444      0.99964     2.27917    0.00563     3.28444
      C    2   -0.05789      0.99956     2.04691    0.01143     3.05789
      C    3    0.34934      0.99961     1.62700    0.02405     2.65066
      O    4   -0.33424      0.99988     3.32942    0.00494     4.33424
      N    5   -0.25553      0.99964     2.74349    0.01240     3.75553
      C    6   -0.08716      0.99960     2.07680    0.01076     3.08716
      C    7   -0.19767      0.99962     2.18963    0.00842     3.19767
      C    8   -0.19752      0.99961     2.18827    0.00965     3.19752
      C    9   -0.02042      0.99959     2.00604    0.01479     3.02042
      C   10   -0.08604      0.99958     2.07340    0.01306     3.08604
      N   11   -0.42770      0.99977     2.91730    0.01063     3.92770
      N   12   -0.32217      0.99966     2.81248    0.01003     3.82217
      C   13    0.34408      0.99970     1.63466    0.02156     2.65592
      O   14   -0.32643      0.99988     3.32074    0.00581     4.32643
      C   15   -0.34295      0.99962     2.33847    0.00485     3.34295
      H   16    0.10259      0.00000     0.39642    0.00099     0.39741
      H   17    0.10129      0.00000     0.39785    0.00086     0.39871
      H   18    0.10376      0.00000     0.39518    0.00106     0.39624
      H   19    0.11502      0.00000     0.38171    0.00327     0.38498
      H   20    0.09609      0.00000     0.40260    0.00131     0.40391
      H   21    0.11464      0.00000     0.38429    0.00107     0.38536
      H   22    0.09523      0.00000     0.40346    0.00131     0.40477
      H   23    0.10370      0.00000     0.39535    0.00095     0.39630
      H   24    0.10250      0.00000     0.39561    0.00189     0.39750
      H   25    0.10251      0.00000     0.39464    0.00284     0.39749
      H   26    0.10181      0.00000     0.39411    0.00407     0.39819
      H   27    0.10571      0.00000     0.39227    0.00202     0.39429
      H   28    0.10520      0.00000     0.39188    0.00292     0.39480
      H   29    0.18107      0.00000     0.31721    0.00172     0.31893
      H   30    0.17172      0.00000     0.32564    0.00264     0.32828
      H   31    0.20485      0.00000     0.29279    0.00236     0.29515
      H   32    0.10582      0.00000     0.39328    0.00090     0.39418
      H   33    0.12253      0.00000     0.37627    0.00120     0.37747
      H   34    0.11069      0.00000     0.38853    0.00078     0.38931
 =======================================================================
   * Total *    0.00000     14.99495    42.80288    0.20218    58.00000

 Normal termination of Gaussian 16 at Thu Dec 10 16:00:02 2020.
