 Gaussian 16, Revision A.03,

 -----------------------------------------------------------
 # opt freq B3LYP/6-31G(d) empiricaldispersion=gd3bj scf=xqc
 -----------------------------------------------------------

 ------------------------------
 CID_90219882_JID_5210_neutraal
 ------------------------------
 Symbolic Z-matrix:
 Charge =  0 Multiplicity = 1

 SCF Done:  E(RB3LYP) =  -649.008639636     A.U. after   14 cycles
 SCF Done:  E(RB3LYP) =  -649.017111223     A.U. after   13 cycles
 SCF Done:  E(RB3LYP) =  -649.017967141     A.U. after   13 cycles
 SCF Done:  E(RB3LYP) =  -649.019499278     A.U. after   13 cycles
 SCF Done:  E(RB3LYP) =  -649.020506038     A.U. after   13 cycles
 SCF Done:  E(RB3LYP) =  -649.021482330     A.U. after   13 cycles
 SCF Done:  E(RB3LYP) =  -649.022071808     A.U. after   13 cycles
 SCF Done:  E(RB3LYP) =  -649.022618396     A.U. after   13 cycles
 SCF Done:  E(RB3LYP) =  -649.022954988     A.U. after   12 cycles
 SCF Done:  E(RB3LYP) =  -649.023089053     A.U. after   11 cycles
 SCF Done:  E(RB3LYP) =  -649.028174495     A.U. after   13 cycles
 SCF Done:  E(RB3LYP) =  -649.028241625     A.U. after   12 cycles
 SCF Done:  E(RB3LYP) =  -649.028253099     A.U. after   10 cycles
 SCF Done:  E(RB3LYP) =  -649.028254083     A.U. after    8 cycles
 SCF Done:  E(RB3LYP) =  -649.028254282     A.U. after    7 cycles
 Optimization completed.
    -- Stationary point found.
 Normal termination of Gaussian 16 at Thu Dec 10 15:05:10 2020.

 --------------------------------------------------------------------
 #N Geom=AllCheck Guess=TCheck SCRF=Check GenChk RB3LYP/6-31G(d) Freq
 --------------------------------------------------------------------

 Structure from the checkpoint file:  "JID_5210.chk"
 ------------------------------
 CID_90219882_JID_5210_neutraal
 ------------------------------
 Charge =  0 Multiplicity = 1

 SCF Done:  E(RB3LYP) =  -649.028254282     A.U. after    1 cycles

  Exact polarizability: 164.778  -7.526 138.563   9.961   0.452 102.949
 Approx polarizability: 224.579  -7.767 220.703  21.464   7.026 157.414

                      1                      2                      3
                      A                      A                      A
 Frequencies --     28.4591                64.0025                70.4415
 Red. masses --      4.8330                 3.2341                 3.8158
 Frc consts  --      0.0023                 0.0078                 0.0112
 IR Inten    --      4.0796                 2.2561                 1.1949

                      4                      5                      6
                      A                      A                      A
 Frequencies --    116.6430               151.1644               186.7187
 Red. masses --      3.6984                 3.7963                 3.1132
 Frc consts  --      0.0296                 0.0511                 0.0639
 IR Inten    --      0.6948                 2.6325                 5.8691

                      7                      8                      9
                      A                      A                      A
 Frequencies --    212.4589               254.4948               256.6173
 Red. masses --      3.0843                 2.0329                 2.6102
 Frc consts  --      0.0820                 0.0776                 0.1013
 IR Inten    --      1.3615                13.0946                 1.1005

                     10                     11                     12
                      A                      A                      A
 Frequencies --    294.3017               305.9375               322.4973
 Red. masses --      3.3153                 2.6971                 1.5197
 Frc consts  --      0.1692                 0.1487                 0.0931
 IR Inten    --      2.2307                 2.8301                25.2619

                     13                     14                     15
                      A                      A                      A
 Frequencies --    343.6925               383.0989               418.4202
 Red. masses --      1.8957                 4.1573                 2.0288
 Frc consts  --      0.1319                 0.3595                 0.2093
 IR Inten    --     19.3184                 1.1373                 1.8946

                     16                     17                     18
                      A                      A                      A
 Frequencies --    451.4564               465.2045               498.3625
 Red. masses --      3.7028                 2.9135                 2.5327
 Frc consts  --      0.4446                 0.3715                 0.3706
 IR Inten    --      1.0361                 1.3854                 1.0807

                     19                     20                     21
                      A                      A                      A
 Frequencies --    549.0381               623.5779               648.6179
 Red. masses --      2.5783                 2.8123                 7.1494
 Frc consts  --      0.4579                 0.6443                 1.7721
 IR Inten    --      7.1556                11.1790                 1.5446

                     22                     23                     24
                      A                      A                      A
 Frequencies --    733.1967               755.4205               780.9696
 Red. masses --      4.0365                 4.7068                 2.0183
 Frc consts  --      1.2785                 1.5825                 0.7253
 IR Inten    --      9.4202                 0.6243                12.6642

                     25                     26                     27
                      A                      A                      A
 Frequencies --    811.2797               829.4409               853.1652
 Red. masses --      2.4433                 1.5275                 2.2124
 Frc consts  --      0.9475                 0.6192                 0.9488
 IR Inten    --     23.6211                 0.3446                 1.2163

                     28                     29                     30
                      A                      A                      A
 Frequencies --    859.2742               877.6210               909.1036
 Red. masses --      2.4738                 1.4247                 1.5914
 Frc consts  --      1.0762                 0.6465                 0.7749
 IR Inten    --      7.0447                 6.7270                35.7283

                     31                     32                     33
                      A                      A                      A
 Frequencies --    922.3900               955.5654               971.0415
 Red. masses --      2.5102                 2.3010                 1.4646
 Frc consts  --      1.2583                 1.2379                 0.8137
 IR Inten    --     13.6652                34.3608                10.0444

                     34                     35                     36
                      A                      A                      A
 Frequencies --    986.0185              1003.7027              1021.6479
 Red. masses --      1.3121                 1.9095                 1.3160
 Frc consts  --      0.7516                 1.1334                 0.8093
 IR Inten    --      1.3185                35.4460                 1.6973

                     37                     38                     39
                      A                      A                      A
 Frequencies --   1041.6681              1056.1560              1058.1599
 Red. masses --      4.4464                 2.2842                 2.4213
 Frc consts  --      2.8426                 1.5012                 1.5974
 IR Inten    --     10.1199                16.4741                15.1872

                     40                     41                     42
                      A                      A                      A
 Frequencies --   1076.2250              1087.5068              1108.9350
 Red. masses --      2.3314                 1.5460                 2.3094
 Frc consts  --      1.5910                 1.0773                 1.6733
 IR Inten    --      3.3279                 1.3691                24.7872

                     43                     44                     45
                      A                      A                      A
 Frequencies --   1120.6452              1144.2167              1154.8654
 Red. masses --      2.0302                 2.5884                 2.0937
 Frc consts  --      1.5022                 1.9967                 1.6452
 IR Inten    --     10.1559                13.8743                 7.8357

                     46                     47                     48
                      A                      A                      A
 Frequencies --   1182.1947              1187.1935              1190.0625
 Red. masses --      1.4135                 1.5403                 1.2022
 Frc consts  --      1.1639                 1.2791                 1.0031
 IR Inten    --      4.9370                 5.3328                 1.6630

                     49                     50                     51
                      A                      A                      A
 Frequencies --   1210.4435              1245.0526              1251.8359
 Red. masses --      2.4167                 1.7497                 2.5616
 Frc consts  --      2.0862                 1.5981                 2.3651
 IR Inten    --     17.2678                 3.6851                 2.5060

                     52                     53                     54
                      A                      A                      A
 Frequencies --   1257.9857              1303.5360              1312.0859
 Red. masses --      2.0488                 1.2432                 1.1667
 Frc consts  --      1.9103                 1.2446                 1.1834
 IR Inten    --     11.5172                 3.1797                 5.0410

                     55                     56                     57
                      A                      A                      A
 Frequencies --   1345.4913              1361.1246              1366.8099
 Red. masses --      1.2744                 1.4336                 1.5810
 Frc consts  --      1.3593                 1.5649                 1.7402
 IR Inten    --      0.7040                11.8206                12.5127

                     58                     59                     60
                      A                      A                      A
 Frequencies --   1372.9329              1393.2945              1399.9674
 Red. masses --      1.3256                 1.3529                 1.4461
 Frc consts  --      1.4722                 1.5474                 1.6699
 IR Inten    --      0.6405                37.0072                 3.7051

                     61                     62                     63
                      A                      A                      A
 Frequencies --   1404.0655              1417.6099              1433.5116
 Red. masses --      1.4531                 1.4305                 1.8523
 Frc consts  --      1.6878                 1.6938                 2.2427
 IR Inten    --      2.3006                10.6254                14.0176

                     64                     65                     66
                      A                      A                      A
 Frequencies --   1439.8485              1453.5843              1477.5142
 Red. masses --      1.8248                 1.4283                 2.2269
 Frc consts  --      2.2289                 1.7780                 2.8642
 IR Inten    --      6.6773                10.9238                25.9171

                     67                     68                     69
                      A                      A                      A
 Frequencies --   1505.2600              1512.7405              1519.8263
 Red. masses --      1.0997                 1.0857                 1.0874
 Frc consts  --      1.4681                 1.4638                 1.4799
 IR Inten    --      0.7108                 7.6356                 1.7281

                     70                     71                     72
                      A                      A                      A
 Frequencies --   1523.3899              1527.6089              1538.6910
 Red. masses --      1.1056                 1.0858                 1.1024
 Frc consts  --      1.5118                 1.4929                 1.5378
 IR Inten    --      7.2343                 8.1361                 4.2455

                     73                     74                     75
                      A                      A                      A
 Frequencies --   1606.7741              1637.6260              1691.0059
 Red. masses --      5.5910                 5.5855                 1.0877
 Frc consts  --      8.5045                 8.8256                 1.8326
 IR Inten    --      2.8607                11.3596                55.1607

                     76                     77                     78
                      A                      A                      A
 Frequencies --   2928.1015              2978.0384              2995.4046
 Red. masses --      1.0722                 1.0733                 1.0814
 Frc consts  --      5.4160                 5.6082                 5.7167
 IR Inten    --     65.3559                34.2160                65.8308

                     79                     80                     81
                      A                      A                      A
 Frequencies --   3017.5313              3027.0267              3036.9803
 Red. masses --      1.0713                 1.0672                 1.0609
 Frc consts  --      5.7470                 5.7613                 5.7650
 IR Inten    --     18.5523                28.9898                28.4910

                     82                     83                     84
                      A                      A                      A
 Frequencies --   3040.1590              3066.0972              3076.8210
 Red. masses --      1.0623                 1.0870                 1.0939
 Frc consts  --      5.7846                 6.0210                 6.1014
 IR Inten    --     19.6537                59.5657                62.4045

                     85                     86                     87
                      A                      A                      A
 Frequencies --   3077.9263              3082.2282              3088.2763
 Red. masses --      1.0893                 1.1028                 1.1051
 Frc consts  --      6.0799                 6.1729                 6.2101
 IR Inten    --     34.9300                36.4960                79.3049

                     88                     89                     90
                      A                      A                      A
 Frequencies --   3107.0397              3192.7002              3209.6038
 Red. masses --      1.0926                 1.0882                 1.0942
 Frc consts  --      6.2144                 6.5352                 6.6412
 IR Inten    --     38.5463                 7.9095                21.8534

                     91                     92                     93
                      A                      A                      A
 Frequencies --   3232.9144              3465.6676              3551.0344
 Red. masses --      1.0945                 1.0497                 1.0920
 Frc consts  --      6.7400                 7.4284                 8.1134
 IR Inten    --      4.0668                10.7113                 4.3021

 - Thermochemistry -
 -------------------
 Temperature   298.150 Kelvin.  Pressure   1.00000 Atm.
 Atom     1 has atomic number  6 and mass  12.00000

 Molecular mass:   206.15315 amu.
 Principal axes and moments of inertia in atomic units:
                           1         2         3
     Eigenvalues --  1719.361284488.307225295.88495
           X            1.00000   0.00287   0.00073
           Y           -0.00286   0.99994  -0.01052
           Z           -0.00076   0.01052   0.99994
 This molecule is an asymmetric top.
 Rotational symmetry number  1.
 Warning -- assumption of classical behavior for rotation
           may cause significant error
 Rotational temperatures (Kelvin)      0.05038     0.01930     0.01635
 Rotational constants (GHZ):           1.04966     0.40210     0.34078
 Zero-point vibrational energy     765646.1 (Joules/Mol)
                                  182.99382 (Kcal/Mol)
 Warning -- explicit consideration of  19 degrees of freedom as
           vibrations may cause significant error
 Vibrational temperatures:     40.95    92.09   101.35   167.82   217.49
          (Kelvin)            268.65   305.68   366.16   369.22   423.43
                              440.18   464.00   494.50   551.19   602.01
                              649.54   669.33   717.03   789.94   897.19
                              933.22  1054.91  1086.88  1123.64  1167.25
                             1193.38  1227.51  1236.30  1262.70  1308.00
                             1327.11  1374.85  1397.11  1418.66  1444.10
                             1469.92  1498.73  1519.57  1522.46  1548.45
                             1564.68  1595.51  1612.36  1646.27  1661.59
                             1700.91  1708.11  1712.23  1741.56  1791.35
                             1801.11  1809.96  1875.50  1887.80  1935.86
                             1958.35  1966.53  1975.34  2004.64  2014.24
                             2020.14  2039.62  2062.50  2071.62  2091.38
                             2125.81  2165.73  2176.50  2186.69  2191.82
                             2197.89  2213.83  2311.79  2356.18  2432.98
                             4212.88  4284.73  4309.72  4341.55  4355.22
                             4369.54  4374.11  4411.43  4426.86  4428.45
                             4434.64  4443.34  4470.34  4593.58  4617.90
                             4651.44  4986.32  5109.15

 Zero-point correction=                           0.291619 (Hartree/Particle)
 Thermal correction to Energy=                    0.305178
 Thermal correction to Enthalpy=                  0.306123
 Thermal correction to Gibbs Free Energy=         0.250918
 Sum of electronic and zero-point Energies=           -648.736635
 Sum of electronic and thermal Energies=              -648.723076
 Sum of electronic and thermal Enthalpies=            -648.722132
 Sum of electronic and thermal Free Energies=         -648.777337

                     E (Thermal)             CV                S
                      KCal/Mol        Cal/Mol-Kelvin    Cal/Mol-Kelvin
 Total                  191.502             53.428            116.189
 Electronic               0.000              0.000              0.000
 Translational            0.889              2.981             41.874
 Rotational               0.889              2.981             32.080
 Vibrational            189.725             47.467             42.234
 Vibration     1          0.593              1.984              5.934
 Vibration     2          0.597              1.971              4.330
 Vibration     3          0.598              1.968              4.141
 Vibration     4          0.608              1.936              3.155
 Vibration     5          0.619              1.901              2.658
 Vibration     6          0.632              1.858              2.260
 Vibration     7          0.643              1.822              2.022
 Vibration     8          0.665              1.755              1.699
 Vibration     9          0.666              1.752              1.685
 Vibration    10          0.689              1.684              1.449
 Vibration    11          0.696              1.662              1.384
 Vibration    12          0.708              1.630              1.297
 Vibration    13          0.722              1.588              1.195
 Vibration    14          0.752              1.506              1.027
 Vibration    15          0.781              1.430              0.897
 Vibration    16          0.810              1.358              0.791
 Vibration    17          0.823              1.327              0.751
 Vibration    18          0.854              1.254              0.662
 Vibration    19          0.904              1.142              0.546

                           ! Non-Optimized Parameters !
 Normal termination of Gaussian 16 at Thu Dec 10 15:17:36 2020.

 ----------------------------------------------------------------------
 # B3LYP/6-311++G(d,p) empiricaldispersion=gd3bj scf=xqc pop=npa geom=c
 heck
 ----------------------------------------------------------------------

 --------------------------------------
 CID_90219882_JID_5210_Energie_neutraal
 --------------------------------------
 Structure from the checkpoint file:  "JID_5210.chk"
 Charge =  0 Multiplicity = 1

 SCF Done:  E(RB3LYP) =  -649.205985330     A.U. after   15 cycles
 Normal termination of Gaussian 16 at Thu Dec 10 15:23:39 2020.

 ----------------------------------------------------------------------
 # B3LYP/6-311++G(d,p) empiricaldispersion=gd3bj scf=xqc pop=npa geom=c
 heck
 ----------------------------------------------------------------------

 ------------------------------------
 CID_90219882_JID_5210_Energie_kation
 ------------------------------------
 Structure from the checkpoint file:  "JID_5210.chk"
 Charge =  1 Multiplicity = 2

 SCF Done:  E(UB3LYP) =  -648.928908907     A.U. after   26 cycles
 Normal termination of Gaussian 16 at Thu Dec 10 15:38:50 2020.
 Gaussian 16:  ES64L-G16RevA.03 25-Dec-2016

 ----------------------------------------------------------------------
 # B3LYP/6-311++G(d,p) empiricaldispersion=gd3bj scf=xqc pop=npa geom=c
 heck
 ----------------------------------------------------------------------

 -----------------------------------
 CID_90219882_JID_5210_Energie_anion
 -----------------------------------
 Structure from the checkpoint file:  "JID_5210.chk"
 Charge = -1 Multiplicity = 2

                         Standard orientation:
 ---------------------------------------------------------------------
 Center     Atomic      Atomic             Coordinates (Angstroms)
 Number     Number       Type             X           Y           Z
 ---------------------------------------------------------------------
      1          6           0       -3.619725   -0.898279    0.580464
      2          6           0       -2.305338   -1.222328    1.300271
      3          6           0       -1.270229   -0.123228    1.051035
      4          7           0       -1.050914    0.031433   -0.393671
      5          6           0       -2.272587    0.433383   -1.083967
      6          6           0       -3.359206   -0.630842   -0.906380
      7          6           0        0.134414    0.794964   -0.789227
      8          6           0        0.192157    2.285434   -0.391213
      9          7           0        0.360863    2.485795    1.048819
     10          6           0        1.388063    0.015615   -0.407947
     11          7           0        2.449926    0.713143    0.007399
     12          7           0        3.596832    0.093070    0.307034
     13          6           0        3.669757   -1.231142    0.186379
     14          6           0        2.598006   -2.027897   -0.235822
     15          6           0        1.417705   -1.383050   -0.542019
     16          1           0       -4.345621   -1.710843    0.705463
     17          1           0       -4.064860   -0.001179    1.034762
     18          1           0       -2.471948   -1.330154    2.379132
     19          1           0       -1.909042   -2.178054    0.931424
     20          1           0       -1.597461    0.820643    1.512454
     21          1           0       -0.316737   -0.378957    1.521708
     22          1           0       -2.041982    0.563600   -2.148371
     23          1           0       -2.656501    1.404577   -0.714311
     24          1           0       -3.023944   -1.555721   -1.393522
     25          1           0       -4.277681   -0.306343   -1.410995
     26          1           0        0.115582    0.794514   -1.891157
     27          1           0        0.979532    2.758160   -1.001914
     28          1           0       -0.759312    2.738943   -0.692264
     29          1           0        1.321989    2.236895    1.279326
     30          1           0        0.257658    3.476514    1.261661
     31          1           0        4.631575   -1.665504    0.446902
     32          1           0        2.702833   -3.106000   -0.314010
     33          1           0        0.520875   -1.900955   -0.862807
 ---------------------------------------------------------------------

 SCF Done:  E(UB3LYP) =  -649.203666782     A.U. after   33 cycles
 SCF Done:  E(UB3LYP) =  -649.203666782     a.u. after    1 cycles

 The electronic state is 2-A.
 Alpha  occ. eigenvalues --  -14.18619 -14.17975 -14.17310 -14.17015 -10.08304
 Alpha  occ. eigenvalues --  -10.08106 -10.07327 -10.07127 -10.06914 -10.06293
 Alpha  occ. eigenvalues --  -10.06231 -10.05876 -10.05694 -10.03980 -10.02719
 Alpha  occ. eigenvalues --   -0.85948  -0.81535  -0.76098  -0.69938  -0.67547
 Alpha  occ. eigenvalues --   -0.66548  -0.64227  -0.60305  -0.53534  -0.51693
 Alpha  occ. eigenvalues --   -0.50848  -0.50537  -0.46312  -0.43564  -0.39115
 Alpha  occ. eigenvalues --   -0.37739  -0.37182  -0.35855  -0.35181  -0.34249
 Alpha  occ. eigenvalues --   -0.33327  -0.32787  -0.30886  -0.29705  -0.28992
 Alpha  occ. eigenvalues --   -0.28062  -0.27554  -0.27016  -0.26369  -0.24674
 Alpha  occ. eigenvalues --   -0.24149  -0.23284  -0.22466  -0.20979  -0.20708
 Alpha  occ. eigenvalues --   -0.16175  -0.16105  -0.14226  -0.13358  -0.09406
 Alpha  occ. eigenvalues --   -0.08688   0.04905
 Alpha virt. eigenvalues --    0.06560   0.07840   0.08334   0.08535   0.09410
 Alpha virt. eigenvalues --    0.09939   0.10432   0.10985   0.11061   0.11628
 Alpha virt. eigenvalues --    0.12036   0.12671   0.13317   0.13921   0.14214

  Beta  occ. eigenvalues --  -14.18624 -14.17687 -14.17002 -14.16818 -10.08294
  Beta  occ. eigenvalues --  -10.08094 -10.07326 -10.07218 -10.06914 -10.06350
  Beta  occ. eigenvalues --  -10.06222 -10.05858 -10.05693 -10.03803 -10.02396
  Beta  occ. eigenvalues --   -0.85295  -0.81508  -0.76070  -0.69813  -0.67253
  Beta  occ. eigenvalues --   -0.66001  -0.64204  -0.60182  -0.53436  -0.51653
  Beta  occ. eigenvalues --   -0.50678  -0.50003  -0.46189  -0.43525  -0.39035
  Beta  occ. eigenvalues --   -0.37677  -0.37054  -0.35732  -0.35065  -0.34193
  Beta  occ. eigenvalues --   -0.33300  -0.32720  -0.30824  -0.29593  -0.28759
  Beta  occ. eigenvalues --   -0.27904  -0.27427  -0.26320  -0.26102  -0.24441
  Beta  occ. eigenvalues --   -0.24077  -0.23214  -0.22433  -0.20943  -0.20673
  Beta  occ. eigenvalues --   -0.15759  -0.14277  -0.13353  -0.12968  -0.09379
  Beta  occ. eigenvalues --   -0.08149
  Beta virt. eigenvalues --    0.06989   0.07976   0.08513   0.08572   0.09530
  Beta virt. eigenvalues --    0.10066   0.10398   0.10819   0.11031   0.11122
  Beta virt. eigenvalues --    0.11873   0.12061   0.12766   0.13265   0.13902

 Mulliken charges and spin densities:
               1          2
     1  C   -0.182645  -0.037483
     2  C   -0.320057  -0.088050
     3  C   -0.365011  -0.088161
     4  N    0.334922   0.017943
     5  C    0.032764  -0.109849
     6  C    0.503547  -0.921661
     7  C    0.316241  -0.245619
     8  C   -0.630997  -0.253277
     9  N   -0.359060  -0.008342
    10  C   -0.585064   0.075127
    11  N   -0.135107   0.136374
    12  N    0.006311   0.203786
    13  C   -0.362839   0.034190
    14  C   -0.182126  -0.093994
    15  C    0.021131   0.548375
    16  H   -0.112192   0.271004
    17  H    0.078403   0.028169
    18  H    0.109631   0.022654
    19  H    0.097847   0.023194
    20  H    0.139013   0.070318
    21  H    0.191862  -0.021680
    22  H   -0.177293   0.322471
    23  H    0.110785  -0.018159
    24  H    0.076561   0.047344
    25  H   -0.405757   0.563078
    26  H    0.000094   0.151497
    27  H    0.179197  -0.007644
    28  H   -0.054514   0.194230
    29  H    0.225830   0.017127
    30  H    0.153612   0.050626
    31  H    0.117930   0.018515
    32  H    0.094581   0.021528
    33  H    0.082400   0.076371
 Sum of Mulliken charges =  -1.00000   1.00000

 Dipole moment (field-independent basis, Debye):
    X=             -1.8934    Y=             -0.2271    Z=              1.2294  Tot=              2.2689
 Quadrupole moment (field-independent basis, Debye-Ang):
   XX=           -160.3252   YY=           -110.6956   ZZ=           -113.6003
   XY=             -4.9737   XZ=             -7.7647   YZ=             -1.1605

 Summary of Natural Population Analysis:

                                       Natural Population
                Natural  -----------------------------------------------
    Atom  No    Charge         Core      Valence    Rydberg      Total
 -----------------------------------------------------------------------
      C    1   -0.19117      0.99963     2.18218    0.00936     3.19117
      C    2   -0.19287      0.99962     2.18579    0.00745     3.19287
      C    3   -0.08671      0.99961     2.07748    0.00962     3.08671
      N    4   -0.28697      0.99970     2.77387    0.01340     3.78697
      C    5   -0.08158      0.99961     2.06958    0.01239     3.08158
      C    6   -0.19315      0.99963     2.18383    0.00969     3.19315
      C    7   -0.01431      0.99954     1.99977    0.01500     3.01431
      C    8   -0.09734      0.99961     2.08489    0.01283     3.09734
      N    9   -0.43036      0.99977     2.92106    0.00954     3.93036
      C   10    0.07298      0.99952     1.90898    0.01853     2.92702
      N   11   -0.12203      0.99967     2.60731    0.01506     3.62203
      N   12   -0.07148      0.99973     2.55595    0.01580     3.57148
      C   13   -0.01220      0.99961     1.99850    0.01408     3.01220
      C   14   -0.08117      0.99956     2.07292    0.00869     3.08117
      C   15   -0.05331      0.99950     2.04387    0.00994     3.05331
      H   16    0.09539      0.00000     0.40363    0.00098     0.40461
      H   17    0.09113      0.00000     0.40755    0.00132     0.40887
      H   18    0.09393      0.00000     0.40520    0.00087     0.40607
      H   19    0.09517      0.00000     0.40330    0.00153     0.40483
      H   20    0.08918      0.00000     0.40895    0.00187     0.41082
      H   21    0.10520      0.00000     0.39366    0.00114     0.39480
      H   22    0.09609      0.00000     0.40261    0.00130     0.40391
      H   23    0.07615      0.00000     0.42208    0.00177     0.42385
      H   24    0.09540      0.00000     0.40312    0.00149     0.40460
      H   25    0.09695      0.00000     0.40172    0.00133     0.40305
      H   26    0.09950      0.00000     0.39840    0.00209     0.40050
      H   27    0.08605      0.00000     0.41226    0.00169     0.41395
      H   28    0.08716      0.00000     0.41170    0.00113     0.41284
      H   29    0.18919      0.00000     0.30833    0.00248     0.31081
      H   30    0.16685      0.00000     0.33147    0.00168     0.33315
      H   31    0.08343      0.00000     0.41534    0.00123     0.41657
      H   32    0.09255      0.00000     0.40641    0.00105     0.40745
      H   33    0.10235      0.00000     0.39560    0.00205     0.39765
 =======================================================================
   * Total *   -0.00000     14.99430    40.79731    0.20839    56.00000

 Normal termination of Gaussian 16 at Thu Dec 10 15:58:04 2020.
