 Gaussian 16, Revision A.03,

 -----------------------------------------------------------
 # opt freq B3LYP/6-31G(d) empiricaldispersion=gd3bj scf=xqc
 -----------------------------------------------------------

 -----------------------------
 CID_57168057_JID_720_neutraal
 -----------------------------
 Symbolic Z-matrix:
 Charge =  0 Multiplicity = 1

 SCF Done:  E(RB3LYP) =  -572.670730139     A.U. after   14 cycles
 SCF Done:  E(RB3LYP) =  -572.678512392     A.U. after   13 cycles
 SCF Done:  E(RB3LYP) =  -572.679500817     A.U. after   12 cycles
 SCF Done:  E(RB3LYP) =  -572.679486035     A.U. after   12 cycles
 SCF Done:  E(RB3LYP) =  -572.679801335     A.U. after   12 cycles
 SCF Done:  E(RB3LYP) =  -572.680199846     A.U. after   11 cycles
 SCF Done:  E(RB3LYP) =  -572.680764551     A.U. after   14 cycles
 SCF Done:  E(RB3LYP) =  -572.681017155     A.U. after   11 cycles
 SCF Done:  E(RB3LYP) =  -572.681254205     A.U. after   11 cycles
 SCF Done:  E(RB3LYP) =  -572.681331222     A.U. after   11 cycles
 SCF Done:  E(RB3LYP) =  -572.681691735     A.U. after   10 cycles
 SCF Done:  E(RB3LYP) =  -572.681702814     A.U. after   10 cycles
 SCF Done:  E(RB3LYP) =  -572.681705648     A.U. after    8 cycles
 SCF Done:  E(RB3LYP) =  -572.681706231     A.U. after    8 cycles
 SCF Done:  E(RB3LYP) =  -572.681706375     A.U. after    8 cycles
 Optimization completed.
    -- Stationary point found.

 1\1\GINC-NODE203\FOpt\RB3LYP\6-31G(d)\C5H10O5\VSC10255\08-Dec-2020\0\\
 # opt freq B3LYP/6-31G(d) empiricaldispersion=gd3bj scf=xqc\\CID_57168
 057_JID_720_neutraal\\0,1\C,0.8065928306,-0.0321949102,0.5156227383\C,
 1.0479182809,-1.0685323263,-0.5714747241\O,1.5481836187,-2.2975349029,
 -0.0199179915\C,2.9285808942,-2.4874256751,-0.0575376096\C,3.318796927
 2,-2.9038679596,-1.5078557933\O,3.8836924375,-2.1435018279,-2.27282118
 24\O,2.9223541435,-4.1364624553,-1.8367462943\O,3.6637238687,-1.342144
 2796,0.2465604556\O,3.1441510424,-3.4931921444,0.8647657909\C,4.501259

 Normal termination of Gaussian 16 at Tue Dec  8 12:51:46 2020.

 --------------------------------------------------------------------
 #N Geom=AllCheck Guess=TCheck SCRF=Check GenChk RB3LYP/6-31G(d) Freq
 --------------------------------------------------------------------

 Structure from the checkpoint file:  "JID_720.chk"
 -----------------------------
 CID_57168057_JID_720_neutraal
 -----------------------------
 Charge =  0 Multiplicity = 1

 SCF Done:  E(RB3LYP) =  -572.681706375     A.U. after    1 cycles

  Exact polarizability:  77.533  -0.852  66.432  -2.041   0.761  61.479
 Approx polarizability:  91.466  -0.149  90.172  -3.996   7.218 100.886

                      1                      2                      3
                      A                      A                      A
 Frequencies --     45.4705                63.2476                95.1510
 Red. masses --      4.9624                 5.3136                 2.5772
 Frc consts  --      0.0060                 0.0125                 0.0137
 IR Inten    --      2.6399                 0.2725                 0.9286

                      4                      5                      6
                      A                      A                      A
 Frequencies --    112.5101               164.6837               201.1520
 Red. masses --      1.7737                 1.7905                 1.6851
 Frc consts  --      0.0132                 0.0286                 0.0402
 IR Inten    --      1.4403                 0.3844                 3.4694

                      7                      8                      9
                      A                      A                      A
 Frequencies --    208.6662               250.7091               280.7750
 Red. masses --      3.4860                 1.7448                 3.4824
 Frc consts  --      0.0894                 0.0646                 0.1618
 IR Inten    --      1.2119                 4.7408                 4.8942

                     10                     11                     12
                      A                      A                      A
 Frequencies --    341.0061               371.6988               406.8564
 Red. masses --      4.3980                 3.6627                 7.1284
 Frc consts  --      0.3013                 0.2981                 0.6952
 IR Inten    --     13.6283                16.9512                 4.9241

                     13                     14                     15
                      A                      A                      A
 Frequencies --    478.7580               496.9270               545.8933
 Red. masses --      4.0207                 1.7510                 2.1100
 Frc consts  --      0.5430                 0.2548                 0.3705
 IR Inten    --      2.1894                10.8085                38.8361

                     16                     17                     18
                      A                      A                      A
 Frequencies --    582.6989               645.3784               654.2880
 Red. masses --      2.4342                 2.0974                 2.5962
 Frc consts  --      0.4870                 0.5147                 0.6548
 IR Inten    --     42.2850                46.6815                50.0343

                     19                     20                     21
                      A                      A                      A
 Frequencies --    759.5059               781.5992               821.9936
 Red. masses --      3.8337                 4.1803                 1.3198
 Frc consts  --      1.3030                 1.5046                 0.5254
 IR Inten    --     19.7530                40.8036                 2.4671

                     22                     23                     24
                      A                      A                      A
 Frequencies --    913.0582              1031.1924              1044.9928
 Red. masses --      2.6066                 3.3734                 4.2119
 Frc consts  --      1.2803                 2.1135                 2.7099
 IR Inten    --      9.0275                57.4900                31.2249

                     25                     26                     27
                      A                      A                      A
 Frequencies --   1122.8286              1134.0030              1152.9002
 Red. masses --      2.3305                 3.8994                 4.7109
 Frc consts  --      1.7311                 2.9544                 3.6893
 IR Inten    --     45.6047               159.3115               145.2388

                     28                     29                     30
                      A                      A                      A
 Frequencies --   1190.8688              1191.7911              1212.8088
 Red. masses --      1.3099                 4.1322                 1.8871
 Frc consts  --      1.0945                 3.4581                 1.6354
 IR Inten    --     21.8904               543.7707               125.9742

                     31                     32                     33
                      A                      A                      A
 Frequencies --   1220.3501              1248.3548              1351.4198
 Red. masses --      2.0702                 1.9503                 1.1188
 Frc consts  --      1.8165                 1.7907                 1.2039
 IR Inten    --     49.7672                58.1237                22.1261

                     34                     35                     36
                      A                      A                      A
 Frequencies --   1369.1019              1420.5475              1444.9407
 Red. masses --      1.6752                 1.2309                 1.3250
 Frc consts  --      1.8501                 1.4635                 1.6299
 IR Inten    --    136.0656                 0.1813                24.0999

                     37                     38                     39
                      A                      A                      A
 Frequencies --   1467.8479              1500.8442              1514.4941
 Red. masses --      1.9986                 1.2022                 1.0448
 Frc consts  --      2.5371                 1.5956                 1.4120
 IR Inten    --     25.6498                11.1611                 3.4974

                     40                     41                     42
                      A                      A                      A
 Frequencies --   1524.1375              1529.7338              1538.3091
 Red. masses --      1.0629                 1.0616                 1.0538
 Frc consts  --      1.4547                 1.4637                 1.4693
 IR Inten    --      2.0445                 0.6078                 7.7996

                     43                     44                     45
                      A                      A                      A
 Frequencies --   1545.9139              1811.8327              3027.8915
 Red. masses --      1.0766                10.1507                 1.0445
 Frc consts  --      1.5159                19.6328                 5.6422
 IR Inten    --      3.4842               220.5948                49.0995

                     46                     47                     48
                      A                      A                      A
 Frequencies --   3056.3914              3059.8497              3104.1855
 Red. masses --      1.0465                 1.0521                 1.1056
 Frc consts  --      5.7599                 5.8036                 6.2766
 IR Inten    --     25.7800                27.8629                24.7191

                     49                     50                     51
                      A                      A                      A
 Frequencies --   3111.3099              3126.3480              3159.8259
 Red. masses --      1.0919                 1.0998                 1.1025
 Frc consts  --      6.2275                 6.3336                 6.4858
 IR Inten    --     34.0188                29.8050                21.6090

                     52                     53                     54
                      A                      A                      A
 Frequencies --   3167.5172              3642.8222              3672.3353
 Red. masses --      1.1031                 1.0650                 1.0641
 Frc consts  --      6.5206                 8.3270                 8.4550
 IR Inten    --     18.8066                88.5381                53.6996

 - Thermochemistry -
 -------------------
 Temperature   298.150 Kelvin.  Pressure   1.00000 Atm.
 Atom     1 has atomic number  6 and mass  12.00000

 Molecular mass:   150.05282 amu.
 Principal axes and moments of inertia in atomic units:
                           1         2         3
     Eigenvalues --   992.692021678.290162023.96089
           X            0.99934  -0.03639   0.00115
           Y            0.03641   0.99863  -0.03770
           Z            0.00023   0.03772   0.99929
 This molecule is an asymmetric top.
 Rotational symmetry number  1.
 Warning -- assumption of classical behavior for rotation
           may cause significant error
 Rotational temperatures (Kelvin)      0.08725     0.05161     0.04279
 Rotational constants (GHZ):           1.81803     1.07535     0.89169
 Zero-point vibrational energy     424194.1 (Joules/Mol)
                                  101.38483 (Kcal/Mol)
 Warning -- explicit consideration of  16 degrees of freedom as
           vibrations may cause significant error
 Vibrational temperatures:     65.42    91.00   136.90   161.88   236.94
          (Kelvin)            289.41   300.22   360.71   403.97   490.63
                              534.79   585.38   688.83   714.97   785.42
                              838.37   928.56   941.37  1092.76  1124.55
                             1182.67  1313.69  1483.66  1503.51  1615.50
                             1631.58  1658.77  1713.39  1714.72  1744.96
                             1755.81  1796.10  1944.39  1969.83  2043.85
                             2078.95  2111.91  2159.38  2179.02  2192.89
                             2200.95  2213.28  2224.23  2606.82  4356.46
                             4397.47  4402.44  4466.23  4476.48  4498.12
                             4546.28  4557.35  5241.21  5283.67

 Zero-point correction=                           0.161567 (Hartree/Particle)
 Thermal correction to Energy=                    0.172841
 Thermal correction to Enthalpy=                  0.173786
 Thermal correction to Gibbs Free Energy=         0.124170
 Sum of electronic and zero-point Energies=           -572.520139
 Sum of electronic and thermal Energies=              -572.508865
 Sum of electronic and thermal Enthalpies=            -572.507921
 Sum of electronic and thermal Free Energies=         -572.557537

                     E (Thermal)             CV                S
                      KCal/Mol        Cal/Mol-Kelvin    Cal/Mol-Kelvin
 Total                  108.460             39.896            104.426
 Electronic               0.000              0.000              0.000
 Translational            0.889              2.981             40.928
 Rotational               0.889              2.981             29.601
 Vibrational            106.682             33.934             33.897
 Vibration     1          0.595              1.979              5.005
 Vibration     2          0.597              1.972              4.353
 Vibration     3          0.603              1.953              3.551
 Vibration     4          0.607              1.939              3.225
 Vibration     5          0.623              1.886              2.495
 Vibration     6          0.638              1.838              2.123
 Vibration     7          0.642              1.827              2.055
 Vibration     8          0.663              1.762              1.726
 Vibration     9          0.680              1.709              1.529
 Vibration    10          0.721              1.594              1.207
 Vibration    11          0.743              1.530              1.073
 Vibration    12          0.772              1.455              0.938
 Vibration    13          0.835              1.297              0.713
 Vibration    14          0.852              1.257              0.666
 Vibration    15          0.901              1.149              0.553
 Vibration    16          0.940              1.069              0.480

 Optimization completed.
    -- Stationary point found.

 1\1\GINC-NODE203\Freq\RB3LYP\6-31G(d)\C5H10O5\VSC10255\08-Dec-2020\0\\
 #N Geom=AllCheck Guess=TCheck SCRF=Check GenChk RB3LYP/6-31G(d) Freq\\
 CID_57168057_JID_720_neutraal\\0,1\C,0.8065928306,-0.0321949102,0.5156
 227383\C,1.0479182809,-1.0685323263,-0.5714747241\O,1.5481836187,-2.29
 75349029,-0.0199179915\C,2.9285808942,-2.4874256751,-0.0575376096\C,3.
 3187969272,-2.9038679596,-1.5078557933\O,3.8836924375,-2.1435018279,-2
 .2728211824\O,2.9223541435,-4.1364624553,-1.8367462943\O,3.6637238687,
 -1.3421442796,0.2465604556\O,3.1441510424,-3.4931921444,0.8647657909\C

 Normal termination of Gaussian 16 at Tue Dec  8 13:08:41 2020.

 ----------------------------------------------------------------------
 # B3LYP/6-311++G(d,p) empiricaldispersion=gd3bj scf=xqc pop=npa geom=c
 heck
 ----------------------------------------------------------------------

 -------------------------------------
 CID_57168057_JID_720_Energie_neutraal
 -------------------------------------
 Structure from the checkpoint file:  "JID_720.chk"
 Charge =  0 Multiplicity = 1

 SCF Done:  E(RB3LYP) =  -572.871484661     A.U. after   13 cycles
 Normal termination of Gaussian 16 at Tue Dec  8 13:10:43 2020.

 ----------------------------------------------------------------------
 # B3LYP/6-311++G(d,p) empiricaldispersion=gd3bj scf=xqc pop=npa geom=c
 heck
 ----------------------------------------------------------------------

 -----------------------------------
 CID_57168057_JID_720_Energie_kation
 -----------------------------------
 Structure from the checkpoint file:  "JID_720.chk"
 Charge =  1 Multiplicity = 2

 SCF Done:  E(UB3LYP) =  -572.515700804     A.U. after   21 cycles
 Normal termination of Gaussian 16 at Tue Dec  8 13:17:05 2020.
 Gaussian 16:  ES64L-G16RevA.03 25-Dec-2016

 ----------------------------------
 CID_57168057_JID_720_Energie_anion
 ----------------------------------
 Structure from the checkpoint file:  "JID_720.chk"
 Charge = -1 Multiplicity = 2

                         Standard orientation:
 ---------------------------------------------------------------------
 Center     Atomic      Atomic             Coordinates (Angstroms)
 Number     Number       Type             X           Y           Z
 ---------------------------------------------------------------------
      1          6           0       -3.144623   -0.405845    0.056656
      2          6           0       -2.061708    0.571987   -0.373640
      3          8           0       -0.911967   -0.116650   -0.892102
      4          6           0        0.148941   -0.320165   -0.011178
      5          6           0        0.930984    1.021580    0.120140
      6          8           0        0.863620    1.718510    1.116225
      7          8           0        1.620540    1.349720   -0.975972
      8          8           0       -0.248127   -0.684967    1.274837
      9          8           0        0.890452   -1.314968   -0.618804
     10          6           0        2.067585   -1.697991    0.083182
     11          1           0       -3.406523   -1.067308   -0.775220
     12          1           0       -4.045890    0.137774    0.364930
     13          1           0       -2.795107   -1.018341    0.890925
     14          1           0       -2.409869    1.203901   -1.196802
     15          1           0       -1.774348    1.231674    0.453558
     16          1           0        2.018960    2.224954   -0.805578
     17          1           0       -0.078745    0.086920    1.848349
     18          1           0        2.798312   -0.877355    0.122913
     19          1           0        1.833018   -2.029603    1.099226
     20          1           0        2.496972   -2.523167   -0.486745
 ---------------------------------------------------------------------

 SCF Done:  E(UB3LYP) =  -572.857181117     A.U. after   33 cycles
 SCF Done:  E(UB3LYP) =  -572.857181117     a.u. after    1 cycles

 The electronic state is 2-A.
 Alpha  occ. eigenvalues --  -19.06931 -19.03882 -19.03710 -19.03425 -19.02773
 Alpha  occ. eigenvalues --  -10.23809 -10.21014 -10.12075 -10.11088 -10.06099
 Alpha  occ. eigenvalues --   -1.03097  -1.00038  -0.93774  -0.92490  -0.91369
 Alpha  occ. eigenvalues --   -0.67344  -0.61775  -0.58040  -0.53362  -0.49801
 Alpha  occ. eigenvalues --   -0.46099  -0.43165  -0.42926  -0.39238  -0.36542
 Alpha  occ. eigenvalues --   -0.35314  -0.33953  -0.33588  -0.32002  -0.31229
 Alpha  occ. eigenvalues --   -0.29432  -0.28649  -0.26744  -0.25020  -0.23779
 Alpha  occ. eigenvalues --   -0.23135  -0.22265  -0.21286  -0.18097  -0.16580
 Alpha  occ. eigenvalues --    0.04956
 Alpha virt. eigenvalues --    0.06892   0.07787   0.08253   0.09418   0.09882
 Alpha virt. eigenvalues --    0.10514   0.11240   0.12210   0.13500   0.13676
 Alpha virt. eigenvalues --    0.15472   0.15722   0.16718   0.17612   0.18276

  Beta  occ. eigenvalues --  -19.06837 -19.03866 -19.03706 -19.03415 -19.02744
  Beta  occ. eigenvalues --  -10.23795 -10.21008 -10.12052 -10.11046 -10.06081
  Beta  occ. eigenvalues --   -1.03040  -0.99959  -0.93708  -0.92471  -0.91317
  Beta  occ. eigenvalues --   -0.67308  -0.61720  -0.57924  -0.53289  -0.49717
  Beta  occ. eigenvalues --   -0.45996  -0.43117  -0.42886  -0.39166  -0.36503
  Beta  occ. eigenvalues --   -0.35271  -0.33900  -0.33538  -0.31937  -0.31183
  Beta  occ. eigenvalues --   -0.29396  -0.28598  -0.26712  -0.24987  -0.23745
  Beta  occ. eigenvalues --   -0.23052  -0.22226  -0.21257  -0.18066  -0.16518
  Beta virt. eigenvalues --    0.07276   0.08058   0.08345   0.09236   0.09727
  Beta virt. eigenvalues --    0.10550   0.10943   0.11677   0.12790   0.13814
  Beta virt. eigenvalues --    0.13893   0.15659   0.16114   0.16823   0.17639

 Mulliken charges and spin densities:
               1          2
     1  C   -0.066168  -0.407401
     2  C    0.323482  -0.208682
     3  O   -0.110905   0.055703
     4  C   -0.431562  -0.348351
     5  C    0.819675  -0.665390
     6  O   -0.220036   0.003866
     7  O   -0.180628   0.077747
     8  O   -0.172096   0.004498
     9  O   -0.140220   0.036993
    10  C    1.066427  -1.222153
    11  H    0.156168  -0.017629
    12  H   -0.319991   0.449160
    13  H   -0.018182   0.179859
    14  H   -0.395387   0.573951
    15  H    0.119722  -0.003358
    16  H   -0.812294   1.127311
    17  H    0.184039   0.086305
    18  H   -0.545270   0.701386
    19  H   -0.126307   0.283614
    20  H   -0.130466   0.292568
 Sum of Mulliken charges =  -1.00000   1.00000

 Dipole moment (field-independent basis, Debye):
    X=             -3.6029    Y=             -4.0094    Z=              2.1439  Tot=              5.8011
 Quadrupole moment (field-independent basis, Debye-Ang):
   XX=           -112.4563   YY=            -99.6100   ZZ=            -87.0347
   XY=             -6.2203   XZ=              3.7413   YZ=              4.5105

 Summary of Natural Population Analysis:

                                       Natural Population
                Natural  -----------------------------------------------
    Atom  No    Charge         Core      Valence    Rydberg      Total
 -----------------------------------------------------------------------
      C    1   -0.29790      0.99966     2.29218    0.00606     3.29790
      C    2   -0.01691      0.99958     2.00466    0.01268     3.01691
      O    3   -0.29120      0.99986     3.28205    0.00929     4.29120
      C    4    0.39270      0.99960     1.57980    0.02790     2.60730
      C    5    0.37887      0.99968     1.59476    0.02670     2.62113
      O    6   -0.31446      0.99987     3.30696    0.00763     4.31446
      O    7   -0.32526      0.99987     3.31671    0.00868     4.32526
      O    8   -0.37434      0.99988     3.36867    0.00579     4.37434
      O    9   -0.28571      0.99985     3.27643    0.00943     4.28571
      C   10   -0.10643      0.99960     2.09746    0.00937     3.10643
      H   11    0.09844      0.00000     0.40052    0.00104     0.40156
      H   12    0.09744      0.00000     0.40138    0.00118     0.40256
      H   13    0.10579      0.00000     0.39300    0.00120     0.39421
      H   14    0.08982      0.00000     0.40877    0.00140     0.41018
      H   15    0.08604      0.00000     0.41196    0.00200     0.41396
      H   16    0.25123      0.00000     0.19356    0.05521     0.24877
      H   17    0.24519      0.00000     0.25092    0.00388     0.25481
      H   18    0.08620      0.00000     0.41166    0.00213     0.41380
      H   19    0.08839      0.00000     0.41005    0.00155     0.41161
      H   20    0.09209      0.00000     0.40682    0.00109     0.40791
 =======================================================================
   * Total *   -0.00000      9.99744    29.80833    0.19423    40.00000

 Normal termination of Gaussian 16 at Tue Dec  8 13:23:58 2020.
