 Gaussian 16, Revision A.03,

 -----------------------------------------------------------
 # opt freq B3LYP/6-31G(d) empiricaldispersion=gd3bj scf=xqc
 -----------------------------------------------------------

 -----------------------------
 CID_83815204_JID_277_neutraal
 -----------------------------
 Symbolic Z-matrix:
 Charge =  0 Multiplicity = 1

 SCF Done:  E(RB3LYP) =  -499.660126068     A.U. after   14 cycles
 SCF Done:  E(RB3LYP) =  -499.662700665     A.U. after   12 cycles
 SCF Done:  E(RB3LYP) =  -499.662601191     A.U. after   12 cycles
 SCF Done:  E(RB3LYP) =  -499.663241011     A.U. after   11 cycles
 SCF Done:  E(RB3LYP) =  -499.663322625     A.U. after   10 cycles
 SCF Done:  E(RB3LYP) =  -499.663385743     A.U. after   11 cycles
 SCF Done:  E(RB3LYP) =  -499.663400630     A.U. after    9 cycles
 SCF Done:  E(RB3LYP) =  -499.663445053     A.U. after   11 cycles
 SCF Done:  E(RB3LYP) =  -499.663461190     A.U. after   11 cycles
 SCF Done:  E(RB3LYP) =  -499.663480675     A.U. after   11 cycles
 SCF Done:  E(RB3LYP) =  -499.663505662     A.U. after   11 cycles
 SCF Done:  E(RB3LYP) =  -499.663511274     A.U. after    9 cycles
 SCF Done:  E(RB3LYP) =  -499.663508029     A.U. after   11 cycles
 SCF Done:  E(RB3LYP) =  -499.663512426     A.U. after   10 cycles
 SCF Done:  E(RB3LYP) =  -499.663512495     A.U. after    7 cycles
 Optimization completed.
    -- Stationary point found.

 1\1\GINC-NODE110\FOpt\RB3LYP\6-31G(d)\C7H12O3\VSC10255\08-Dec-2020\0\\
 # opt freq B3LYP/6-31G(d) empiricaldispersion=gd3bj scf=xqc\\CID_83815
 204_JID_277_neutraal\\0,1\C,0.9448898386,-0.0542846067,-0.2401960727\O
 ,1.0369146339,0.5320872443,-1.524103744\C,1.8172944486,1.7095549019,-1
 .5610076498\C,1.1582674772,2.9251521671,-0.8950676853\C,2.0003396006,4
 .2034930664,-1.1410767725\C,1.2705107835,5.1625685558,-2.073881391\O,-
 0.0091515214,5.5207415432,-1.5235612938\C,-0.8304214378,4.4960919685,-
 1.1533546533\O,-1.9044008703,4.739707075,-0.6614270715\C,-0.285026708,

 Normal termination of Gaussian 16 at Tue Dec  8 10:23:34 2020.

 --------------------------------------------------------------------
 #N Geom=AllCheck Guess=TCheck SCRF=Check GenChk RB3LYP/6-31G(d) Freq
 --------------------------------------------------------------------

 Structure from the checkpoint file:  "JID_277.chk"
 -----------------------------
 CID_83815204_JID_277_neutraal
 -----------------------------
 Charge =  0 Multiplicity = 1

 SCF Done:  E(RB3LYP) =  -499.663512495     A.U. after    1 cycles

  Exact polarizability:  86.030   1.649  86.317  -0.837  -1.528  63.498
 Approx polarizability: 106.039  -1.730 126.564   1.679  -4.883  97.868

                      1                      2                      3
                      A                      A                      A
 Frequencies --     35.2249                68.2633               125.6965
 Red. masses --      3.5334                 3.0685                 3.4245
 Frc consts  --      0.0026                 0.0084                 0.0319
 IR Inten    --      2.8769                 1.5111                 1.9775

                      4                      5                      6
                      A                      A                      A
 Frequencies --    131.0121               177.2582               228.9907
 Red. masses --      1.9875                 2.4546                 1.7844
 Frc consts  --      0.0201                 0.0454                 0.0551
 IR Inten    --      1.2840                 1.6198                 4.8453

                      7                      8                      9
                      A                      A                      A
 Frequencies --    284.5274               345.4637               423.8262
 Red. masses --      3.3270                 2.2415                 2.4006
 Frc consts  --      0.1587                 0.1576                 0.2541
 IR Inten    --      2.7095                 1.0362                 4.9776

                     10                     11                     12
                      A                      A                      A
 Frequencies --    435.2810               450.8278               522.1923
 Red. masses --      2.6271                 3.6793                 3.3984
 Frc consts  --      0.2933                 0.4406                 0.5460
 IR Inten    --      4.2986                 6.1651                 2.4164

                     13                     14                     15
                      A                      A                      A
 Frequencies --    547.6727               580.7111               700.8208
 Red. masses --      3.4229                 2.8989                 3.6124
 Frc consts  --      0.6049                 0.5760                 1.0454
 IR Inten    --      5.6214                 3.6978                 5.9315

                     16                     17                     18
                      A                      A                      A
 Frequencies --    802.2386               854.1937               899.2786
 Red. masses --      3.1015                 3.1588                 2.1431
 Frc consts  --      1.1761                 1.3580                 1.0211
 IR Inten    --      4.4067                11.0369                 5.6382

                     19                     20                     21
                      A                      A                      A
 Frequencies --    920.3277               962.2580               972.6202
 Red. masses --      1.9408                 3.4823                 2.1550
 Frc consts  --      0.9686                 1.8998                 1.2011
 IR Inten    --      3.0035                21.5995                 6.9995

                     22                     23                     24
                      A                      A                      A
 Frequencies --   1038.7045              1042.1794              1106.6871
 Red. masses --      2.1840                 2.0156                 4.2341
 Frc consts  --      1.3883                 1.2899                 3.0554
 IR Inten    --     14.3244                16.8429                72.1711

                     25                     26                     27
                      A                      A                      A
 Frequencies --   1130.2735              1137.9685              1150.7782
 Red. masses --      2.0916                 3.0961                 2.2791
 Frc consts  --      1.5743                 2.3622                 1.7783
 IR Inten    --     17.6356                 1.6689               146.6917

                     28                     29                     30
                      A                      A                      A
 Frequencies --   1179.9368              1191.8989              1230.7871
 Red. masses --      2.2888                 1.3014                 1.7861
 Frc consts  --      1.8775                 1.0892                 1.5941
 IR Inten    --     17.1625                 4.0556               120.3050

                     31                     32                     33
                      A                      A                      A
 Frequencies --   1264.2074              1270.1400              1294.5678
 Red. masses --      1.3425                 1.5047                 1.3595
 Frc consts  --      1.2641                 1.4302                 1.3424
 IR Inten    --     26.8042                18.4006                54.3747

                     34                     35                     36
                      A                      A                      A
 Frequencies --   1314.5120              1346.8119              1361.6177
 Red. masses --      1.3515                 1.1884                 1.3862
 Frc consts  --      1.3760                 1.2701                 1.5142
 IR Inten    --     37.0587                 3.8488                11.4313

                     37                     38                     39
                      A                      A                      A
 Frequencies --   1382.4059              1400.2697              1429.3111
 Red. masses --      1.3069                 1.4437                 1.3695
 Frc consts  --      1.4715                 1.6678                 1.6484
 IR Inten    --      7.5168                 5.5347                 0.5303

                     40                     41                     42
                      A                      A                      A
 Frequencies --   1430.9708              1498.5872              1500.5328
 Red. masses --      1.3346                 1.0880                 1.1183
 Frc consts  --      1.6101                 1.4397                 1.4835
 IR Inten    --     33.1916                10.1875                 1.1110

                     43                     44                     45
                      A                      A                      A
 Frequencies --   1516.1214              1519.7694              1523.6361
 Red. masses --      1.0876                 1.0716                 1.0891
 Frc consts  --      1.4730                 1.4583                 1.4896
 IR Inten    --      1.9038                 3.9984                 1.4364

                     46                     47                     48
                      A                      A                      A
 Frequencies --   1539.1140              1547.9203              1864.0620
 Red. masses --      1.0610                 1.0876                12.0089
 Frc consts  --      1.4809                 1.5353                24.5851
 IR Inten    --      5.3252                 4.8191               354.8251

                     49                     50                     51
                      A                      A                      A
 Frequencies --   2981.2038              3000.9706              3038.3815
 Red. masses --      1.0669                 1.0400                 1.0726
 Frc consts  --      5.5868                 5.5181                 5.8339
 IR Inten    --     53.1992                52.2802                 3.9307

                     52                     53                     54
                      A                      A                      A
 Frequencies --   3046.4672              3048.8868              3053.1001
 Red. masses --      1.0711                 1.0952                 1.0715
 Frc consts  --      5.8571                 5.9984                 5.8849
 IR Inten    --     29.1094                34.2971                54.2334

                     55                     56                     57
                      A                      A                      A
 Frequencies --   3063.2060              3079.9896              3104.1728
 Red. masses --      1.0860                 1.0940                 1.0982
 Frc consts  --      6.0041                 6.1144                 6.2347
 IR Inten    --      1.1779                46.3748                36.7609

                     58                     59                     60
                      A                      A                      A
 Frequencies --   3137.3956              3142.3225              3163.8999
 Red. masses --      1.0977                 1.0973                 1.0921
 Frc consts  --      6.3659                 6.3840                 6.4411
 IR Inten    --     32.5092                30.0487                 6.3880

 - Thermochemistry -
 -------------------
 Temperature   298.150 Kelvin.  Pressure   1.00000 Atm.
 Atom     1 has atomic number  6 and mass  12.00000

 Molecular mass:   144.07864 amu.
 Principal axes and moments of inertia in atomic units:
                           1         2         3
     Eigenvalues --   771.555122174.352542709.54019
           X            0.99933   0.03344  -0.01462
           Y           -0.03346   0.99944  -0.00145
           Z            0.01456   0.00194   0.99989
 This molecule is an asymmetric top.
 Rotational symmetry number  1.
 Warning -- assumption of classical behavior for rotation
           may cause significant error
 Rotational temperatures (Kelvin)      0.11226     0.03983     0.03197
 Rotational constants (GHZ):           2.33910     0.83001     0.66607
 Zero-point vibrational energy     499694.8 (Joules/Mol)
                                  119.42993 (Kcal/Mol)
 Warning -- explicit consideration of  14 degrees of freedom as
           vibrations may cause significant error
 Vibrational temperatures:     50.68    98.22   180.85   188.50   255.03
          (Kelvin)            329.47   409.37   497.05   609.79   626.27
                              648.64   751.32   787.98   835.51  1008.32
                             1154.24  1228.99  1293.86  1324.15  1384.47
                             1399.38  1494.46  1499.46  1592.28  1626.21
                             1637.28  1655.71  1697.67  1714.88  1770.83
                             1818.91  1827.45  1862.59  1891.29  1937.76
                             1959.06  1988.97  2014.68  2056.46  2058.85
                             2156.13  2158.93  2181.36  2186.61  2192.17
                             2214.44  2227.11  2681.97  4289.29  4317.73
                             4371.55  4383.19  4386.67  4392.73  4407.27
                             4431.42  4466.21  4514.01  4521.10  4552.15

 Zero-point correction=                           0.190324 (Hartree/Particle)
 Thermal correction to Energy=                    0.200270
 Thermal correction to Enthalpy=                  0.201215
 Thermal correction to Gibbs Free Energy=         0.153977
 Sum of electronic and zero-point Energies=           -499.473189
 Sum of electronic and thermal Energies=              -499.463242
 Sum of electronic and thermal Enthalpies=            -499.462298
 Sum of electronic and thermal Free Energies=         -499.509535

                     E (Thermal)             CV                S
                      KCal/Mol        Cal/Mol-Kelvin    Cal/Mol-Kelvin
 Total                  125.672             36.239             99.419
 Electronic               0.000              0.000              0.000
 Translational            0.889              2.981             40.807
 Rotational               0.889              2.981             29.898
 Vibrational            123.894             30.277             28.715
 Vibration     1          0.594              1.982              5.511
 Vibration     2          0.598              1.969              4.203
 Vibration     3          0.611              1.927              3.011
 Vibration     4          0.612              1.922              2.931
 Vibration     5          0.628              1.870              2.357
 Vibration     6          0.652              1.797              1.887
 Vibration     7          0.683              1.702              1.506
 Vibration     8          0.724              1.584              1.187
 Vibration     9          0.786              1.418              0.879
 Vibration    10          0.796              1.393              0.842
 Vibration    11          0.810              1.359              0.793
 Vibration    12          0.877              1.201              0.605
 Vibration    13          0.903              1.145              0.549
 Vibration    14          0.937              1.073              0.484

                           ! Non-Optimized Parameters !

 1\1\GINC-NODE110\Freq\RB3LYP\6-31G(d)\C7H12O3\VSC10255\08-Dec-2020\0\\
 #N Geom=AllCheck Guess=TCheck SCRF=Check GenChk RB3LYP/6-31G(d) Freq\\
 CID_83815204_JID_277_neutraal\\0,1\C,0.9448898386,-0.0542846067,-0.240
 1960727\O,1.0369146339,0.5320872443,-1.524103744\C,1.8172944486,1.7095
 549019,-1.5610076498\C,1.1582674772,2.9251521671,-0.8950676853\C,2.000
 3396006,4.2034930664,-1.1410767725\C,1.2705107835,5.1625685558,-2.0738
 81391\O,-0.0091515214,5.5207415432,-1.5235612938\C,-0.8304214378,4.496
 0919685,-1.1533546533\O,-1.9044008703,4.739707075,-0.6614270715\C,-0.2

 Normal termination of Gaussian 16 at Tue Dec  8 10:27:34 2020.

 ----------------------------------------------------------------------
 # B3LYP/6-311++G(d,p) empiricaldispersion=gd3bj scf=xqc pop=npa geom=c
 heck
 ----------------------------------------------------------------------

 -------------------------------------
 CID_83815204_JID_277_Energie_neutraal
 -------------------------------------
 Structure from the checkpoint file:  "JID_277.chk"
 Charge =  0 Multiplicity = 1

 SCF Done:  E(RB3LYP) =  -499.812666473     A.U. after   13 cycles
 Normal termination of Gaussian 16 at Tue Dec  8 10:29:11 2020.

 ----------------------------------------------------------------------
 # B3LYP/6-311++G(d,p) empiricaldispersion=gd3bj scf=xqc pop=npa geom=c
 heck
 ----------------------------------------------------------------------

 -----------------------------------
 CID_83815204_JID_277_Energie_kation
 -----------------------------------
 Structure from the checkpoint file:  "JID_277.chk"
 Charge =  1 Multiplicity = 2

 SCF Done:  E(UB3LYP) =  -499.471450312     A.U. after   21 cycles
 Normal termination of Gaussian 16 at Tue Dec  8 10:33:16 2020.
 Gaussian 16:  ES64L-G16RevA.03 25-Dec-2016

 ----------------------------------
 CID_83815204_JID_277_Energie_anion
 ----------------------------------
 Structure from the checkpoint file:  "JID_277.chk"
 Charge = -1 Multiplicity = 2

                         Standard orientation:
 ---------------------------------------------------------------------
 Center     Atomic      Atomic             Coordinates (Angstroms)
 Number     Number       Type             X           Y           Z
 ---------------------------------------------------------------------
      1          6           0        3.250547    0.777422   -0.443578
      2          8           0        2.593232    0.175941    0.655001
      3          6           0        1.708156   -0.864374    0.292829
      4          6           0        0.423867   -0.388504   -0.399716
      5          6           0       -0.559287   -1.571282   -0.595180
      6          6           0       -1.782345   -1.413615    0.300292
      7          8           0       -2.452226   -0.172083    0.020055
      8          6           0       -1.690878    0.959761    0.046922
      9          8           0       -2.196029    2.025222   -0.206826
     10          6           0       -0.236002    0.747696    0.414466
     11          1           0        3.991359    1.465915   -0.030174
     12          1           0        2.562557    1.346797   -1.085494
     13          1           0        3.765317    0.026632   -1.063730
     14          1           0        2.220553   -1.602308   -0.348390
     15          1           0        1.445553   -1.364874    1.233283
     16          1           0        0.681258    0.012161   -1.386192
     17          1           0       -0.901318   -1.617261   -1.634115
     18          1           0       -0.072533   -2.530749   -0.376985
     19          1           0       -2.527064   -2.189825    0.113668
     20          1           0       -1.509206   -1.453305    1.363024
     21          1           0        0.289500    1.694035    0.289278
     22          1           0       -0.190143    0.497519    1.483777
 ---------------------------------------------------------------------

 SCF Done:  E(UB3LYP) =  -499.801264442     A.U. after   31 cycles

 The electronic state is 2-A.
 Alpha  occ. eigenvalues --  -19.06508 -19.02835 -19.00917 -10.20229 -10.13114
 Alpha  occ. eigenvalues --  -10.11717 -10.11108 -10.08841 -10.08762 -10.07765
 Alpha  occ. eigenvalues --   -1.00289  -0.94131  -0.92522  -0.72799  -0.66209
 Alpha  occ. eigenvalues --   -0.62899  -0.58318  -0.54638  -0.49573  -0.43947
 Alpha  occ. eigenvalues --   -0.42146  -0.40808  -0.39794  -0.37649  -0.36497
 Alpha  occ. eigenvalues --   -0.35317  -0.33821  -0.32727  -0.31194  -0.29548
 Alpha  occ. eigenvalues --   -0.28408  -0.27746  -0.26368  -0.25179  -0.23499
 Alpha  occ. eigenvalues --   -0.21442  -0.19847  -0.17838  -0.16222   0.04462
 Alpha virt. eigenvalues --    0.06679   0.07797   0.08631   0.09276   0.09923
 Alpha virt. eigenvalues --    0.10181   0.10737   0.11500   0.12224   0.12914
 Alpha virt. eigenvalues --    0.13769   0.14383   0.14629   0.16385   0.16762

  Beta  occ. eigenvalues --  -19.06505 -19.02826 -19.00914 -10.20228 -10.13076
  Beta  occ. eigenvalues --  -10.11685 -10.11058 -10.08829 -10.08747 -10.07728
  Beta  occ. eigenvalues --   -1.00282  -0.94106  -0.92516  -0.72758  -0.66158
  Beta  occ. eigenvalues --   -0.62842  -0.58254  -0.54569  -0.49501  -0.43872
  Beta  occ. eigenvalues --   -0.42111  -0.40753  -0.39747  -0.37613  -0.36458
  Beta  occ. eigenvalues --   -0.35274  -0.33781  -0.32694  -0.31148  -0.29499
  Beta  occ. eigenvalues --   -0.28375  -0.27702  -0.26327  -0.25132  -0.23462
  Beta  occ. eigenvalues --   -0.21392  -0.19823  -0.17823  -0.16191
  Beta virt. eigenvalues --    0.07121   0.07929   0.08560   0.09371   0.09823
  Beta virt. eigenvalues --    0.10255   0.10825   0.11513   0.12065   0.12682
  Beta virt. eigenvalues --    0.13407   0.13942   0.14748   0.15179   0.16544

 Mulliken charges and spin densities:
               1          2
     1  C    1.056241  -1.330865
     2  O   -0.184373   0.089580
     3  C    1.513869  -2.264350
     4  C   -1.462750   2.052617
     5  C    0.285235  -0.759703
     6  C    1.076478  -1.604237
     7  O   -0.143278   0.058959
     8  C   -0.482770   0.491966
     9  O   -0.305455  -0.006005
    10  C    0.504020  -0.771271
    11  H   -0.190910   0.349651
    12  H   -0.266867   0.402485
    13  H   -0.509922   0.644098
    14  H   -0.204840   0.368376
    15  H   -0.184191   0.382774
    16  H   -0.099831   0.310948
    17  H   -0.213210   0.416108
    18  H   -0.854394   1.030684
    19  H   -0.481453   0.699263
    20  H   -0.194272   0.358998
    21  H    0.288816  -0.090095
    22  H    0.053857   0.170019
 Sum of Mulliken charges =  -1.00000   1.00000

 Dipole moment (field-independent basis, Debye):
    X=             -1.2924    Y=              3.2147    Z=              1.9068  Tot=              3.9548
 Quadrupole moment (field-independent basis, Debye-Ang):
   XX=           -123.4565   YY=           -112.4375   ZZ=            -89.4933
   XY=              1.5844   XZ=              2.3258   YZ=              0.6905

 Summary of Natural Population Analysis:

                                       Natural Population
                Natural  -----------------------------------------------
    Atom  No    Charge         Core      Valence    Rydberg      Total
 -----------------------------------------------------------------------
      C    1   -0.09931      0.99961     2.09016    0.00954     3.09931
      O    2   -0.29998      0.99989     3.28952    0.01057     4.29998
      C    3   -0.00327      0.99955     1.98919    0.01453     3.00327
      C    4   -0.12477      0.99959     2.11433    0.01085     3.12477
      C    5   -0.20464      0.99961     2.19467    0.01036     3.20464
      C    6   -0.01473      0.99957     2.00149    0.01367     3.01473
      O    7   -0.27900      0.99986     3.27100    0.00814     4.27900
      C    8    0.40995      0.99967     1.56504    0.02533     2.59005
      O    9   -0.29841      0.99986     3.29234    0.00620     4.29841
      C   10   -0.24785      0.99957     2.24020    0.00808     3.24785
      H   11    0.09013      0.00000     0.40863    0.00124     0.40987
      H   12    0.07857      0.00000     0.41984    0.00160     0.42143
      H   13    0.08249      0.00000     0.41543    0.00208     0.41751
      H   14    0.08568      0.00000     0.41193    0.00239     0.41432
      H   15    0.08997      0.00000     0.40799    0.00204     0.41003
      H   16    0.10149      0.00000     0.39656    0.00195     0.39851
      H   17    0.10510      0.00000     0.39309    0.00182     0.39490
      H   18    0.11149      0.00000     0.38382    0.00469     0.38851
      H   19    0.10026      0.00000     0.39758    0.00216     0.39974
      H   20    0.08539      0.00000     0.41274    0.00187     0.41461
      H   21    0.11904      0.00000     0.37993    0.00103     0.38096
      H   22    0.11239      0.00000     0.38612    0.00149     0.38761
 =======================================================================
   * Total *    0.00000      9.99678    28.86160    0.14162    39.00000

 Normal termination of Gaussian 16 at Tue Dec  8 10:42:40 2020.
