 Gaussian 16, Revision A.03,

 -----------------------------------------------------------
 # opt freq B3LYP/6-31G(d) empiricaldispersion=gd3bj scf=xqc
 -----------------------------------------------------------

 ------------------------------
 CID_54477048_JID_4558_neutraal
 ------------------------------
 Symbolic Z-matrix:
 Charge =  0 Multiplicity = 1

 SCF Done:  E(RB3LYP) =  -611.148115738     A.U. after   14 cycles
 SCF Done:  E(RB3LYP) =  -611.154321676     A.U. after   12 cycles
 SCF Done:  E(RB3LYP) =  -611.154990047     A.U. after   12 cycles
 SCF Done:  E(RB3LYP) =  -611.155199869     A.U. after   11 cycles
 SCF Done:  E(RB3LYP) =  -611.155287270     A.U. after   10 cycles
 SCF Done:  E(RB3LYP) =  -611.155328575     A.U. after   10 cycles
 SCF Done:  E(RB3LYP) =  -611.155348799     A.U. after   10 cycles
 SCF Done:  E(RB3LYP) =  -611.155351912     A.U. after    8 cycles
 SCF Done:  E(RB3LYP) =  -611.155353278     A.U. after    8 cycles
 SCF Done:  E(RB3LYP) =  -611.155353725     A.U. after    8 cycles
 SCF Done:  E(RB3LYP) =  -611.155354047     A.U. after    7 cycles
 SCF Done:  E(RB3LYP) =  -611.155354120     A.U. after    7 cycles
 Optimization completed.
    -- Stationary point found.
 Normal termination of Gaussian 16 at Thu Dec 10 10:03:06 2020.

 --------------------------------------------------------------------
 #N Geom=AllCheck Guess=TCheck SCRF=Check GenChk RB3LYP/6-31G(d) Freq
 --------------------------------------------------------------------

 Structure from the checkpoint file:  "JID_4558.chk"
 ------------------------------
 CID_54477048_JID_4558_neutraal
 ------------------------------
 Charge =  0 Multiplicity = 1

 SCF Done:  E(RB3LYP) =  -611.155354120     A.U. after    1 cycles

  Exact polarizability: 160.897  -6.352 141.083 -14.312   2.405  68.435
 Approx polarizability: 245.240 -10.864 243.174 -31.510   7.079 104.327

                      1                      2                      3
                      A                      A                      A
 Frequencies --     53.3238                87.6454               139.2219
 Red. masses --      4.3586                 4.0414                 2.5513
 Frc consts  --      0.0073                 0.0183                 0.0291
 IR Inten    --      0.8506                 0.8816                 2.6471

                      4                      5                      6
                      A                      A                      A
 Frequencies --    205.1655               221.7016               242.4592
 Red. masses --      4.2314                 2.4605                 1.5651
 Frc consts  --      0.1049                 0.0713                 0.0542
 IR Inten    --      1.7019                36.7341                32.0958

                      7                      8                      9
                      A                      A                      A
 Frequencies --    270.2953               327.4943               378.7593
 Red. masses --      2.6286                 3.6977                 4.6939
 Frc consts  --      0.1132                 0.2337                 0.3967
 IR Inten    --      5.6088                 3.2069                 2.5728

                     10                     11                     12
                      A                      A                      A
 Frequencies --    410.8549               429.6582               462.5146
 Red. masses --      3.0011                 3.8054                 4.4892
 Frc consts  --      0.2985                 0.4139                 0.5658
 IR Inten    --      0.8536                 1.1723                 7.1993

                     13                     14                     15
                      A                      A                      A
 Frequencies --    534.9445               553.7628               583.9857
 Red. masses --      5.7203                 4.3026                 4.6183
 Frc consts  --      0.9645                 0.7774                 0.9280
 IR Inten    --      0.0911                 1.0723                 3.6607

                     16                     17                     18
                      A                      A                      A
 Frequencies --    602.0612               633.5556               673.6479
 Red. masses --      4.9651                 4.5230                 5.9444
 Frc consts  --      1.0604                 1.0697                 1.5894
 IR Inten    --      9.9297                 3.0217                 1.8764

                     19                     20                     21
                      A                      A                      A
 Frequencies --    700.8699               722.1593               751.2505
 Red. masses --      3.9595                 1.3564                 1.5456
 Frc consts  --      1.1459                 0.4168                 0.5140
 IR Inten    --      2.2047                41.7361                13.5716

                     22                     23                     24
                      A                      A                      A
 Frequencies --    756.6036               796.5070               833.9232
 Red. masses --      2.6741                 2.8348                 2.5266
 Frc consts  --      0.9019                 1.0596                 1.0352
 IR Inten    --     13.7270                30.8457                10.5975

                     25                     26                     27
                      A                      A                      A
 Frequencies --    835.6604               864.0155               870.0547
 Red. masses --      1.3589                 2.6706                 1.3964
 Frc consts  --      0.5591                 1.1746                 0.6228
 IR Inten    --      1.4432                46.2490                 1.4926

                     28                     29                     30
                      A                      A                      A
 Frequencies --    884.0903               942.6470               956.8997
 Red. masses --      1.7570                 1.2291                 1.9646
 Frc consts  --      0.8091                 0.6435                 1.0599
 IR Inten    --    109.6788                 0.6203                 3.9956

                     31                     32                     33
                      A                      A                      A
 Frequencies --   1000.9091              1033.1254              1062.5943
 Red. masses --      2.0504                 2.8636                 2.2376
 Frc consts  --      1.2103                 1.8008                 1.4886
 IR Inten    --      6.2698                19.6864                 8.8876

                     34                     35                     36
                      A                      A                      A
 Frequencies --   1076.0857              1080.6433              1106.0467
 Red. masses --      1.9477                 3.1134                 1.6255
 Frc consts  --      1.3288                 2.1421                 1.1716
 IR Inten    --     38.9057                 6.5385                18.3119

                     37                     38                     39
                      A                      A                      A
 Frequencies --   1146.7724              1158.4837              1193.1211
 Red. masses --      2.5319                 2.0957                 1.3598
 Frc consts  --      1.9618                 1.6572                 1.1405
 IR Inten    --      7.0822                 1.9681                 0.9117

                     40                     41                     42
                      A                      A                      A
 Frequencies --   1199.8244              1230.9914              1281.9596
 Red. masses --      1.2812                 1.5849                 3.2263
 Frc consts  --      1.0867                 1.4150                 3.1239
 IR Inten    --      6.1640                36.4362               114.4097

                     43                     44                     45
                      A                      A                      A
 Frequencies --   1286.3997              1305.9416              1342.7887
 Red. masses --      1.3492                 1.4307                 1.4366
 Frc consts  --      1.3154                 1.4376                 1.5262
 IR Inten    --      1.2209                 3.2230                15.2318

                     46                     47                     48
                      A                      A                      A
 Frequencies --   1354.9954              1380.3242              1383.4472
 Red. masses --      2.1984                 2.8894                 1.2032
 Frc consts  --      2.3781                 3.2435                 1.3568
 IR Inten    --    113.6746                 3.6260                 7.1393

                     49                     50                     51
                      A                      A                      A
 Frequencies --   1408.0308              1410.7413              1435.0106
 Red. masses --      1.6476                 3.9572                 2.4931
 Frc consts  --      1.9245                 4.6402                 3.0248
 IR Inten    --      3.9677                14.6787                17.0251

                     52                     53                     54
                      A                      A                      A
 Frequencies --   1445.7669              1502.1679              1525.7914
 Red. masses --      1.7476                 3.0311                 1.0889
 Frc consts  --      2.1523                 4.0298                 1.4935
 IR Inten    --     11.4891                24.5937                 0.3908

                     55                     56                     57
                      A                      A                      A
 Frequencies --   1530.6018              1535.5103              1562.0217
 Red. masses --      1.2792                 2.8091                 3.8599
 Frc consts  --      1.7657                 3.9023                 5.5487
 IR Inten    --      7.5129                77.2009                 8.3556

                     58                     59                     60
                      A                      A                      A
 Frequencies --   1641.8834              1688.3527              1705.0384
 Red. masses --      6.8265                 8.6564                 1.0883
 Frc consts  --     10.8427                14.5382                 1.8641
 IR Inten    --     42.9156                20.9232                33.1002

                     61                     62                     63
                      A                      A                      A
 Frequencies --   3018.6018              3054.6868              3080.7349
 Red. masses --      1.0687                 1.0703                 1.0849
 Frc consts  --      5.7373                 5.8844                 6.0664
 IR Inten    --     33.7360                31.2150                37.4514

                     64                     65                     66
                      A                      A                      A
 Frequencies --   3099.5217              3161.2850              3186.5828
 Red. masses --      1.0965                 1.0972                 1.0862
 Frc consts  --      6.2063                 6.4604                 6.4986
 IR Inten    --     30.0465                19.8881                 6.5123

                     67                     68                     69
                      A                      A                      A
 Frequencies --   3204.6497              3218.4145              3254.5980
 Red. masses --      1.0928                 1.0934                 1.0894
 Frc consts  --      6.6121                 6.6728                 6.7987
 IR Inten    --     29.7857                12.1267                 1.5152

                     70                     71                     72
                      A                      A                      A
 Frequencies --   3272.8042              3487.2874              3569.1474
 Red. masses --      1.1026                 1.0505                 1.0926
 Frc consts  --      6.9583                 7.5272                 8.2007
 IR Inten    --      6.5605                 0.4028                 0.5250

 - Thermochemistry -
 -------------------
 Temperature   298.150 Kelvin.  Pressure   1.00000 Atm.
 Atom     1 has atomic number  6 and mass  12.00000

 Molecular mass:   188.09496 amu.
 Principal axes and moments of inertia in atomic units:
                           1         2         3
     Eigenvalues --  1441.837232886.284913883.46480
           X            0.99999  -0.00350   0.00264
           Y            0.00350   0.99999  -0.00101
           Z           -0.00264   0.00102   1.00000
 This molecule is an asymmetric top.
 Rotational symmetry number  1.
 Warning -- assumption of classical behavior for rotation
           may cause significant error
 Rotational temperatures (Kelvin)      0.06007     0.03001     0.02230
 Rotational constants (GHZ):           1.25170     0.62528     0.46472
 Zero-point vibrational energy     570316.2 (Joules/Mol)
                                  136.30884 (Kcal/Mol)
 Warning -- explicit consideration of  16 degrees of freedom as
           vibrations may cause significant error
 Vibrational temperatures:     76.72   126.10   200.31   295.19   318.98
          (Kelvin)            348.84   388.89   471.19   544.95   591.13
                              618.18   665.46   769.67   796.74   840.23
                              866.23   911.55   969.23  1008.40  1039.03
                             1080.88  1088.58  1146.00  1199.83  1202.33
                             1243.13  1251.81  1272.01  1356.26  1376.77
                             1440.09  1486.44  1528.84  1548.25  1554.80
                             1591.35  1649.95  1666.80  1716.64  1726.28
                             1771.12  1844.45  1850.84  1878.96  1931.97
                             1949.54  1985.98  1990.47  2025.84  2029.74
                             2064.66  2080.14  2161.28  2195.27  2202.19
                             2209.26  2247.40  2362.30  2429.16  2453.17
                             4343.09  4395.01  4432.49  4459.52  4548.38
                             4584.78  4610.78  4630.58  4682.64  4708.84
                             5017.43  5135.21

 Zero-point correction=                           0.217222 (Hartree/Particle)
 Thermal correction to Energy=                    0.228150
 Thermal correction to Enthalpy=                  0.229094
 Thermal correction to Gibbs Free Energy=         0.180472
 Sum of electronic and zero-point Energies=           -610.938132
 Sum of electronic and thermal Energies=              -610.927204
 Sum of electronic and thermal Enthalpies=            -610.926260
 Sum of electronic and thermal Free Energies=         -610.974882

                     E (Thermal)             CV                S
                      KCal/Mol        Cal/Mol-Kelvin    Cal/Mol-Kelvin
 Total                  143.166             44.683            102.334
 Electronic               0.000              0.000              0.000
 Translational            0.889              2.981             41.601
 Rotational               0.889              2.981             31.158
 Vibrational            141.389             38.721             29.574
 Vibration     1          0.596              1.976              4.690
 Vibration     2          0.601              1.958              3.712
 Vibration     3          0.615              1.914              2.815
 Vibration     4          0.640              1.833              2.086
 Vibration     5          0.648              1.808              1.945
 Vibration     6          0.659              1.775              1.785
 Vibration     7          0.674              1.728              1.594
 Vibration     8          0.711              1.621              1.272
 Vibration     9          0.749              1.515              1.044
 Vibration    10          0.775              1.447              0.924
 Vibration    11          0.791              1.406              0.860
 Vibration    12          0.820              1.333              0.759
 Vibration    13          0.890              1.173              0.576
 Vibration    14          0.909              1.131              0.536
 Vibration    15          0.941              1.066              0.478
 Vibration    16          0.960              1.027              0.446

 Optimization completed.
    -- Stationary point found.
 Normal termination of Gaussian 16 at Thu Dec 10 10:10:17 2020.

 ----------------------------------------------------------------------
 # B3LYP/6-311++G(d,p) empiricaldispersion=gd3bj scf=xqc pop=npa geom=c
 heck
 ----------------------------------------------------------------------

 --------------------------------------
 CID_54477048_JID_4558_Energie_neutraal
 --------------------------------------
 Structure from the checkpoint file:  "JID_4558.chk"
 Charge =  0 Multiplicity = 1

 SCF Done:  E(RB3LYP) =  -611.322967329     A.U. after   15 cycles
 Normal termination of Gaussian 16 at Thu Dec 10 10:13:32 2020.

 ----------------------------------------------------------------------
 # B3LYP/6-311++G(d,p) empiricaldispersion=gd3bj scf=xqc pop=npa geom=c
 heck
 ----------------------------------------------------------------------

 ------------------------------------
 CID_54477048_JID_4558_Energie_kation
 ------------------------------------
 Structure from the checkpoint file:  "JID_4558.chk"
 Charge =  1 Multiplicity = 2

 SCF Done:  E(UB3LYP) =  -611.057003268     A.U. after   22 cycles
 Normal termination of Gaussian 16 at Thu Dec 10 10:18:56 2020.
 Gaussian 16:  ES64L-G16RevA.03 25-Dec-2016

 ----------------------------------------------------------------------
 # B3LYP/6-311++G(d,p) empiricaldispersion=gd3bj scf=xqc pop=npa geom=c
 heck
 ----------------------------------------------------------------------

 -----------------------------------
 CID_54477048_JID_4558_Energie_anion
 -----------------------------------
 Structure from the checkpoint file:  "JID_4558.chk"
 Charge = -1 Multiplicity = 2

                         Standard orientation:
 ---------------------------------------------------------------------
 Center     Atomic      Atomic             Coordinates (Angstroms)
 Number     Number       Type             X           Y           Z
 ---------------------------------------------------------------------
      1          6           0       -1.519404   -0.975182    1.115967
      2          6           0       -1.703395    0.431141    0.510269
      3          7           0       -0.373086    1.013363    0.420015
      4          6           0        0.095238    2.311277    0.312288
      5          6           0        1.442158    2.290765    0.019839
      6          6           0        1.845793    0.910618   -0.088901
      7          6           0        0.677066    0.166635    0.164592
      8          6           0        0.589490   -1.221962    0.119345
      9          6           0        1.744401   -1.923302   -0.185464
     10          6           0        2.940716   -1.206686   -0.436096
     11          6           0        3.016150    0.181784   -0.389384
     12          8           0       -0.635007   -1.812604    0.351740
     13          6           0       -2.379163    0.398533   -0.872583
     14          7           0       -3.688011   -0.255154   -0.785682
     15          1           0       -2.477816   -1.494073    1.144920
     16          1           0       -1.131574   -0.878888    2.137980
     17          1           0       -2.326289    1.012381    1.199053
     18          1           0       -0.570031    3.148774    0.471709
     19          1           0        2.071416    3.162549   -0.094832
     20          1           0        1.724496   -3.007155   -0.229482
     21          1           0        3.836036   -1.775343   -0.671297
     22          1           0        3.955718    0.687704   -0.590541
     23          1           0       -2.522583    1.433355   -1.200530
     24          1           0       -1.684903   -0.071085   -1.585414
     25          1           0       -4.282708    0.053540   -1.550714
     26          1           0       -3.578325   -1.260127   -0.904348
 ---------------------------------------------------------------------

 SCF Done:  E(UB3LYP) =  -611.309688933     A.U. after   33 cycles
 SCF Done:  E(UB3LYP) =  -611.309688934     a.u. after    1 cycles

 The electronic state is 2-A.
 Alpha  occ. eigenvalues --  -19.05952 -14.26250 -14.18833 -10.13570 -10.13290
 Alpha  occ. eigenvalues --  -10.12186 -10.10932 -10.09990 -10.09194 -10.07960
 Alpha  occ. eigenvalues --  -10.07882 -10.07585 -10.07492 -10.06886  -0.97532
 Alpha  occ. eigenvalues --   -0.89555  -0.78431  -0.75493  -0.70829  -0.67307
 Alpha  occ. eigenvalues --   -0.63957  -0.60835  -0.58751  -0.53343  -0.51176
 Alpha  occ. eigenvalues --   -0.50515  -0.45112  -0.44800  -0.41619  -0.39408
 Alpha  occ. eigenvalues --   -0.38089  -0.37234  -0.36391  -0.35802  -0.35476
 Alpha  occ. eigenvalues --   -0.33334  -0.32096  -0.30789  -0.30329  -0.29676
 Alpha  occ. eigenvalues --   -0.28132  -0.26645  -0.25923  -0.24553  -0.23129
 Alpha  occ. eigenvalues --   -0.22055  -0.16506  -0.14487  -0.13128  -0.10703
 Alpha  occ. eigenvalues --    0.04601
 Alpha virt. eigenvalues --    0.06845   0.07078   0.07388   0.08187   0.08608
 Alpha virt. eigenvalues --    0.09145   0.09989   0.10503   0.11035   0.11242
 Alpha virt. eigenvalues --    0.11518   0.12033   0.13117   0.14134   0.14944

  Beta  occ. eigenvalues --  -19.05951 -14.26249 -14.18764 -10.13561 -10.13266
  Beta  occ. eigenvalues --  -10.12171 -10.10906 -10.09986 -10.09164 -10.07960
  Beta  occ. eigenvalues --  -10.07881 -10.07575 -10.07487 -10.06882  -0.97524
  Beta  occ. eigenvalues --   -0.89542  -0.78345  -0.75465  -0.70797  -0.67275
  Beta  occ. eigenvalues --   -0.63937  -0.60796  -0.58687  -0.53275  -0.51134
  Beta  occ. eigenvalues --   -0.50500  -0.45077  -0.44767  -0.41564  -0.39375
  Beta  occ. eigenvalues --   -0.38045  -0.37215  -0.36325  -0.35758  -0.35443
  Beta  occ. eigenvalues --   -0.33312  -0.32014  -0.30768  -0.30287  -0.29644
  Beta  occ. eigenvalues --   -0.28104  -0.26619  -0.25892  -0.24523  -0.23102
  Beta  occ. eigenvalues --   -0.22027  -0.16483  -0.14422  -0.13099  -0.10669
  Beta virt. eigenvalues --    0.06701   0.07423   0.07772   0.07820   0.08845
  Beta virt. eigenvalues --    0.09214   0.09501   0.10385   0.10700   0.11475
  Beta virt. eigenvalues --    0.11761   0.12274   0.12321   0.13311   0.14358

 Mulliken charges and spin densities:
               1          2
     1  C    0.375099  -0.732772
     2  C   -1.835907   1.871148
     3  N    0.391411  -0.018821
     4  C    0.758289  -0.768131
     5  C   -0.082946  -0.160221
     6  C   -0.002936   0.145605
     7  C    0.168050   0.475985
     8  C    0.488667  -0.649421
     9  C   -0.544365  -0.104245
    10  C   -0.087559  -0.223139
    11  C   -0.038498  -0.687496
    12  O   -0.121989   0.029449
    13  C    2.687628  -3.203260
    14  N   -0.517897   0.150123
    15  H   -0.180133   0.375664
    16  H   -0.049561   0.228069
    17  H   -0.413560   0.641600
    18  H   -0.962856   1.144236
    19  H   -0.179192   0.333502
    20  H    0.039941   0.122696
    21  H    0.102636   0.029807
    22  H    0.064510   0.065511
    23  H   -0.542033   0.750035
    24  H   -0.022076   0.197338
    25  H   -0.345629   0.607400
    26  H   -0.149094   0.379338
 Sum of Mulliken charges =  -1.00000   1.00000

 Dipole moment (field-independent basis, Debye):
    X=              8.7462    Y=             -3.3854    Z=              1.4630  Tot=              9.4920
 Quadrupole moment (field-independent basis, Debye-Ang):
   XX=           -152.5774   YY=           -127.4388   ZZ=           -115.9848
   XY=              5.2095   XZ=             -9.7805   YZ=             -1.3292

 Summary of Natural Population Analysis:

                                       Natural Population
                Natural  -----------------------------------------------
    Atom  No    Charge         Core      Valence    Rydberg      Total
 -----------------------------------------------------------------------
      C    1   -0.01423      0.99954     2.00143    0.01325     3.01423
      C    2   -0.01639      0.99958     2.00217    0.01464     3.01639
      N    3   -0.20996      0.99961     2.69792    0.01244     3.70996
      C    4    0.01390      0.99956     1.97456    0.01198     2.98610
      C    5   -0.14569      0.99955     2.13676    0.00938     3.14569
      C    6   -0.04407      0.99950     2.03571    0.00887     3.04407
      C    7    0.05687      0.99944     1.93344    0.01025     2.94313
      C    8    0.15083      0.99930     1.83736    0.01251     2.84917
      C    9   -0.13625      0.99953     2.12698    0.00974     3.13625
      C   10   -0.11108      0.99959     2.10148    0.01000     3.11108
      C   11   -0.10987      0.99953     2.10110    0.00924     3.10987
      O   12   -0.27616      0.99987     3.26767    0.00862     4.27616
      C   13   -0.09236      0.99960     2.08035    0.01240     3.09236
      N   14   -0.42562      0.99977     2.91498    0.01087     3.92562
      H   15    0.10397      0.00000     0.39441    0.00161     0.39603
      H   16    0.08821      0.00000     0.41035    0.00144     0.41179
      H   17    0.11110      0.00000     0.38640    0.00249     0.38890
      H   18    0.10633      0.00000     0.39132    0.00235     0.39367
      H   19    0.10539      0.00000     0.39386    0.00075     0.39461
      H   20    0.10409      0.00000     0.39492    0.00100     0.39591
      H   21    0.09637      0.00000     0.40289    0.00075     0.40363
      H   22    0.09840      0.00000     0.40074    0.00086     0.40160
      H   23    0.09943      0.00000     0.39786    0.00271     0.40057
      H   24    0.08560      0.00000     0.41231    0.00208     0.41440
      H   25    0.18523      0.00000     0.30748    0.00729     0.31477
      H   26    0.17596      0.00000     0.32092    0.00311     0.32404
 =======================================================================
   * Total *    0.00000     13.99396    35.82539    0.18065    50.00000

 Normal termination of Gaussian 16 at Thu Dec 10 10:27:01 2020.
