 Gaussian 16, Revision A.03,

 -----------------------------------------------------------
 # opt freq B3LYP/6-31G(d) empiricaldispersion=gd3bj scf=xqc
 -----------------------------------------------------------

 ------------------------------
 CID_70254995_JID_8261_neutraal
 ------------------------------
 Symbolic Z-matrix:
 Charge =  0 Multiplicity = 1

 SCF Done:  E(RB3LYP) =  -824.227194524     A.U. after   15 cycles
 SCF Done:  E(RB3LYP) =  -823.908133869     A.U. after   17 cycles
 SCF Done:  E(RB3LYP) =  -824.229566432     A.U. after   13 cycles
 SCF Done:  E(RB3LYP) =  -824.232495988     A.U. after   13 cycles
 SCF Done:  E(RB3LYP) =  -824.231064074     A.U. after   13 cycles
 SCF Done:  E(RB3LYP) =  -824.233317140     A.U. after   12 cycles
 SCF Done:  E(RB3LYP) =  -824.233463342     A.U. after   12 cycles
 SCF Done:  E(RB3LYP) =  -824.233582050     A.U. after   12 cycles
 SCF Done:  E(RB3LYP) =  -824.233709437     A.U. after   11 cycles
 SCF Done:  E(RB3LYP) =  -824.233732901     A.U. after   11 cycles
 SCF Done:  E(RB3LYP) =  -824.233742032     A.U. after    9 cycles
 SCF Done:  E(RB3LYP) =  -824.233743165     A.U. after    8 cycles
 SCF Done:  E(RB3LYP) =  -824.233743408     A.U. after    8 cycles
 SCF Done:  E(RB3LYP) =  -824.233743489     A.U. after    7 cycles
 SCF Done:  E(RB3LYP) =  -824.233743516     A.U. after    7 cycles
 Optimization completed.
    -- Stationary point found.
 Normal termination of Gaussian 16 at Fri Dec 11 19:50:22 2020.

 --------------------------------------------------------------------
 #N Geom=AllCheck Guess=TCheck SCRF=Check GenChk RB3LYP/6-31G(d) Freq
 --------------------------------------------------------------------

 Structure from the checkpoint file:  "JID_8261.chk"
 ------------------------------
 CID_70254995_JID_8261_neutraal
 ------------------------------
 Charge =  0 Multiplicity = 1

 SCF Done:  E(RB3LYP) =  -824.233743516     A.U. after    1 cycles

  Exact polarizability: 158.676 -15.781 140.193  -7.769   0.746 143.831
 Approx polarizability: 213.748 -30.446 219.497 -17.934  -4.707 265.805

                      1                      2                      3
                      A                      A                      A
 Frequencies --     29.5136                61.9131                65.5730
 Red. masses --      4.6349                 4.0425                 4.1888
 Frc consts  --      0.0024                 0.0091                 0.0106
 IR Inten    --      1.4384                 0.6352                 0.9639

                      4                      5                      6
                      A                      A                      A
 Frequencies --     70.0799                85.6570                90.7892
 Red. masses --      5.3936                 6.5590                 5.9679
 Frc consts  --      0.0156                 0.0284                 0.0290
 IR Inten    --      1.5840                 4.3179                 0.5936

                      7                      8                      9
                      A                      A                      A
 Frequencies --    116.8206               152.2277               176.6302
 Red. masses --      4.1876                 7.0000                 5.0348
 Frc consts  --      0.0337                 0.0956                 0.0925
 IR Inten    --      1.6223                 7.9211                 0.6813

                     10                     11                     12
                      A                      A                      A
 Frequencies --    212.7762               223.2179               242.0478
 Red. masses --      3.6492                 3.9215                 4.7245
 Frc consts  --      0.0973                 0.1151                 0.1631
 IR Inten    --      5.2536                 3.2595                 2.2335

                     13                     14                     15
                      A                      A                      A
 Frequencies --    250.2356               276.8278               315.6858
 Red. masses --      1.1653                 3.8413                 3.0085
 Frc consts  --      0.0430                 0.1734                 0.1766
 IR Inten    --      1.4256                 2.3823                 2.3496

                     16                     17                     18
                      A                      A                      A
 Frequencies --    344.0794               356.3730               361.5821
 Red. masses --      3.3612                 2.1541                 3.1456
 Frc consts  --      0.2345                 0.1612                 0.2423
 IR Inten    --      7.4110                 6.1107                 0.2956

                     19                     20                     21
                      A                      A                      A
 Frequencies --    412.9454               442.4434               488.6261
 Red. masses --      2.9232                 2.7490                 2.8162
 Frc consts  --      0.2937                 0.3171                 0.3961
 IR Inten    --      0.2277                 2.7740                 7.5373

                     22                     23                     24
                      A                      A                      A
 Frequencies --    494.8123               531.2789               576.2812
 Red. masses --      3.1963                 3.0623                 1.2480
 Frc consts  --      0.4611                 0.5093                 0.2442
 IR Inten    --     11.1963                13.6276                63.1673

                     25                     26                     27
                      A                      A                      A
 Frequencies --    581.3521               636.4130               645.8995
 Red. masses --      4.4063                 6.2278                 2.3394
 Frc consts  --      0.8774                 1.4862                 0.5750
 IR Inten    --      8.3836                 0.8178               104.7509

                     28                     29                     30
                      A                      A                      A
 Frequencies --    659.0435               698.9839               709.5187
 Red. masses --      2.9357                 2.5635                 2.1451
 Frc consts  --      0.7513                 0.7379                 0.6363
 IR Inten    --     16.3026                40.6710                33.9961

                     31                     32                     33
                      A                      A                      A
 Frequencies --    724.1294               744.0540               761.8518
 Red. masses --      2.4878                 1.5176                 1.7497
 Frc consts  --      0.7686                 0.4950                 0.5984
 IR Inten    --      7.5200                38.2049                53.5038

                     34                     35                     36
                      A                      A                      A
 Frequencies --    799.0441               815.5459               834.1258
 Red. masses --      2.5232                 4.3716                 3.3989
 Frc consts  --      0.9492                 1.7131                 1.3933
 IR Inten    --     19.6111                13.7145                 4.3670

                     37                     38                     39
                      A                      A                      A
 Frequencies --    851.1905               856.4725               877.2895
 Red. masses --      3.2762                 1.2638                 2.2981
 Frc consts  --      1.3985                 0.5462                 1.0421
 IR Inten    --      3.4505                 0.5568                 1.9317

                     40                     41                     42
                      A                      A                      A
 Frequencies --    925.6928               946.2389               950.5625
 Red. masses --      1.4072                 1.6488                 1.7782
 Frc consts  --      0.7105                 0.8698                 0.9467
 IR Inten    --      2.9099                10.3681                16.0705

                     43                     44                     45
                      A                      A                      A
 Frequencies --    958.9190               967.0582               988.1394
 Red. masses --      1.9011                 1.3635                 1.2469
 Frc consts  --      1.0300                 0.7513                 0.7174
 IR Inten    --      9.3911                 0.3327                 0.4244

                     46                     47                     48
                      A                      A                      A
 Frequencies --   1002.8491              1024.6191              1032.9065
 Red. masses --      3.2572                 6.0411                 2.1334
 Frc consts  --      1.9300                 3.7367                 1.3410
 IR Inten    --     40.5046                 0.1603                14.8786

                     49                     50                     51
                      A                      A                      A
 Frequencies --   1058.6917              1059.6443              1108.9471
 Red. masses --      1.9108                 1.9315                 2.1320
 Frc consts  --      1.2618                 1.2778                 1.5447
 IR Inten    --      1.5786                 1.7580                18.3763

                     52                     53                     54
                      A                      A                      A
 Frequencies --   1113.3945              1122.4334              1153.2536
 Red. masses --      1.6766                 1.5459                 1.7467
 Frc consts  --      1.2246                 1.1475                 1.3687
 IR Inten    --     59.2749                 4.1654                 3.5326

                     55                     56                     57
                      A                      A                      A
 Frequencies --   1194.8228              1207.6425              1216.0975
 Red. masses --      1.1016                 1.8559                 1.1509
 Frc consts  --      0.9266                 1.5947                 1.0028
 IR Inten    --      0.0808                71.3123                 1.7292

                     58                     59                     60
                      A                      A                      A
 Frequencies --   1241.9862              1259.8927              1281.1586
 Red. masses --      2.8987                 2.8585                 1.5439
 Frc consts  --      2.6344                 2.6734                 1.4931
 IR Inten    --      7.7756               139.8317                11.3000

                     61                     62                     63
                      A                      A                      A
 Frequencies --   1296.6485              1320.3799              1366.0974
 Red. masses --      1.2751                 1.4929                 3.8120
 Frc consts  --      1.2631                 1.5335                 4.1915
 IR Inten    --      3.5299                98.1857                 5.4327

                     64                     65                     66
                      A                      A                      A
 Frequencies --   1369.5002              1371.5949              1391.3726
 Red. masses --      1.3301                 1.3604                 1.6506
 Frc consts  --      1.4698                 1.5079                 1.8827
 IR Inten    --      3.2415                11.5073                13.6454

                     67                     68                     69
                      A                      A                      A
 Frequencies --   1393.5775              1426.8790              1449.8610
 Red. masses --      2.4542                 1.4611                 1.2260
 Frc consts  --      2.8081                 1.7527                 1.5185
 IR Inten    --    114.6502                22.5938                 5.6292

                     70                     71                     72
                      A                      A                      A
 Frequencies --   1476.9004              1501.3560              1504.7233
 Red. masses --      1.2691                 1.1456                 1.9404
 Frc consts  --      1.6310                 1.5215                 2.5886
 IR Inten    --     17.8379                 5.5679                 8.4787

                     73                     74                     75
                      A                      A                      A
 Frequencies --   1514.5163              1520.3142              1525.5146
 Red. masses --      1.1524                 1.0517                 1.0515
 Frc consts  --      1.5574                 1.4323                 1.4417
 IR Inten    --     13.5482                 4.4869                 2.5818

                     76                     77                     78
                      A                      A                      A
 Frequencies --   1548.1861              1647.0031              1659.8368
 Red. masses --      2.2237                 5.2404                 1.2441
 Frc consts  --      3.1403                 8.3753                 2.0195
 IR Inten    --      5.1181                 2.6891                70.5768

                     79                     80                     81
                      A                      A                      A
 Frequencies --   1668.9038              1709.3764              1775.4542
 Red. masses --      5.5532                 5.2346                 8.2615
 Frc consts  --      9.1129                 9.0118                15.3436
 IR Inten    --      0.0450                 7.9884               119.4845

                     82                     83                     84
                      A                      A                      A
 Frequencies --   1802.7979              3043.4262              3064.3694
 Red. masses --     10.6802                 1.0836                 1.0452
 Frc consts  --     20.4514                 5.9133                 5.7826
 IR Inten    --    216.5964                20.8169                28.6259

                     85                     86                     87
                      A                      A                      A
 Frequencies --   3079.7703              3094.2378              3139.5103
 Red. masses --      1.0607                 1.0573                 1.1038
 Frc consts  --      5.9276                 5.9645                 6.4102
 IR Inten    --     21.2198                31.5836                 9.0626

                     88                     89                     90
                      A                      A                      A
 Frequencies --   3142.5670              3146.9297              3155.4765
 Red. masses --      1.0951                 1.1098                 1.0613
 Frc consts  --      6.3719                 6.4755                 6.2260
 IR Inten    --     18.7676                 8.7524                11.0386

                     91                     92                     93
                      A                      A                      A
 Frequencies --   3174.0995              3185.8519              3196.6618
 Red. masses --      1.1006                 1.0856                 1.0891
 Frc consts  --      6.5329                 6.4919                 6.5570
 IR Inten    --     16.2529                 1.2287                 8.5867

                     94                     95                     96
                      A                      A                      A
 Frequencies --   3202.4137              3208.6388              3224.6399
 Red. masses --      1.0899                 1.0956                 1.0964
 Frc consts  --      6.5855                 6.6457                 6.7169
 IR Inten    --      8.1998                25.0117                 8.6607

                     97                     98                     99
                      A                      A                      A
 Frequencies --   3242.0696              3546.4201              3661.5863
 Red. masses --      1.1144                 1.0466                 1.1020
 Frc consts  --      6.9017                 7.7557                 8.7050
 IR Inten    --      9.1365                72.7850                44.3622

 - Thermochemistry -
 -------------------
 Temperature   298.150 Kelvin.  Pressure   1.00000 Atm.
 Atom     1 has atomic number  6 and mass  12.00000

 Molecular mass:   247.12084 amu.
 Principal axes and moments of inertia in atomic units:
                           1         2         3
     Eigenvalues --  2766.333704818.035985707.50008
           X            0.99992  -0.00789  -0.00983
           Y            0.00815   0.99959   0.02750
           Z            0.00961  -0.02758   0.99957
 This molecule is an asymmetric top.
 Rotational symmetry number  1.
 Warning -- assumption of classical behavior for rotation
           may cause significant error
 Rotational temperatures (Kelvin)      0.03131     0.01798     0.01518
 Rotational constants (GHZ):           0.65239     0.37458     0.31621
 Zero-point vibrational energy     766433.9 (Joules/Mol)
                                  183.18210 (Kcal/Mol)
 Warning -- explicit consideration of  25 degrees of freedom as
           vibrations may cause significant error
 Vibrational temperatures:     42.46    89.08    94.34   100.83   123.24
          (Kelvin)            130.63   168.08   219.02   254.13   306.14
                              321.16   348.25   360.03   398.29   454.20
                              495.05   512.74   520.24   594.14   636.58
                              703.02   711.92   764.39   829.14   836.44
                              915.66   929.31   948.22  1005.68  1020.84
                             1041.86  1070.53  1096.13  1149.65  1173.39
                             1200.12  1224.67  1232.27  1262.22  1331.87
                             1361.43  1367.65  1379.67  1391.38  1421.71
                             1442.88  1474.20  1486.12  1523.22  1524.59
                             1595.53  1601.93  1614.93  1659.27  1719.08
                             1737.53  1749.69  1786.94  1812.70  1843.30
                             1865.59  1899.73  1965.51  1970.41  1973.42
                             2001.87  2005.05  2052.96  2086.03  2124.93
                             2160.12  2164.96  2179.05  2187.39  2194.88
                             2227.49  2369.67  2388.13  2401.18  2459.41
                             2554.48  2593.82  4378.81  4408.94  4431.10
                             4451.92  4517.06  4521.45  4527.73  4540.03
                             4566.82  4583.73  4599.28  4607.56  4616.52
                             4639.54  4664.62  5102.51  5268.21

 Zero-point correction=                           0.291919 (Hartree/Particle)
 Thermal correction to Energy=                    0.309089
 Thermal correction to Enthalpy=                  0.310033
 Thermal correction to Gibbs Free Energy=         0.246742
 Sum of electronic and zero-point Energies=           -823.941824
 Sum of electronic and thermal Energies=              -823.924655
 Sum of electronic and thermal Enthalpies=            -823.923710
 Sum of electronic and thermal Free Energies=         -823.987001

                     E (Thermal)             CV                S
                      KCal/Mol        Cal/Mol-Kelvin    Cal/Mol-Kelvin
 Total                  193.956             65.807            133.207
 Electronic               0.000              0.000              0.000
 Translational            0.889              2.981             42.415
 Rotational               0.889              2.981             32.698
 Vibrational            192.179             59.846             58.095
 Vibration     1          0.593              1.984              5.862
 Vibration     2          0.597              1.972              4.395
 Vibration     3          0.597              1.971              4.282
 Vibration     4          0.598              1.968              4.151
 Vibration     5          0.601              1.959              3.757
 Vibration     6          0.602              1.956              3.643
 Vibration     7          0.608              1.935              3.152
 Vibration     8          0.619              1.900              2.644
 Vibration     9          0.628              1.871              2.364
 Vibration    10          0.644              1.821              2.020
 Vibration    11          0.649              1.806              1.933
 Vibration    12          0.658              1.776              1.788
 Vibration    13          0.663              1.762              1.729
 Vibration    14          0.678              1.716              1.553
 Vibration    15          0.703              1.644              1.332
 Vibration    16          0.723              1.587              1.193
 Vibration    17          0.732              1.562              1.138
 Vibration    18          0.736              1.551              1.115
 Vibration    19          0.777              1.442              0.916
 Vibration    20          0.802              1.378              0.819
 Vibration    21          0.845              1.275              0.687
 Vibration    22          0.850              1.262              0.671
 Vibration    23          0.886              1.181              0.584
 Vibration    24          0.933              1.083              0.492
 Vibration    25          0.938              1.072              0.483

 Optimization completed.
    -- Stationary point found.
 Normal termination of Gaussian 16 at Fri Dec 11 20:08:20 2020.

 ----------------------------------------------------------------------
 # B3LYP/6-311++G(d,p) empiricaldispersion=gd3bj scf=xqc pop=npa geom=c
 heck
 ----------------------------------------------------------------------

 --------------------------------------
 CID_70254995_JID_8261_Energie_neutraal
 --------------------------------------
 Structure from the checkpoint file:  "JID_8261.chk"
 Charge =  0 Multiplicity = 1

 SCF Done:  E(RB3LYP) =  -824.470394518     A.U. after   15 cycles
 Normal termination of Gaussian 16 at Fri Dec 11 20:14:49 2020.

 ----------------------------------------------------------------------
 # B3LYP/6-311++G(d,p) empiricaldispersion=gd3bj scf=xqc pop=npa geom=c
 heck
 ----------------------------------------------------------------------

 ------------------------------------
 CID_70254995_JID_8261_Energie_kation
 ------------------------------------
 Structure from the checkpoint file:  "JID_8261.chk"
 Charge =  1 Multiplicity = 2

 SCF Done:  E(UB3LYP) =  -824.159432067     A.U. after   30 cycles
 Normal termination of Gaussian 16 at Fri Dec 11 20:32:19 2020.
 Gaussian 16:  ES64L-G16RevA.03 25-Dec-2016

 ----------------------------------------------------------------------
 # B3LYP/6-311++G(d,p) empiricaldispersion=gd3bj scf=xqc pop=npa geom=c
 heck
 ----------------------------------------------------------------------

 -----------------------------------
 CID_70254995_JID_8261_Energie_anion
 -----------------------------------
 Structure from the checkpoint file:  "JID_8261.chk"
 Charge = -1 Multiplicity = 2

                         Standard orientation:
 ---------------------------------------------------------------------
 Center     Atomic      Atomic             Coordinates (Angstroms)
 Number     Number       Type             X           Y           Z
 ---------------------------------------------------------------------
      1          6           0       -2.329373    0.018096    1.944625
      2          6           0       -2.757578    0.040488    0.471651
      3          6           0       -2.447796    1.410276   -0.209805
      4          6           0       -0.988318    1.629294   -0.536579
      5          8           0       -0.482496    1.418121   -1.622075
      6          8           0       -0.293663    2.082178    0.528805
      7          6           0        1.124796    2.303345    0.311823
      8          6           0        1.910859    1.019543    0.240196
      9          6           0        1.871945    0.108092    1.299852
     10          6           0        2.589227   -1.084690    1.232689
     11          6           0        3.371344   -1.366826    0.110438
     12          6           0        3.419476   -0.457818   -0.950195
     13          6           0        2.682641    0.724851   -0.887836
     14          6           0       -2.210505   -1.100600   -0.373199
     15          6           0       -2.935205   -1.671594   -1.339377
     16          6           0       -0.818293   -1.619319   -0.098266
     17          8           0       -0.514916   -2.099553    0.988944
     18          7           0        0.037313   -1.562908   -1.163346
     19          1           0       -1.256347    0.176739    2.058637
     20          1           0       -2.568029   -0.945366    2.400293
     21          1           0       -2.854364    0.811122    2.489474
     22          1           0       -3.851130   -0.042822    0.441022
     23          1           0       -2.985556    1.461621   -1.159348
     24          1           0       -2.796496    2.215838    0.444697
     25          1           0        1.254139    2.890515   -0.600119
     26          1           0        1.418470    2.904647    1.175287
     27          1           0        1.256290    0.318787    2.169090
     28          1           0        2.521577   -1.799052    2.046267
     29          1           0        3.934799   -2.294217    0.059186
     30          1           0        4.018973   -0.676428   -1.829437
     31          1           0        2.690919    1.417918   -1.724250
     32          1           0       -2.530280   -2.461243   -1.964968
     33          1           0       -3.966760   -1.377977   -1.523698
     34          1           0       -0.129618   -0.840346   -1.852901
     35          1           0        1.011512   -1.744178   -0.947295
 ---------------------------------------------------------------------

 SCF Done:  E(UB3LYP) =  -824.460771206     A.U. after   33 cycles
 SCF Done:  E(UB3LYP) =  -824.460771206     a.u. after    1 cycles

 The electronic state is 2-A.
 Alpha  occ. eigenvalues --  -19.06191 -19.00621 -18.97620 -14.21249 -10.19432
 Alpha  occ. eigenvalues --  -10.15916 -10.12644 -10.08423 -10.07597 -10.07526
 Alpha  occ. eigenvalues --  -10.07489 -10.07240 -10.07166 -10.07116 -10.06867
 Alpha  occ. eigenvalues --  -10.06801 -10.05895 -10.04550  -1.00200  -0.92401
 Alpha  occ. eigenvalues --   -0.91498  -0.79113  -0.75741  -0.72201  -0.67877
 Alpha  occ. eigenvalues --   -0.65137  -0.64553  -0.61461  -0.58417  -0.52313
 Alpha  occ. eigenvalues --   -0.51392  -0.50696  -0.49397  -0.45409  -0.44215
 Alpha  occ. eigenvalues --   -0.41752  -0.40992  -0.39043  -0.38158  -0.37386
 Alpha  occ. eigenvalues --   -0.36420  -0.36012  -0.34817  -0.34294  -0.32931
 Alpha  occ. eigenvalues --   -0.32259  -0.31770  -0.31043  -0.30633  -0.29307
 Alpha  occ. eigenvalues --   -0.28587  -0.27843  -0.26574  -0.26080  -0.25451
 Alpha  occ. eigenvalues --   -0.24216  -0.23856  -0.23529  -0.23004  -0.20642
 Alpha  occ. eigenvalues --   -0.18152  -0.16616  -0.15982  -0.15657  -0.15177
 Alpha  occ. eigenvalues --   -0.13785   0.04607
 Alpha virt. eigenvalues --    0.06642   0.07212   0.07584   0.08184   0.08673
 Alpha virt. eigenvalues --    0.08748   0.09009   0.09671   0.09876   0.10101
 Alpha virt. eigenvalues --    0.10368   0.11066   0.11924   0.12097   0.12751

  Beta  occ. eigenvalues --  -19.06144 -19.00589 -18.97596 -14.21240 -10.19396
  Beta  occ. eigenvalues --  -10.15868 -10.12634 -10.08409 -10.07563 -10.07519
  Beta  occ. eigenvalues --  -10.07459 -10.07220 -10.07113 -10.07025 -10.06780
  Beta  occ. eigenvalues --  -10.06738 -10.05818 -10.04538  -1.00117  -0.92336
  Beta  occ. eigenvalues --   -0.91423  -0.79073  -0.75584  -0.72117  -0.67691
  Beta  occ. eigenvalues --   -0.64996  -0.64459  -0.61366  -0.58331  -0.52132
  Beta  occ. eigenvalues --   -0.51258  -0.50649  -0.49229  -0.45305  -0.44163
  Beta  occ. eigenvalues --   -0.41678  -0.40941  -0.38932  -0.38045  -0.37286
  Beta  occ. eigenvalues --   -0.36323  -0.35926  -0.34723  -0.34215  -0.32859
  Beta  occ. eigenvalues --   -0.32233  -0.31702  -0.30961  -0.30548  -0.29202
  Beta  occ. eigenvalues --   -0.28420  -0.27768  -0.26498  -0.25804  -0.25365
  Beta  occ. eigenvalues --   -0.24149  -0.23800  -0.23470  -0.22930  -0.20501
  Beta  occ. eigenvalues --   -0.18015  -0.16507  -0.15655  -0.15448  -0.14567
  Beta  occ. eigenvalues --   -0.13625
  Beta virt. eigenvalues --    0.06882   0.07457   0.07886   0.08300   0.08375
  Beta virt. eigenvalues --    0.08742   0.09066   0.09341   0.09870   0.10241
  Beta virt. eigenvalues --    0.10372   0.10512   0.11283   0.12160   0.12429

 Mulliken charges and spin densities:
               1          2
     1  C    0.015815  -0.790975
     2  C   -1.340975   1.762428
     3  C    2.244633  -2.739179
     4  C   -1.381663   1.263695
     5  O   -0.215879   0.008884
     6  O    0.107972   0.007858
     7  C    0.854714  -1.442790
     8  C   -0.144569   0.790287
     9  C   -0.158136   0.430207
    10  C   -0.301576   0.040434
    11  C   -0.295068  -0.047021
    12  C   -0.212576  -0.097175
    13  C   -0.292303  -0.136341
    14  C    0.129932   0.323850
    15  C    0.523250  -1.070065
    16  C   -0.065533  -0.431547
    17  O   -0.242648   0.023553
    18  N   -0.218363   0.058353
    19  H    0.309977  -0.127466
    20  H    0.105609   0.048665
    21  H   -0.214095   0.346463
    22  H   -0.656186   0.889286
    23  H    0.105036   0.072680
    24  H   -0.420371   0.624044
    25  H   -0.004842   0.172352
    26  H   -0.306068   0.519414
    27  H    0.044080   0.122387
    28  H    0.134508   0.031595
    29  H    0.095075   0.025452
    30  H    0.082230   0.067718
    31  H    0.105368   0.049344
    32  H    0.108324   0.043078
    33  H   -0.028800   0.137399
    34  H    0.225468   0.001037
    35  H    0.307658   0.022098
 Sum of Mulliken charges =  -1.00000   1.00000

 Dipole moment (field-independent basis, Debye):
    X=              5.1793    Y=             -1.8379    Z=             -2.4240  Tot=              6.0065
 Quadrupole moment (field-independent basis, Debye-Ang):
   XX=           -166.6775   YY=           -149.2470   ZZ=           -131.3703
   XY=              2.4986   XZ=              1.8284   YZ=             -1.5685

 Summary of Natural Population Analysis:

                                       Natural Population
                Natural  -----------------------------------------------
    Atom  No    Charge         Core      Valence    Rydberg      Total
 -----------------------------------------------------------------------
      C    1   -0.28288      0.99964     2.27696    0.00629     3.28288
      C    2   -0.11663      0.99956     2.10331    0.01377     3.11663
      C    3   -0.22657      0.99956     2.21687    0.01014     3.22657
      C    4    0.41570      0.99967     1.55876    0.02587     2.58430
      O    5   -0.31772      0.99986     3.31253    0.00533     4.31772
      O    6   -0.27520      0.99986     3.26528    0.01005     4.27520
      C    7   -0.01973      0.99950     2.00756    0.01267     3.01973
      C    8   -0.01509      0.99949     2.00606    0.00955     3.01509
      C    9   -0.08847      0.99951     2.07910    0.00986     3.08847
      C   10   -0.09532      0.99957     2.08614    0.00961     3.09532
      C   11   -0.09569      0.99957     2.08635    0.00978     3.09569
      C   12   -0.11190      0.99957     2.10259    0.00975     3.11190
      C   13   -0.09485      0.99951     2.08606    0.00928     3.09485
      C   14   -0.03641      0.99944     2.02465    0.01231     3.03641
      C   15   -0.16785      0.99951     2.16173    0.00661     3.16785
      C   16    0.33549      0.99962     1.64183    0.02306     2.66451
      O   17   -0.31807      0.99988     3.31211    0.00609     4.31807
      N   18   -0.40276      0.99970     2.89563    0.00744     3.90276
      H   19    0.10559      0.00000     0.39308    0.00133     0.39441
      H   20    0.10461      0.00000     0.39452    0.00086     0.39539
      H   21    0.09653      0.00000     0.40254    0.00093     0.40347
      H   22    0.10377      0.00000     0.39238    0.00385     0.39623
      H   23    0.11049      0.00000     0.38837    0.00115     0.38951
      H   24    0.11450      0.00000     0.38245    0.00305     0.38550
      H   25    0.09434      0.00000     0.40422    0.00144     0.40566
      H   26    0.09931      0.00000     0.39895    0.00173     0.40069
      H   27    0.10333      0.00000     0.39510    0.00157     0.39667
      H   28    0.10240      0.00000     0.39678    0.00082     0.39760
      H   29    0.09677      0.00000     0.40247    0.00076     0.40323
      H   30    0.09712      0.00000     0.40207    0.00081     0.40288
      H   31    0.10014      0.00000     0.39890    0.00096     0.39986
      H   32    0.09435      0.00000     0.40461    0.00104     0.40565
      H   33    0.09121      0.00000     0.40772    0.00107     0.40879
      H   34    0.20232      0.00000     0.29604    0.00165     0.29768
      H   35    0.19717      0.00000     0.29985    0.00298     0.30283
 =======================================================================
   * Total *   -0.00000     17.99301    47.78354    0.22345    66.00000

 Normal termination of Gaussian 16 at Fri Dec 11 20:52:23 2020.
