 Gaussian 16, Revision A.03,

 -----------------------------------------------------------
 # opt freq B3LYP/6-31G(d) empiricaldispersion=gd3bj scf=xqc
 -----------------------------------------------------------

 -----------------------------
 CID_19738190_JID_815_neutraal
 -----------------------------
 Symbolic Z-matrix:
 Charge =  0 Multiplicity = 1

 SCF Done:  E(RB3LYP) =  -456.253823397     A.U. after   15 cycles
 SCF Done:  E(RB3LYP) =  -456.262446917     A.U. after   13 cycles
 SCF Done:  E(RB3LYP) =  -456.263211785     A.U. after   11 cycles
 SCF Done:  E(RB3LYP) =  -456.263264334     A.U. after   10 cycles
 SCF Done:  E(RB3LYP) =  -456.263275453     A.U. after   10 cycles
 SCF Done:  E(RB3LYP) =  -456.263284416     A.U. after    8 cycles
 SCF Done:  E(RB3LYP) =  -456.263302127     A.U. after   10 cycles
 SCF Done:  E(RB3LYP) =  -456.263312226     A.U. after   10 cycles
 SCF Done:  E(RB3LYP) =  -456.263320725     A.U. after    9 cycles
 SCF Done:  E(RB3LYP) =  -456.263322802     A.U. after    9 cycles
 SCF Done:  E(RB3LYP) =  -456.263323609     A.U. after    7 cycles
 SCF Done:  E(RB3LYP) =  -456.263323827     A.U. after    8 cycles
 SCF Done:  E(RB3LYP) =  -456.263324034     A.U. after    7 cycles
 SCF Done:  E(RB3LYP) =  -456.263324285     A.U. after    7 cycles
 SCF Done:  E(RB3LYP) =  -456.263324483     A.U. after    7 cycles
 Optimization completed.
    -- Stationary point found.
 Normal termination of Gaussian 16 at Tue Dec  8 12:51:07 2020.

 --------------------------------------------------------------------
 #N Geom=AllCheck Guess=TCheck SCRF=Check GenChk RB3LYP/6-31G(d) Freq
 --------------------------------------------------------------------

 Structure from the checkpoint file:  "JID_815.chk"
 -----------------------------
 CID_19738190_JID_815_neutraal
 -----------------------------
 Charge =  0 Multiplicity = 1

 SCF Done:  E(RB3LYP) =  -456.263324483     A.U. after    1 cycles

  Exact polarizability: 122.223  -0.351  85.510   0.381  -0.101  43.182
 Approx polarizability: 183.960   8.103 147.689   0.003   0.069  65.239

                      1                      2                      3
                      A                      A                      A
 Frequencies --     44.2176               107.9221               142.4589
 Red. masses --      1.1135                 1.0384                 2.7227
 Frc consts  --      0.0013                 0.0071                 0.0326
 IR Inten    --      0.2915                 0.1133                 6.7119

                      4                      5                      6
                      A                      A                      A
 Frequencies --    183.8672               256.1131               266.1673
 Red. masses --      3.4904                 2.7127                 5.2462
 Frc consts  --      0.0695                 0.1048                 0.2190
 IR Inten    --      0.2298                 0.2309                 0.4330

                      7                      8                      9
                      A                      A                      A
 Frequencies --    308.1342               384.6493               577.8524
 Red. masses --      3.0472                 6.4305                 4.5692
 Frc consts  --      0.1705                 0.5606                 0.8989
 IR Inten    --      5.1795                 0.0461                 4.0255

                     10                     11                     12
                      A                      A                      A
 Frequencies --    583.0089               587.1153               604.8912
 Red. masses --      4.9489                 5.3005                 6.0480
 Frc consts  --      0.9911                 1.0765                 1.3038
 IR Inten    --      5.6336                 5.6339                 3.6199

                     13                     14                     15
                      A                      A                      A
 Frequencies --    629.1817               723.6964               763.2820
 Red. masses --      3.9463                 1.5712                 4.0567
 Frc consts  --      0.9204                 0.4848                 1.3925
 IR Inten    --      2.5119                37.1528                 2.8160

                     16                     17                     18
                      A                      A                      A
 Frequencies --    803.4671               837.6904               858.8538
 Red. masses --      8.4856                 1.2636                 3.7305
 Frc consts  --      3.2275                 0.5224                 1.6213
 IR Inten    --     14.9693                 0.8660                 5.4491

                     19                     20                     21
                      A                      A                      A
 Frequencies --    925.8888              1032.9999              1044.9426
 Red. masses --      4.1333                 2.3198                 2.0808
 Frc consts  --      2.0877                 1.4585                 1.3386
 IR Inten    --      4.4872                 3.7349                23.9739

                     22                     23                     24
                      A                      A                      A
 Frequencies --   1070.0495              1087.8118              1154.2476
 Red. masses --      1.4212                 3.0047                 1.6132
 Frc consts  --      0.9588                 2.0949                 1.2663
 IR Inten    --      1.2168                36.4792                 4.2403

                     25                     26                     27
                      A                      A                      A
 Frequencies --   1156.5480              1178.3101              1234.2461
 Red. masses --      1.7711                 1.8419                 2.2888
 Frc consts  --      1.3958                 1.5067                 2.0542
 IR Inten    --      5.0341                23.1749                 1.2269

                     28                     29                     30
                      A                      A                      A
 Frequencies --   1318.4260              1393.2277              1422.1281
 Red. masses --      2.7213                 3.2390                 3.8833
 Frc consts  --      2.7870                 3.7043                 4.6273
 IR Inten    --     14.1155                18.1818                63.6093

                     31                     32                     33
                      A                      A                      A
 Frequencies --   1449.3209              1474.8218              1481.9482
 Red. masses --      1.4175                 1.8367                 2.4209
 Frc consts  --      1.7543                 2.3538                 3.1325
 IR Inten    --      3.3840                24.5528                50.9343

                     34                     35                     36
                      A                      A                      A
 Frequencies --   1508.8882              1516.2290              1521.5919
 Red. masses --      1.0539                 1.0688                 1.0878
 Frc consts  --      1.4138                 1.4478                 1.4839
 IR Inten    --      1.3047                15.1685                 6.5296

                     37                     38                     39
                      A                      A                      A
 Frequencies --   1535.3900              1572.0219              1582.2009
 Red. masses --      1.0921                 6.4330                 6.1786
 Frc consts  --      1.5169                 9.3666                 9.1131
 IR Inten    --      7.1858                16.1137                39.8684

                     40                     41                     42
                      A                      A                      A
 Frequencies --   1677.8652              3037.3162              3051.5092
 Red. masses --      9.3847                 1.0399                 1.0412
 Frc consts  --     15.5663                 5.6524                 5.7124
 IR Inten    --     59.2088                30.1476                62.3532

                     43                     44                     45
                      A                      A                      A
 Frequencies --   3083.5434              3116.0313              3142.5312
 Red. masses --      1.1014                 1.0996                 1.0975
 Frc consts  --      6.1700                 6.2905                 6.3858
 IR Inten    --     19.5324                21.6285                11.1306

                     46                     47                     48
                      A                      A                      A
 Frequencies --   3186.0837              3266.8306              3300.6698
 Red. masses --      1.1002                 1.0918                 1.1028
 Frc consts  --      6.5804                 6.8648                 7.0788
 IR Inten    --      2.6399                 5.1662                 1.8491

 - Thermochemistry -
 -------------------
 Temperature   298.150 Kelvin.  Pressure   1.00000 Atm.
 Atom     1 has atomic number  6 and mass  12.00000

 Molecular mass:   136.06366 amu.
 Principal axes and moments of inertia in atomic units:
                           1         2         3
     Eigenvalues --   627.886851540.919112145.86297
           X            0.99997  -0.00754   0.00048
           Y            0.00754   0.99997  -0.00068
           Z           -0.00048   0.00068   1.00000
 This molecule is an asymmetric top.
 Rotational symmetry number  1.
 Warning -- assumption of classical behavior for rotation
           may cause significant error
 Rotational temperatures (Kelvin)      0.13795     0.05621     0.04036
 Rotational constants (GHZ):           2.87431     1.17121     0.84103
 Zero-point vibrational energy     377937.3 (Joules/Mol)
                                   90.32919 (Kcal/Mol)
 Warning -- explicit consideration of  12 degrees of freedom as
           vibrations may cause significant error
 Vibrational temperatures:     63.62   155.28   204.97   264.54   368.49
          (Kelvin)            382.96   443.34   553.42   831.40   838.82
                              844.73   870.30   905.25  1041.24  1098.19
                             1156.01  1205.25  1235.70  1332.15  1486.26
                             1503.44  1539.56  1565.12  1660.70  1664.01
                             1695.33  1775.80  1896.92  2004.54  2046.13
                             2085.25  2121.94  2132.19  2170.95  2181.52
                             2189.23  2209.08  2261.79  2276.43  2414.07
                             4370.02  4390.44  4436.53  4483.27  4521.40
                             4584.06  4700.24  4748.93

 Zero-point correction=                           0.143949 (Hartree/Particle)
 Thermal correction to Energy=                    0.152789
 Thermal correction to Enthalpy=                  0.153733
 Thermal correction to Gibbs Free Energy=         0.109545
 Sum of electronic and zero-point Energies=           -456.119376
 Sum of electronic and thermal Energies=              -456.110535
 Sum of electronic and thermal Enthalpies=            -456.109591
 Sum of electronic and thermal Free Energies=         -456.153780

                     E (Thermal)             CV                S
                      KCal/Mol        Cal/Mol-Kelvin    Cal/Mol-Kelvin
 Total                   95.877             32.437             93.003
 Electronic               0.000              0.000              0.000
 Translational            0.889              2.981             40.636
 Rotational               0.889              2.981             29.119
 Vibrational             94.099             26.475             23.248
 Vibration     1          0.595              1.980              5.061
 Vibration     2          0.606              1.943              3.306
 Vibration     3          0.616              1.911              2.771
 Vibration     4          0.631              1.862              2.289
 Vibration     5          0.666              1.752              1.688
 Vibration     6          0.672              1.735              1.621
 Vibration     7          0.698              1.658              1.372
 Vibration     8          0.754              1.503              1.021
 Vibration     9          0.934              1.079              0.489
 Vibration    10          0.940              1.068              0.480
 Vibration    11          0.944              1.059              0.472
 Vibration    12          0.963              1.021              0.441

                           ! Non-Optimized Parameters !
 Normal termination of Gaussian 16 at Tue Dec  8 13:05:36 2020.

 ----------------------------------------------------------------------
 # B3LYP/6-311++G(d,p) empiricaldispersion=gd3bj scf=xqc pop=npa geom=c
 heck
 ----------------------------------------------------------------------

 -------------------------------------
 CID_19738190_JID_815_Energie_neutraal
 -------------------------------------
 Structure from the checkpoint file:  "JID_815.chk"
 Charge =  0 Multiplicity = 1

 SCF Done:  E(RB3LYP) =  -456.384402031     A.U. after   15 cycles
 Normal termination of Gaussian 16 at Tue Dec  8 13:08:43 2020.

 ----------------------------------------------------------------------
 # B3LYP/6-311++G(d,p) empiricaldispersion=gd3bj scf=xqc pop=npa geom=c
 heck
 ----------------------------------------------------------------------

 -----------------------------------
 CID_19738190_JID_815_Energie_kation
 -----------------------------------
 Structure from the checkpoint file:  "JID_815.chk"
 Charge =  1 Multiplicity = 2

 SCF Done:  E(UB3LYP) =  -456.094969363     A.U. after   22 cycles
 Normal termination of Gaussian 16 at Tue Dec  8 13:17:17 2020.
 Gaussian 16:  ES64L-G16RevA.03 25-Dec-2016

 ----------------------------------------------------------------------
 # B3LYP/6-311++G(d,p) empiricaldispersion=gd3bj scf=xqc pop=npa geom=c
 heck
 ----------------------------------------------------------------------

 ----------------------------------
 CID_19738190_JID_815_Energie_anion
 ----------------------------------
 Structure from the checkpoint file:  "JID_815.chk"
 Charge = -1 Multiplicity = 2

                         Standard orientation:
 ---------------------------------------------------------------------
 Center     Atomic      Atomic             Coordinates (Angstroms)
 Number     Number       Type             X           Y           Z
 ---------------------------------------------------------------------
      1          6           0        1.767150    1.906661   -0.005850
      2          6           0        0.843894    0.733319   -0.009512
      3          6           0       -0.542806    0.629622    0.004022
      4          6           0       -1.860309    1.220550    0.009400
      5          6           0       -2.726187    0.172053    0.008225
      6          8           0       -2.095149   -1.066677   -0.000407
      7          6           0       -0.769178   -0.759988   -0.001157
      8          7           0        0.310206   -1.518743   -0.017062
      9          7           0        1.298597   -0.564762   -0.029575
     10          6           0        2.678022   -0.999264    0.028553
     11          1           0        2.427897    1.910017    0.870561
     12          1           0        1.185370    2.831526    0.012294
     13          1           0        2.406240    1.932334   -0.897971
     14          1           0       -2.139686    2.264675    0.015193
     15          1           0       -3.804305    0.122628    0.014177
     16          1           0        3.285274   -0.434432   -0.685117
     17          1           0        3.097539   -0.870225    1.033773
     18          1           0        2.697736   -2.056293   -0.235277
 ---------------------------------------------------------------------

 SCF Done:  E(UB3LYP) =  -456.371249873     A.U. after   33 cycles
 SCF Done:  E(UB3LYP) =  -456.371249874     a.u. after    1 cycles

 The electronic state is 2-A.
 Alpha  occ. eigenvalues --  -19.08475 -14.28330 -14.22192 -10.13344 -10.12853
 Alpha  occ. eigenvalues --  -10.11310 -10.10007 -10.08161 -10.06589 -10.06493
 Alpha  occ. eigenvalues --   -1.01019  -0.93821  -0.74017  -0.72017  -0.66851
 Alpha  occ. eigenvalues --   -0.60526  -0.59583  -0.51418  -0.48683  -0.45779
 Alpha  occ. eigenvalues --   -0.39265  -0.38230  -0.37865  -0.37107  -0.34545
 Alpha  occ. eigenvalues --   -0.31530  -0.30845  -0.30553  -0.30008  -0.28547
 Alpha  occ. eigenvalues --   -0.26743  -0.26699  -0.19559  -0.19478  -0.13338
 Alpha  occ. eigenvalues --   -0.11113   0.04667
 Alpha virt. eigenvalues --    0.06868   0.08042   0.08655   0.09504   0.09779
 Alpha virt. eigenvalues --    0.11335   0.12277   0.12739   0.13277   0.13437
 Alpha virt. eigenvalues --    0.14553   0.14785   0.16442   0.17038   0.17781

  Beta  occ. eigenvalues --  -19.08473 -14.28329 -14.22186 -10.13344 -10.12849
  Beta  occ. eigenvalues --  -10.11306 -10.09946 -10.08140 -10.06512 -10.06492
  Beta  occ. eigenvalues --   -1.01013  -0.93811  -0.73996  -0.71996  -0.66814
  Beta  occ. eigenvalues --   -0.60480  -0.59491  -0.51367  -0.48658  -0.45737
  Beta  occ. eigenvalues --   -0.39240  -0.38203  -0.37806  -0.37053  -0.34520
  Beta  occ. eigenvalues --   -0.31493  -0.30775  -0.30502  -0.29955  -0.28494
  Beta  occ. eigenvalues --   -0.26704  -0.26667  -0.19543  -0.19450  -0.13321
  Beta  occ. eigenvalues --   -0.11096
  Beta virt. eigenvalues --    0.07165   0.07931   0.08689   0.09016   0.10381
  Beta virt. eigenvalues --    0.11125   0.11972   0.12560   0.13082   0.13807
  Beta virt. eigenvalues --    0.13956   0.14693   0.15026   0.16511   0.17218

 Mulliken charges and spin densities:
               1          2
     1  C    2.303533  -2.949057
     2  C   -0.735452   0.886348
     3  C    1.897341  -1.331109
     4  C   -1.667856   1.065474
     5  C    0.822920  -0.852661
     6  O   -0.164855   0.016164
     7  C   -0.352180   0.077173
     8  N   -0.580337   0.277152
     9  N    0.123620   0.113762
    10  C    1.078485  -1.410534
    11  H   -0.572123   0.744863
    12  H   -0.609699   0.770641
    13  H   -0.531337   0.710410
    14  H   -0.832027   1.012528
    15  H   -0.058112   0.233011
    16  H   -0.537884   0.702294
    17  H   -0.468547   0.657406
    18  H   -0.115491   0.276136
 Sum of Mulliken charges =  -1.00000   1.00000

 Dipole moment (field-independent basis, Debye):
    X=             -6.3519    Y=             -4.0189    Z=             -0.2486  Tot=              7.5206
 Quadrupole moment (field-independent basis, Debye-Ang):
   XX=           -115.9561   YY=           -105.7232   ZZ=            -86.0592
   XY=             -5.5703   XZ=             -0.4675   YZ=              0.5069

 Summary of Natural Population Analysis:

                                       Natural Population
                Natural  -----------------------------------------------
    Atom  No    Charge         Core      Valence    Rydberg      Total
 -----------------------------------------------------------------------
      C    1   -0.30419      0.99964     2.29881    0.00574     3.30419
      C    2    0.10287      0.99950     1.88545    0.01218     2.89713
      C    3   -0.10684      0.99940     2.09604    0.01140     3.10684
      C    4   -0.13646      0.99954     2.12785    0.00908     3.13646
      C    5    0.05692      0.99950     1.92916    0.01442     2.94308
      O    6   -0.24622      0.99986     3.23896    0.00741     4.24622
      C    7    0.23867      0.99937     1.74315    0.01880     2.76133
      N    8   -0.17840      0.99967     2.66776    0.01096     3.67840
      N    9   -0.10698      0.99964     2.59417    0.01317     3.60698
      C   10   -0.17473      0.99964     2.16672    0.00837     3.17473
      H   11    0.11222      0.00000     0.38431    0.00347     0.38778
      H   12    0.11277      0.00000     0.38480    0.00243     0.38723
      H   13    0.11285      0.00000     0.38335    0.00380     0.38715
      H   14    0.11270      0.00000     0.38572    0.00159     0.38730
      H   15    0.09219      0.00000     0.40684    0.00097     0.40781
      H   16    0.10464      0.00000     0.39299    0.00237     0.39536
      H   17    0.10055      0.00000     0.39724    0.00221     0.39945
      H   18    0.10745      0.00000     0.39094    0.00161     0.39255
 =======================================================================
   * Total *   -0.00000      9.99576    25.87426    0.12998    36.00000

 Normal termination of Gaussian 16 at Tue Dec  8 13:29:29 2020.
