 Gaussian 16, Revision A.03,

 -----------------------------------------------------------
 # opt freq B3LYP/6-31G(d) empiricaldispersion=gd3bj scf=xqc
 -----------------------------------------------------------

 ------------------------------
 CID_55170892_JID_7599_neutraal
 ------------------------------
 Symbolic Z-matrix:
 Charge =  0 Multiplicity = 1

 SCF Done:  E(RB3LYP) =  -741.329889950     A.U. after   15 cycles
 SCF Done:  E(RB3LYP) =  -741.338702352     A.U. after   12 cycles
 SCF Done:  E(RB3LYP) =  -741.341883557     A.U. after   12 cycles
 SCF Done:  E(RB3LYP) =  -741.343706001     A.U. after   12 cycles
 SCF Done:  E(RB3LYP) =  -741.344949123     A.U. after   13 cycles
 SCF Done:  E(RB3LYP) =  -741.345304338     A.U. after   12 cycles
 SCF Done:  E(RB3LYP) =  -741.345444018     A.U. after   11 cycles
 SCF Done:  E(RB3LYP) =  -741.345502985     A.U. after   10 cycles
 SCF Done:  E(RB3LYP) =  -741.345532315     A.U. after   10 cycles
 SCF Done:  E(RB3LYP) =  -741.345557363     A.U. after   10 cycles
 SCF Done:  E(RB3LYP) =  -741.346366269     A.U. after    9 cycles
 SCF Done:  E(RB3LYP) =  -741.346367985     A.U. after    9 cycles
 SCF Done:  E(RB3LYP) =  -741.346368823     A.U. after    9 cycles
 SCF Done:  E(RB3LYP) =  -741.346368763     A.U. after    9 cycles
 SCF Done:  E(RB3LYP) =  -741.346368882     A.U. after    7 cycles
 Optimization completed.
    -- Stationary point found.
 Normal termination of Gaussian 16 at Fri Dec 11 13:23:58 2020.

 --------------------------------------------------------------------
 #N Geom=AllCheck Guess=TCheck SCRF=Check GenChk RB3LYP/6-31G(d) Freq
 --------------------------------------------------------------------

 Structure from the checkpoint file:  "JID_7599.chk"
 ------------------------------
 CID_55170892_JID_7599_neutraal
 ------------------------------
 Charge =  0 Multiplicity = 1

 SCF Done:  E(RB3LYP) =  -741.346368882     A.U. after    1 cycles

  Exact polarizability: 209.511  -3.689 158.021  -5.411  -0.630  96.920
 Approx polarizability: 292.996 -12.881 271.411 -11.809   0.067 142.877

                      1                      2                      3
                      A                      A                      A
 Frequencies --     26.8443                41.4978                59.6037
 Red. masses --      3.2112                 2.9141                 2.5146
 Frc consts  --      0.0014                 0.0030                 0.0053
 IR Inten    --      0.2146                 0.1671                 0.5449

                      4                      5                      6
                      A                      A                      A
 Frequencies --     80.5334                88.9186               114.3921
 Red. masses --      3.1950                 1.3499                 2.3670
 Frc consts  --      0.0122                 0.0063                 0.0182
 IR Inten    --      0.0970                 0.5214                 1.9934

                      7                      8                      9
                      A                      A                      A
 Frequencies --    154.1391               181.4006               216.6290
 Red. masses --      2.8631                 4.5487                 3.2852
 Frc consts  --      0.0401                 0.0882                 0.0908
 IR Inten    --      0.3681                 2.8049                 0.1931

                     10                     11                     12
                      A                      A                      A
 Frequencies --    227.4902               240.9415               242.5370
 Red. masses --      1.2569                 3.0807                 3.9008
 Frc consts  --      0.0383                 0.1054                 0.1352
 IR Inten    --      0.4117                 3.2685                 3.5684

                     13                     14                     15
                      A                      A                      A
 Frequencies --    296.4312               311.6455               344.2549
 Red. masses --      5.0076                 2.9421                 3.6956
 Frc consts  --      0.2593                 0.1684                 0.2580
 IR Inten    --      0.6328                 0.8357                 2.3308

                     16                     17                     18
                      A                      A                      A
 Frequencies --    399.2624               462.5787               493.6980
 Red. masses --      2.4925                 1.7933                 1.6271
 Frc consts  --      0.2341                 0.2261                 0.2337
 IR Inten    --      2.3963                36.2123                26.3350

                     19                     20                     21
                      A                      A                      A
 Frequencies --    546.8527               553.8752               590.8381
 Red. masses --      5.5063                 3.8801                 5.8827
 Frc consts  --      0.9702                 0.7013                 1.2099
 IR Inten    --      2.2473                 8.1993                 2.6284

                     22                     23                     24
                      A                      A                      A
 Frequencies --    608.1923               651.6566               681.1049
 Red. masses --      4.2544                 5.8987                 2.3238
 Frc consts  --      0.9272                 1.4759                 0.6352
 IR Inten    --      3.2355                 0.1292                 0.4160

                     25                     26                     27
                      A                      A                      A
 Frequencies --    692.1132               719.9411               744.4719
 Red. masses --     10.8173                 5.9538                 4.0152
 Frc consts  --      3.0530                 1.8182                 1.3111
 IR Inten    --      2.2276                10.4970                16.6833

                     28                     29                     30
                      A                      A                      A
 Frequencies --    771.2132               776.1744               809.6736
 Red. masses --      4.5600                 1.6514                 4.7736
 Frc consts  --      1.5979                 0.5862                 1.8438
 IR Inten    --     11.4808                 0.7106                26.8162

                     31                     32                     33
                      A                      A                      A
 Frequencies --    840.4262               852.3944               877.4085
 Red. masses --      2.1663                 1.5019                 2.1484
 Frc consts  --      0.9015                 0.6429                 0.9745
 IR Inten    --      0.4704                 3.0594                 1.7974

                     34                     35                     36
                      A                      A                      A
 Frequencies --    900.0153               912.9620               929.7468
 Red. masses --      2.4591                 2.5608                 5.0957
 Frc consts  --      1.1736                 1.2576                 2.5953
 IR Inten    --      1.0469                 2.2781                31.5065

                     37                     38                     39
                      A                      A                      A
 Frequencies --    980.3271               981.1917              1014.6421
 Red. masses --      1.6068                 1.4363                 2.5724
 Frc consts  --      0.9098                 0.8147                 1.5603
 IR Inten    --      1.4830                 2.1557                21.7387

                     40                     41                     42
                      A                      A                      A
 Frequencies --   1019.3111              1031.6149              1061.9260
 Red. masses --      2.3151                 1.7739                 1.8606
 Frc consts  --      1.4172                 1.1123                 1.2362
 IR Inten    --      4.8240                 3.3770                 9.7717

                     43                     44                     45
                      A                      A                      A
 Frequencies --   1083.7544              1111.7273              1132.9736
 Red. masses --      1.9819                 2.3019                 1.8115
 Frc consts  --      1.3715                 1.6762                 1.3700
 IR Inten    --      1.1108                 9.6468                10.8579

                     46                     47                     48
                      A                      A                      A
 Frequencies --   1165.0522              1166.9549              1188.4867
 Red. masses --      2.2917                 1.2950                 1.8001
 Frc consts  --      1.8328                 1.0390                 1.4981
 IR Inten    --     25.5801                 0.0432                 0.8801

                     49                     50                     51
                      A                      A                      A
 Frequencies --   1225.8962              1231.7161              1244.6180
 Red. masses --      2.2031                 2.2890                 1.4703
 Frc consts  --      1.9507                 2.0460                 1.3419
 IR Inten    --     10.1579                21.2235                13.0677

                     52                     53                     54
                      A                      A                      A
 Frequencies --   1249.4046              1265.3984              1296.7016
 Red. masses --      1.5168                 1.6559                 1.3092
 Frc consts  --      1.3950                 1.5622                 1.2970
 IR Inten    --      0.8635                14.5494                 0.7781

                     55                     56                     57
                      A                      A                      A
 Frequencies --   1298.0398              1313.1408              1333.5332
 Red. masses --      6.2989                 1.2931                 1.3541
 Frc consts  --      6.2530                 1.3137                 1.4188
 IR Inten    --     70.8735                 0.5169                 0.7537

                     58                     59                     60
                      A                      A                      A
 Frequencies --   1351.1915              1373.6115              1378.7321
 Red. masses --      1.4119                 1.4518                 3.8374
 Frc consts  --      1.5188                 1.6139                 4.2978
 IR Inten    --     15.7669                 7.6909                40.7509

                     61                     62                     63
                      A                      A                      A
 Frequencies --   1378.8300              1380.7192              1391.8108
 Red. masses --      2.3183                 1.7618                 1.9890
 Frc consts  --      2.5968                 1.9789                 2.2701
 IR Inten    --     85.3172                 3.6770                24.9668

                     64                     65                     66
                      A                      A                      A
 Frequencies --   1417.4958              1442.6612              1465.7668
 Red. masses --      1.6661                 1.2554                 1.3677
 Frc consts  --      1.9724                 1.5395                 1.7313
 IR Inten    --      4.7979                 4.1350                17.6327

                     67                     68                     69
                      A                      A                      A
 Frequencies --   1471.9644              1493.6342              1513.9906
 Red. masses --      1.8991                 2.5415                 1.0436
 Frc consts  --      2.4243                 3.3406                 1.4093
 IR Inten    --     17.1516                38.0250                 7.1199

                     70                     71                     72
                      A                      A                      A
 Frequencies --   1515.4757              1521.3500              1524.8382
 Red. masses --      1.0812                 1.0897                 2.0976
 Frc consts  --      1.4630                 1.4860                 2.8735
 IR Inten    --      0.6351                 5.3770                 9.7501

                     73                     74                     75
                      A                      A                      A
 Frequencies --   1532.0351              1536.5764              1546.8267
 Red. masses --      1.0576                 1.0624                 1.1311
 Frc consts  --      1.4626                 1.4780                 1.5945
 IR Inten    --      3.8782                 6.1975                 6.8911

                     76                     77                     78
                      A                      A                      A
 Frequencies --   1549.0051              1576.1199              1628.9881
 Red. masses --      1.7440                 3.3820                 6.7563
 Frc consts  --      2.4654                 4.9499                10.5632
 IR Inten    --      3.0383               208.8774               554.5836

                     79                     80                     81
                      A                      A                      A
 Frequencies --   1636.3069              3047.6477              3050.8522
 Red. masses --      6.7017                 1.0732                 1.0388
 Frc consts  --     10.5723                 5.8728                 5.6969
 IR Inten    --    372.0945                10.6680                16.6702

                     82                     83                     84
                      A                      A                      A
 Frequencies --   3060.0736              3062.0532              3071.0985
 Red. masses --      1.0750                 1.0766                 1.0334
 Frc consts  --      5.9311                 5.9475                 5.7424
 IR Inten    --     22.5867                32.2183                63.7053

                     85                     86                     87
                      A                      A                      A
 Frequencies --   3072.1173              3081.9268              3098.0681
 Red. masses --      1.0716                 1.0694                 1.0971
 Frc consts  --      5.9586                 5.9844                 6.2043
 IR Inten    --     39.1516                13.4688                27.5844

                     88                     89                     90
                      A                      A                      A
 Frequencies --   3115.6092              3118.3607              3121.3123
 Red. masses --      1.1034                 1.1011                 1.1021
 Frc consts  --      6.3106                 6.3087                 6.3265
 IR Inten    --     19.1845                36.3318                39.2045

                     91                     92                     93
                      A                      A                      A
 Frequencies --   3135.2288              3135.8568              3179.5084
 Red. masses --      1.1011                 1.1064                 1.1034
 Frc consts  --      6.3770                 6.4103                 6.5720
 IR Inten    --     39.8372                18.4492                 1.9903

                     94                     95                     96
                      A                      A                      A
 Frequencies --   3183.2184              3272.8672              3605.3393
 Red. masses --      1.0904                 1.0953                 1.0759
 Frc consts  --      6.5098                 6.9123                 8.2400
 IR Inten    --     41.6266                 6.3540                47.4265

 - Thermochemistry -
 -------------------
 Temperature   298.150 Kelvin.  Pressure   1.00000 Atm.
 Atom     1 has atomic number  6 and mass  12.00000

 Molecular mass:   231.14840 amu.
 Principal axes and moments of inertia in atomic units:
                           1         2         3
     Eigenvalues --  1768.506856616.588597603.63181
           X            1.00000   0.00112  -0.00193
           Y           -0.00113   0.99998  -0.00697
           Z            0.00193   0.00698   0.99997
 This molecule is an asymmetric top.
 Rotational symmetry number  1.
 Warning -- assumption of classical behavior for rotation
           may cause significant error
 Rotational temperatures (Kelvin)      0.04898     0.01309     0.01139
 Rotational constants (GHZ):           1.02049     0.27276     0.23735
 Zero-point vibrational energy     764876.3 (Joules/Mol)
                                  182.80983 (Kcal/Mol)
 Warning -- explicit consideration of  22 degrees of freedom as
           vibrations may cause significant error
 Vibrational temperatures:     38.62    59.71    85.76   115.87   127.93
          (Kelvin)            164.58   221.77   260.99   311.68   327.31
                              346.66   348.96   426.50   448.39   495.31
                              574.45   665.55   710.32   786.80   796.90
                              850.08   875.05   937.59   979.96   995.80
                             1035.83  1071.13  1109.60  1116.74  1164.94
                             1209.19  1226.41  1262.40  1294.92  1313.55
                             1337.70  1410.47  1411.72  1459.84  1466.56
                             1484.26  1527.87  1559.28  1599.53  1630.10
                             1676.25  1678.99  1709.97  1763.79  1772.16
                             1790.73  1797.61  1820.63  1865.66  1867.59
                             1889.32  1918.66  1944.06  1976.32  1983.69
                             1983.83  1986.55  2002.51  2039.46  2075.67
                             2108.91  2117.83  2149.01  2178.29  2180.43
                             2188.88  2193.90  2204.26  2210.79  2225.54
                             2228.67  2267.68  2343.75  2354.28  4384.89
                             4389.50  4402.76  4405.61  4418.63  4420.09
                             4434.21  4457.43  4482.67  4486.63  4490.87
                             4510.89  4511.80  4574.60  4579.94  4708.93
                             5187.28

 Zero-point correction=                           0.291326 (Hartree/Particle)
 Thermal correction to Energy=                    0.306652
 Thermal correction to Enthalpy=                  0.307596
 Thermal correction to Gibbs Free Energy=         0.247334
 Sum of electronic and zero-point Energies=           -741.055043
 Sum of electronic and thermal Energies=              -741.039717
 Sum of electronic and thermal Enthalpies=            -741.038773
 Sum of electronic and thermal Free Energies=         -741.099035

                     E (Thermal)             CV                S
                      KCal/Mol        Cal/Mol-Kelvin    Cal/Mol-Kelvin
 Total                  192.427             58.288            126.832
 Electronic               0.000              0.000              0.000
 Translational            0.889              2.981             42.216
 Rotational               0.889              2.981             32.853
 Vibrational            190.649             52.326             51.763
 Vibration     1          0.593              1.984              6.050
 Vibration     2          0.594              1.981              5.186
 Vibration     3          0.597              1.974              4.470
 Vibration     4          0.600              1.962              3.878
 Vibration     5          0.602              1.957              3.684
 Vibration     6          0.607              1.938              3.193
 Vibration     7          0.620              1.898              2.621
 Vibration     8          0.630              1.865              2.314
 Vibration     9          0.645              1.816              1.987
 Vibration    10          0.651              1.799              1.899
 Vibration    11          0.658              1.778              1.796
 Vibration    12          0.659              1.775              1.784
 Vibration    13          0.690              1.680              1.437
 Vibration    14          0.700              1.651              1.354
 Vibration    15          0.723              1.587              1.192
 Vibration    16          0.765              1.472              0.965
 Vibration    17          0.820              1.333              0.759
 Vibration    18          0.849              1.264              0.674
 Vibration    19          0.902              1.147              0.551
 Vibration    20          0.909              1.131              0.536
 Vibration    21          0.948              1.051              0.466
 Vibration    22          0.967              1.014              0.436

 Optimization completed.
    -- Stationary point found.
 Normal termination of Gaussian 16 at Fri Dec 11 13:35:51 2020.

 ----------------------------------------------------------------------
 # B3LYP/6-311++G(d,p) empiricaldispersion=gd3bj scf=xqc pop=npa geom=c
 heck
 ----------------------------------------------------------------------

 --------------------------------------
 CID_55170892_JID_7599_Energie_neutraal
 --------------------------------------
 Structure from the checkpoint file:  "JID_7599.chk"
 Charge =  0 Multiplicity = 1

 SCF Done:  E(RB3LYP) =  -741.540632034     A.U. after   15 cycles
 Normal termination of Gaussian 16 at Fri Dec 11 13:41:42 2020.

 ----------------------------------------------------------------------
 # B3LYP/6-311++G(d,p) empiricaldispersion=gd3bj scf=xqc pop=npa geom=c
 heck
 ----------------------------------------------------------------------

 ------------------------------------
 CID_55170892_JID_7599_Energie_kation
 ------------------------------------
 Structure from the checkpoint file:  "JID_7599.chk"
 Charge =  1 Multiplicity = 2

 SCF Done:  E(UB3LYP) =  -741.254627422     A.U. after   22 cycles
 Normal termination of Gaussian 16 at Fri Dec 11 13:53:28 2020.
 Gaussian 16:  ES64L-G16RevA.03 25-Dec-2016

 ----------------------------------------------------------------------
 # B3LYP/6-311++G(d,p) empiricaldispersion=gd3bj scf=xqc pop=npa geom=c
 heck
 ----------------------------------------------------------------------

 -----------------------------------
 CID_55170892_JID_7599_Energie_anion
 -----------------------------------
 Structure from the checkpoint file:  "JID_7599.chk"
 Charge = -1 Multiplicity = 2

                         Standard orientation:
 ---------------------------------------------------------------------
 Center     Atomic      Atomic             Coordinates (Angstroms)
 Number     Number       Type             X           Y           Z
 ---------------------------------------------------------------------
      1          6           0       -4.087868   -1.079533    1.286576
      2          6           0       -3.304336    0.130488    0.767600
      3          6           0       -3.872233    0.663606   -0.566138
      4          6           0       -3.220101   -0.212924   -1.667911
      5          6           0       -1.999960   -0.906569   -1.001331
      6          6           0       -1.857518   -0.250690    0.393520
      7          7           0       -1.044585    0.957724    0.355550
      8          6           0        0.299266    1.020738    0.212750
      9          6           0        1.156634   -0.109551    0.145070
     10          6           0        1.120157   -1.536388    0.157970
     11          7           0        2.335583   -2.049529    0.057274
     12          7           0        3.193426   -0.989083   -0.022640
     13          6           0        2.532918    0.198107    0.023245
     14          7           0        3.082037    1.423384   -0.036621
     15          6           0        2.158710    2.381403    0.031170
     16          7           0        0.827763    2.259857    0.148400
     17          6           0        4.619858   -1.193560   -0.146179
     18          1           0       -5.115919   -0.792547    1.531886
     19          1           0       -4.138745   -1.879533    0.539336
     20          1           0       -3.627510   -1.493788    2.190555
     21          1           0       -3.301035    0.903764    1.546140
     22          1           0       -4.966292    0.627877   -0.587457
     23          1           0       -3.590297    1.714238   -0.704215
     24          1           0       -2.917115    0.396105   -2.524151
     25          1           0       -3.925074   -0.958760   -2.047517
     26          1           0       -1.081159   -0.801238   -1.582702
     27          1           0       -2.180260   -1.980579   -0.881233
     28          1           0       -1.421098   -0.935706    1.129258
     29          1           0       -1.497942    1.861925    0.374897
     30          1           0        0.272677   -2.202730    0.228837
     31          1           0        2.527907    3.404208   -0.014322
     32          1           0        5.087568   -0.208964   -0.191622
     33          1           0        4.998030   -1.746540    0.718407
     34          1           0        4.843532   -1.754975   -1.057893
 ---------------------------------------------------------------------

 SCF Done:  E(UB3LYP) =  -741.532332089     A.U. after   33 cycles
 SCF Done:  E(UB3LYP) =  -741.532332089     a.u. after    1 cycles

 The electronic state is 2-A.
 Alpha  occ. eigenvalues --  -14.27917 -14.22729 -14.22240 -14.18991 -14.18919
 Alpha  occ. eigenvalues --  -10.13944 -10.13216 -10.11852 -10.11760 -10.11044
 Alpha  occ. eigenvalues --  -10.08977 -10.07990 -10.07020 -10.06687 -10.06565
 Alpha  occ. eigenvalues --  -10.06408 -10.05879  -0.94747  -0.87684  -0.83732
 Alpha  occ. eigenvalues --   -0.77168  -0.74211  -0.72845  -0.67830  -0.64388
 Alpha  occ. eigenvalues --   -0.61616  -0.61341  -0.57633  -0.54284  -0.53427
 Alpha  occ. eigenvalues --   -0.48995  -0.47746  -0.46135  -0.43721  -0.42519
 Alpha  occ. eigenvalues --   -0.39747  -0.39418  -0.38517  -0.37846  -0.35902
 Alpha  occ. eigenvalues --   -0.34051  -0.33726  -0.32951  -0.32379  -0.31361
 Alpha  occ. eigenvalues --   -0.30079  -0.29826  -0.29273  -0.28553  -0.26581
 Alpha  occ. eigenvalues --   -0.25022  -0.24311  -0.23524  -0.23141  -0.22744
 Alpha  occ. eigenvalues --   -0.21959  -0.20348  -0.18211  -0.16711  -0.15345
 Alpha  occ. eigenvalues --   -0.15184  -0.11283   0.04416
 Alpha virt. eigenvalues --    0.06120   0.07029   0.07847   0.08159   0.08665
 Alpha virt. eigenvalues --    0.09330   0.10054   0.10387   0.10510   0.10888
 Alpha virt. eigenvalues --    0.11047   0.11108   0.11783   0.12496   0.13194

  Beta  occ. eigenvalues --  -14.27893 -14.22687 -14.22031 -14.18994 -14.18881
  Beta  occ. eigenvalues --  -10.13713 -10.13234 -10.11852 -10.11623 -10.11048
  Beta  occ. eigenvalues --  -10.08921 -10.07988 -10.07039 -10.06665 -10.06545
  Beta  occ. eigenvalues --  -10.06379 -10.05830  -0.94592  -0.87504  -0.83571
  Beta  occ. eigenvalues --   -0.77053  -0.74098  -0.72803  -0.67653  -0.64343
  Beta  occ. eigenvalues --   -0.61544  -0.61283  -0.57501  -0.54088  -0.53289
  Beta  occ. eigenvalues --   -0.48899  -0.47694  -0.46048  -0.43647  -0.42421
  Beta  occ. eigenvalues --   -0.39649  -0.39357  -0.38338  -0.37747  -0.35852
  Beta  occ. eigenvalues --   -0.34010  -0.33658  -0.32673  -0.32276  -0.31304
  Beta  occ. eigenvalues --   -0.30034  -0.29746  -0.29212  -0.28219  -0.26248
  Beta  occ. eigenvalues --   -0.24969  -0.24260  -0.23392  -0.23101  -0.22437
  Beta  occ. eigenvalues --   -0.21818  -0.20168  -0.18049  -0.16245  -0.15319
  Beta  occ. eigenvalues --   -0.14947  -0.10771
  Beta virt. eigenvalues --    0.06832   0.07072   0.07917   0.08287   0.08696
  Beta virt. eigenvalues --    0.09071   0.09582   0.10206   0.10604   0.10813
  Beta virt. eigenvalues --    0.11105   0.11369   0.11421   0.11897   0.12595

 Mulliken charges and spin densities:
               1          2
     1  C    1.785100  -2.485390
     2  C   -2.850098   2.911415
     3  C    0.361871  -0.737832
     4  C    0.323512  -0.841519
     5  C   -0.328130  -0.070029
     6  C    1.276102  -1.134147
     7  N   -0.225463   0.069480
     8  C   -0.199662  -0.014269
     9  C    0.452792  -0.241989
    10  C   -0.558483  -0.056201
    11  N   -0.306570   0.110617
    12  N    0.211130   0.007377
    13  C   -0.014783   0.108667
    14  N   -0.236997   0.040381
    15  C    0.068009   0.071097
    16  N   -0.113266  -0.049260
    17  C   -0.319164  -0.010384
    18  H   -0.589465   0.746939
    19  H   -0.312492   0.487672
    20  H   -0.129302   0.256672
    21  H   -0.139377   0.341484
    22  H   -0.378552   0.555557
    23  H    0.031711   0.092288
    24  H    0.018262   0.122728
    25  H   -0.177631   0.348852
    26  H    0.241807  -0.083621
    27  H   -0.106550   0.259295
    28  H    0.413036  -0.136632
    29  H    0.300603  -0.013107
    30  H   -0.130275   0.321138
    31  H    0.183081  -0.002084
    32  H    0.162099   0.003305
    33  H    0.131619   0.023415
    34  H    0.155525  -0.001914
 Sum of Mulliken charges =  -1.00000   1.00000

 Dipole moment (field-independent basis, Debye):
    X=              7.5403    Y=              1.8142    Z=             -0.5885  Tot=              7.7778
 Quadrupole moment (field-independent basis, Debye-Ang):
   XX=           -193.2050   YY=           -142.2111   ZZ=           -126.3336
   XY=            -14.2075   XZ=              2.5629   YZ=              1.0143

 Summary of Natural Population Analysis:

                                       Natural Population
                Natural  -----------------------------------------------
    Atom  No    Charge         Core      Valence    Rydberg      Total
 -----------------------------------------------------------------------
      C    1   -0.28452      0.99965     2.27853    0.00635     3.28452
      C    2   -0.11240      0.99959     2.10172    0.01108     3.11240
      C    3   -0.19256      0.99962     2.18409    0.00885     3.19256
      C    4   -0.19660      0.99964     2.18876    0.00820     3.19660
      C    5   -0.19891      0.99962     2.19084    0.00845     3.19891
      C    6   -0.00956      0.99956     1.99736    0.01263     3.00956
      N    7   -0.29370      0.99965     2.78412    0.00994     3.79370
      C    8    0.26567      0.99952     1.72165    0.01315     2.73433
      C    9   -0.12831      0.99945     2.12160    0.00727     3.12831
      C   10    0.00589      0.99963     1.98046    0.01402     2.99411
      N   11   -0.12138      0.99973     2.60979    0.01187     3.62138
      N   12   -0.12347      0.99961     2.61174    0.01212     3.62347
      C   13    0.19677      0.99948     1.78775    0.01600     2.80323
      N   14   -0.27522      0.99967     2.76631    0.00923     3.77522
      C   15    0.16890      0.99969     1.81238    0.01904     2.83110
      N   16   -0.30271      0.99969     2.79365    0.00937     3.80271
      C   17   -0.17405      0.99965     2.16790    0.00650     3.17405
      H   18    0.10363      0.00000     0.39458    0.00179     0.39637
      H   19    0.10113      0.00000     0.39696    0.00192     0.39887
      H   20    0.09908      0.00000     0.39993    0.00099     0.40092
      H   21    0.09893      0.00000     0.39988    0.00119     0.40107
      H   22    0.10456      0.00000     0.39391    0.00153     0.39544
      H   23    0.09448      0.00000     0.40423    0.00128     0.40552
      H   24    0.09805      0.00000     0.40104    0.00091     0.40195
      H   25    0.10103      0.00000     0.39768    0.00129     0.39897
      H   26    0.10658      0.00000     0.39220    0.00122     0.39342
      H   27    0.10162      0.00000     0.39707    0.00130     0.39838
      H   28    0.09914      0.00000     0.39876    0.00210     0.40086
      H   29    0.19356      0.00000     0.30290    0.00355     0.30644
      H   30    0.09896      0.00000     0.39906    0.00198     0.40104
      H   31    0.07508      0.00000     0.42375    0.00117     0.42492
      H   32    0.10969      0.00000     0.38933    0.00099     0.39031
      H   33    0.09554      0.00000     0.40339    0.00107     0.40446
      H   34    0.09513      0.00000     0.40381    0.00106     0.40487
 =======================================================================
   * Total *    0.00000     16.99346    44.79714    0.20940    62.00000

 Normal termination of Gaussian 16 at Fri Dec 11 14:10:56 2020.
