 Gaussian 16, Revision A.03,

 -----------------------------------------------------------
 # opt freq B3LYP/6-31G(d) empiricaldispersion=gd3bj scf=xqc
 -----------------------------------------------------------

 -------------------------------
 CID_115386721_JID_3105_neutraal
 -------------------------------
 Symbolic Z-matrix:
 Charge =  0 Multiplicity = 1

 SCF Done:  E(RB3LYP) =  -1244.90497884     A.U. after   13 cycles
 SCF Done:  E(RB3LYP) =  -1244.90757215     A.U. after   11 cycles
 SCF Done:  E(RB3LYP) =  -1244.90673947     A.U. after   11 cycles
 SCF Done:  E(RB3LYP) =  -1244.90806216     A.U. after   11 cycles
 SCF Done:  E(RB3LYP) =  -1244.90869390     A.U. after   11 cycles
 SCF Done:  E(RB3LYP) =  -1244.90877450     A.U. after   10 cycles
 SCF Done:  E(RB3LYP) =  -1244.90882531     A.U. after   10 cycles
 SCF Done:  E(RB3LYP) =  -1244.90883403     A.U. after    9 cycles
 SCF Done:  E(RB3LYP) =  -1244.90883636     A.U. after    9 cycles
 SCF Done:  E(RB3LYP) =  -1244.90883679     A.U. after    7 cycles
 SCF Done:  E(RB3LYP) =  -1244.90883685     A.U. after    7 cycles
 SCF Done:  E(RB3LYP) =  -1244.90883690     A.U. after    6 cycles
 Optimization completed.
    -- Stationary point found.
 Normal termination of Gaussian 16 at Wed Dec  9 22:27:13 2020.

 --------------------------------------------------------------------
 #N Geom=AllCheck Guess=TCheck SCRF=Check GenChk RB3LYP/6-31G(d) Freq
 --------------------------------------------------------------------

 Structure from the checkpoint file:  "JID_3105.chk"
 -------------------------------
 CID_115386721_JID_3105_neutraal
 -------------------------------
 Charge =  0 Multiplicity = 1

 SCF Done:  E(RB3LYP) =  -1244.90883690     A.U. after    1 cycles

  Exact polarizability: 160.112  -0.776 136.963   7.866   4.133 130.284
 Approx polarizability: 204.363   0.511 214.846  19.464   9.831 209.537

                      1                      2                      3
                      A                      A                      A
 Frequencies --     46.9745                58.4392               105.7246
 Red. masses --      3.6915                 3.1913                 3.6122
 Frc consts  --      0.0048                 0.0064                 0.0238
 IR Inten    --      0.0576                 0.0067                 0.0597

                      4                      5                      6
                      A                      A                      A
 Frequencies --    115.7619               125.9004               157.5440
 Red. masses --      2.3146                 3.1940                 3.4648
 Frc consts  --      0.0183                 0.0298                 0.0507
 IR Inten    --      0.3991                 2.0933                 0.9427

                      7                      8                      9
                      A                      A                      A
 Frequencies --    192.9911               206.1694               216.4103
 Red. masses --      4.0293                 1.0604                 2.2901
 Frc consts  --      0.0884                 0.0266                 0.0632
 IR Inten    --      0.1849                 0.1776                 1.7842

                     10                     11                     12
                      A                      A                      A
 Frequencies --    227.7319               233.2166               287.6440
 Red. masses --      1.1855                 1.8637                 2.1871
 Frc consts  --      0.0362                 0.0597                 0.1066
 IR Inten    --      0.1518                 0.3209                 0.7307

                     13                     14                     15
                      A                      A                      A
 Frequencies --    297.4758               302.9374               329.3394
 Red. masses --      5.4238                 2.5754                 2.0629
 Frc consts  --      0.2828                 0.1393                 0.1318
 IR Inten    --      0.9251                 0.1982                 4.0170

                     16                     17                     18
                      A                      A                      A
 Frequencies --    359.4966               394.0069               397.7233
 Red. masses --      2.0004                 2.8287                 2.3914
 Frc consts  --      0.1523                 0.2587                 0.2229
 IR Inten    --      4.2106                 2.7416                10.8786

                     19                     20                     21
                      A                      A                      A
 Frequencies --    407.2563               426.9102               450.0797
 Red. masses --      2.8216                 1.8789                 2.8450
 Frc consts  --      0.2757                 0.2018                 0.3396
 IR Inten    --      4.0346                17.7055                 2.9320

                     22                     23                     24
                      A                      A                      A
 Frequencies --    508.9616               547.4438               604.6439
 Red. masses --      2.9045                 2.8792                 3.4434
 Frc consts  --      0.4433                 0.5084                 0.7417
 IR Inten    --      2.7970                 6.3622                 0.3429

                     25                     26                     27
                      A                      A                      A
 Frequencies --    617.7929               653.9782               678.5071
 Red. masses --      3.3637                 4.9010                 3.4663
 Frc consts  --      0.7564                 1.2350                 0.9402
 IR Inten    --      7.9264                 2.3200                 2.5572

                     28                     29                     30
                      A                      A                      A
 Frequencies --    757.6274               788.0475               847.4834
 Red. masses --      3.4450                 1.3096                 1.7331
 Frc consts  --      1.1651                 0.4792                 0.7334
 IR Inten    --      5.7674                 4.4239                20.8953

                     31                     32                     33
                      A                      A                      A
 Frequencies --    862.7759               884.6424               913.8033
 Red. masses --      1.8859                 1.7131                 1.9544
 Frc consts  --      0.8271                 0.7899                 0.9615
 IR Inten    --    177.6770                12.9696                29.1360

                     34                     35                     36
                      A                      A                      A
 Frequencies --    927.6767               955.8474               980.0283
 Red. masses --      2.3903                 1.6210                 1.2993
 Frc consts  --      1.2120                 0.8726                 0.7352
 IR Inten    --     22.9204                 3.1468                 4.5847

                     37                     38                     39
                      A                      A                      A
 Frequencies --   1003.3251              1014.6913              1024.4618
 Red. masses --      1.8330                 1.6456                 2.5006
 Frc consts  --      1.0872                 0.9982                 1.5463
 IR Inten    --      5.5856                 6.8730                 0.4765

                     40                     41                     42
                      A                      A                      A
 Frequencies --   1042.4506              1054.1130              1084.7887
 Red. masses --      2.5051                 2.3443                 1.4350
 Frc consts  --      1.6039                 1.5347                 0.9949
 IR Inten    --      3.5311                29.6805                 5.3412

                     43                     44                     45
                      A                      A                      A
 Frequencies --   1092.7936              1125.0068              1128.6643
 Red. masses --      1.9358                 2.2695                 1.7139
 Frc consts  --      1.3621                 1.6923                 1.2864
 IR Inten    --      0.4217                 0.4793                13.8134

                     46                     47                     48
                      A                      A                      A
 Frequencies --   1169.5283              1172.2388              1194.1290
 Red. masses --      1.0705                 2.2449                 1.6782
 Frc consts  --      0.8627                 1.8175                 1.4099
 IR Inten    --      8.6690                 4.7679                 0.3683

                     49                     50                     51
                      A                      A                      A
 Frequencies --   1198.4410              1228.4663              1250.2432
 Red. masses --      1.4102                 1.5089                 1.3485
 Frc consts  --      1.1933                 1.3417                 1.2419
 IR Inten    --      7.4759                 2.3150                 7.9675

                     52                     53                     54
                      A                      A                      A
 Frequencies --   1273.2785              1308.7175              1316.4611
 Red. masses --      1.2834                 1.2788                 1.3100
 Frc consts  --      1.2259                 1.2905                 1.3377
 IR Inten    --      1.4953                 1.2181                 1.3000

                     55                     56                     57
                      A                      A                      A
 Frequencies --   1333.3455              1347.2026              1348.1507
 Red. masses --      1.2901                 1.2927                 1.2504
 Frc consts  --      1.3513                 1.3823                 1.3390
 IR Inten    --      4.7813                10.1501                 9.3926

                     58                     59                     60
                      A                      A                      A
 Frequencies --   1364.5763              1371.0401              1392.3686
 Red. masses --      1.3025                 1.2099                 1.3200
 Frc consts  --      1.4289                 1.3399                 1.5078
 IR Inten    --      9.0238                 0.1719                 2.9067

                     61                     62                     63
                      A                      A                      A
 Frequencies --   1411.0525              1419.1331              1432.9791
 Red. masses --      1.3473                 1.2919                 1.2697
 Frc consts  --      1.5806                 1.5329                 1.5361
 IR Inten    --      0.8914                 1.8359                12.3866

                     64                     65                     66
                      A                      A                      A
 Frequencies --   1438.6314              1441.1774              1486.1188
 Red. masses --      1.2256                 1.2333                 1.0798
 Frc consts  --      1.4945                 1.5093                 1.4050
 IR Inten    --      3.8191                 0.8805                 8.4359

                     67                     68                     69
                      A                      A                      A
 Frequencies --   1493.8197              1507.4990              1517.0594
 Red. masses --      1.0932                 1.0713                 1.0429
 Frc consts  --      1.4372                 1.4344                 1.4142
 IR Inten    --      3.6242                 1.2862                 7.1892

                     70                     71                     72
                      A                      A                      A
 Frequencies --   1522.7363              1531.5330              1533.7540
 Red. masses --      1.0512                 1.0461                 1.0472
 Frc consts  --      1.4362                 1.4456                 1.4514
 IR Inten    --      5.6559                 5.6482                 2.7858

                     73                     74                     75
                      A                      A                      A
 Frequencies --   1538.9924              1549.9703              1688.1874
 Red. masses --      1.0621                 1.0448                 1.0915
 Frc consts  --      1.4822                 1.4788                 1.8329
 IR Inten    --      5.5295                 5.2364                16.5166

                     76                     77                     78
                      A                      A                      A
 Frequencies --   2965.2415              3042.8527              3043.6708
 Red. masses --      1.0815                 1.0714                 1.0488
 Frc consts  --      5.6027                 5.8449                 5.7245
 IR Inten    --     27.3099                15.7841                17.3049

                     79                     80                     81
                      A                      A                      A
 Frequencies --   3045.3262              3051.6598              3054.7220
 Red. masses --      1.0433                 1.0473                 1.0616
 Frc consts  --      5.7009                 5.7463                 5.8365
 IR Inten    --     39.7944                33.6989                20.3593

                     82                     83                     84
                      A                      A                      A
 Frequencies --   3064.3681              3070.5022              3071.8246
 Red. masses --      1.0594                 1.0701                 1.0721
 Frc consts  --      5.8612                 5.9441                 5.9602
 IR Inten    --      9.9903                 6.0706                37.4629

                     85                     86                     87
                      A                      A                      A
 Frequencies --   3076.1451              3088.0892              3108.1606
 Red. masses --      1.0829                 1.0991                 1.1006
 Frc consts  --      6.0377                 6.1753                 6.2645
 IR Inten    --     19.7650                15.6450                41.6369

                     88                     89                     90
                      A                      A                      A
 Frequencies --   3111.9049              3115.4595              3122.9808
 Red. masses --      1.1062                 1.0952                 1.0942
 Frc consts  --      6.3115                 6.2633                 6.2876
 IR Inten    --      5.5209                42.8285                19.3259

                     91                     92                     93
                      A                      A                      A
 Frequencies --   3125.5110              3128.8306              3153.8389
 Red. masses --      1.1059                 1.0992                 1.1027
 Frc consts  --      6.3654                 6.3401                 6.4621
 IR Inten    --     15.9958                49.2893                15.0809

                     94                     95                     96
                      A                      A                      A
 Frequencies --   3161.5881              3470.2214              3568.7481
 Red. masses --      1.0993                 1.0490                 1.0932
 Frc consts  --      6.4742                 7.4430                 8.2032
 IR Inten    --      9.3798                 1.9700                 5.1968

 - Thermochemistry -
 -------------------
 Temperature   298.150 Kelvin.  Pressure   1.00000 Atm.
 Atom     1 has atomic number  6 and mass  12.00000

 Molecular mass:   219.11154 amu.
 Principal axes and moments of inertia in atomic units:
                           1         2         3
     Eigenvalues --  1851.427784592.764285090.12551
           X            0.99995   0.00908  -0.00474
           Y           -0.00908   0.99996   0.00090
           Z            0.00475  -0.00085   0.99999
 This molecule is an asymmetric top.
 Rotational symmetry number  1.
 Warning -- assumption of classical behavior for rotation
           may cause significant error
 Rotational temperatures (Kelvin)      0.04678     0.01886     0.01702
 Rotational constants (GHZ):           0.97478     0.39295     0.35456
 Zero-point vibrational energy     800671.2 (Joules/Mol)
                                  191.36500 (Kcal/Mol)
 Warning -- explicit consideration of  25 degrees of freedom as
           vibrations may cause significant error
 Vibrational temperatures:     67.59    84.08   152.11   166.56   181.14
          (Kelvin)            226.67   277.67   296.63   311.37   327.66
                              335.55   413.86   428.00   435.86   473.85
                              517.24   566.89   572.24   585.95   614.23
                              647.56   732.28   787.65   869.95   888.87
                              940.93   976.22  1090.06  1133.82  1219.34
                             1241.34  1272.80  1314.76  1334.72  1375.25
                             1410.04  1443.56  1459.91  1473.97  1499.85
                             1516.63  1560.77  1572.29  1618.63  1623.90
                             1682.69  1686.59  1718.09  1724.29  1767.49
                             1798.82  1831.96  1882.95  1894.09  1918.39
                             1938.32  1939.69  1963.32  1972.62  2003.31
                             2030.19  2041.82  2061.74  2069.87  2073.53
                             2138.19  2149.27  2168.95  2182.71  2190.88
                             2203.53  2206.73  2214.27  2230.06  2428.93
                             4266.32  4377.99  4379.16  4381.55  4390.66
                             4395.06  4408.94  4417.77  4419.67  4425.89
                             4443.07  4471.95  4477.34  4482.45  4493.27
                             4496.91  4501.69  4537.67  4548.82  4992.87
                             5134.63

 Zero-point correction=                           0.304960 (Hartree/Particle)
 Thermal correction to Energy=                    0.320410
 Thermal correction to Enthalpy=                  0.321354
 Thermal correction to Gibbs Free Energy=         0.263156
 Sum of electronic and zero-point Energies=          -1244.603877
 Sum of electronic and thermal Energies=             -1244.588427
 Sum of electronic and thermal Enthalpies=           -1244.587483
 Sum of electronic and thermal Free Energies=        -1244.645681

                     E (Thermal)             CV                S
                      KCal/Mol        Cal/Mol-Kelvin    Cal/Mol-Kelvin
 Total                  201.060             59.489            122.488
 Electronic               0.000              0.000              0.000
 Translational            0.889              2.981             42.056
 Rotational               0.889              2.981             32.137
 Vibrational            199.283             53.527             48.295
 Vibration     1          0.595              1.979              4.941
 Vibration     2          0.596              1.974              4.509
 Vibration     3          0.605              1.945              3.346
 Vibration     4          0.608              1.936              3.170
 Vibration     5          0.611              1.927              3.008
 Vibration     6          0.621              1.894              2.579
 Vibration     7          0.635              1.850              2.199
 Vibration     8          0.641              1.831              2.077
 Vibration     9          0.645              1.816              1.989
 Vibration    10          0.651              1.799              1.897
 Vibration    11          0.654              1.790              1.854
 Vibration    12          0.685              1.697              1.488
 Vibration    13          0.691              1.678              1.431
 Vibration    14          0.694              1.668              1.401
 Vibration    15          0.712              1.617              1.263
 Vibration    16          0.734              1.556              1.124
 Vibration    17          0.761              1.483              0.985
 Vibration    18          0.764              1.475              0.971
 Vibration    19          0.772              1.454              0.936
 Vibration    20          0.789              1.412              0.869
 Vibration    21          0.809              1.361              0.796
 Vibration    22          0.864              1.230              0.636
 Vibration    23          0.903              1.145              0.549
 Vibration    24          0.963              1.022              0.442
 Vibration    25          0.978              0.994              0.420

 Optimization completed.
    -- Stationary point found.
 Normal termination of Gaussian 16 at Wed Dec  9 22:37:18 2020.

 ----------------------------------------------------------------------
 # B3LYP/6-311++G(d,p) empiricaldispersion=gd3bj scf=xqc pop=npa geom=c
 heck
 ----------------------------------------------------------------------

 ---------------------------------------
 CID_115386721_JID_3105_Energie_neutraal
 ---------------------------------------
 Structure from the checkpoint file:  "JID_3105.chk"
 Charge =  0 Multiplicity = 1

 SCF Done:  E(RB3LYP) =  -1245.09406214     A.U. after   14 cycles
 Normal termination of Gaussian 16 at Wed Dec  9 22:42:39 2020.

 ----------------------------------------------------------------------
 # B3LYP/6-311++G(d,p) empiricaldispersion=gd3bj scf=xqc pop=npa geom=c
 heck
 ----------------------------------------------------------------------

 -------------------------------------
 CID_115386721_JID_3105_Energie_kation
 -------------------------------------
 Structure from the checkpoint file:  "JID_3105.chk"
 Charge =  1 Multiplicity = 2

 SCF Done:  E(UB3LYP) =  -1244.80895939     A.U. after   21 cycles
 Normal termination of Gaussian 16 at Wed Dec  9 22:53:34 2020.
 Gaussian 16:  ES64L-G16RevA.03 25-Dec-2016

 ----------------------------------------------------------------------
 # B3LYP/6-311++G(d,p) empiricaldispersion=gd3bj scf=xqc pop=npa geom=c
 heck
 ----------------------------------------------------------------------

 ------------------------------------
 CID_115386721_JID_3105_Energie_anion
 ------------------------------------
 Structure from the checkpoint file:  "JID_3105.chk"
 Charge = -1 Multiplicity = 2

                         Standard orientation:
 ---------------------------------------------------------------------
 Center     Atomic      Atomic             Coordinates (Angstroms)
 Number     Number       Type             X           Y           Z
 ---------------------------------------------------------------------
      1          6           0        4.206828   -1.092462    0.569402
      2          6           0        2.739503   -0.903299    0.167861
      3          6           0        2.313685    0.572854    0.066396
      4          6           0        3.178667    1.322687   -0.958064
      5          6           0        0.809225    0.807250   -0.252709
      6          6           0       -0.140222   -0.083431    0.627573
      7          6           0       -1.447419    0.581513    1.103501
      8         16           0       -2.595406    1.037919   -0.275708
      9          6           0       -2.864268   -0.592773   -1.065580
     10          6           0       -1.570528   -1.250752   -1.528559
     11         16           0       -0.459997   -1.733310   -0.154476
     12          6           0       -2.157600   -0.206243    2.204896
     13          7           0        0.568589    2.249617   -0.170601
     14          1           0        4.895430   -0.732735   -0.201316
     15          1           0        4.426204   -2.152485    0.738385
     16          1           0        4.435559   -0.553061    1.497556
     17          1           0        2.549825   -1.401704   -0.790810
     18          1           0        2.119818   -1.427794    0.903007
     19          1           0        2.485363    1.028543    1.057950
     20          1           0        3.144087    0.811024   -1.929298
     21          1           0        2.809963    2.340547   -1.094786
     22          1           0        4.225470    1.367782   -0.643526
     23          1           0        0.640562    0.537941   -1.301287
     24          1           0        0.394825   -0.356946    1.546014
     25          1           0       -1.181164    1.564569    1.505166
     26          1           0       -3.510605   -0.380750   -1.924407
     27          1           0       -3.411840   -1.251595   -0.385251
     28          1           0       -1.040696   -0.597407   -2.228845
     29          1           0       -1.789406   -2.191236   -2.046261
     30          1           0       -1.477336   -0.366205    3.051117
     31          1           0       -3.032800    0.343587    2.561493
     32          1           0       -2.479391   -1.189246    1.853042
     33          1           0       -0.372630    2.471287   -0.485943
     34          1           0        0.667875    2.582744    0.786856
 ---------------------------------------------------------------------

 SCF Done:  E(UB3LYP) =  -1245.08028882     A.U. after   31 cycles

 The electronic state is 2-A.
 Alpha  occ. eigenvalues --  -88.74108 -88.73795 -14.19166 -10.11209 -10.10905
 Alpha  occ. eigenvalues --  -10.10593 -10.10570 -10.10540 -10.07645 -10.06649
 Alpha  occ. eigenvalues --  -10.06544 -10.06386 -10.05506  -7.82754  -7.82442
 Alpha  occ. eigenvalues --   -5.79133  -5.78833  -5.78785  -5.78477  -5.78128
 Alpha  occ. eigenvalues --   -5.77797  -0.79858  -0.74518  -0.70522  -0.68742
 Alpha  occ. eigenvalues --   -0.66549  -0.62959  -0.60183  -0.56589  -0.53624
 Alpha  occ. eigenvalues --   -0.51880  -0.51589  -0.46826  -0.43510  -0.39622
 Alpha  occ. eigenvalues --   -0.38014  -0.37011  -0.36469  -0.35819  -0.34859
 Alpha  occ. eigenvalues --   -0.33111  -0.32323  -0.32056  -0.30812  -0.29701
 Alpha  occ. eigenvalues --   -0.29652  -0.28494  -0.28033  -0.26931  -0.26630
 Alpha  occ. eigenvalues --   -0.25171  -0.23210  -0.22670  -0.22522  -0.22302
 Alpha  occ. eigenvalues --   -0.21188  -0.20192  -0.15232  -0.13788  -0.11983
 Alpha  occ. eigenvalues --    0.04367
 Alpha virt. eigenvalues --    0.06003   0.06744   0.07712   0.08431   0.08663
 Alpha virt. eigenvalues --    0.08977   0.09171   0.10099   0.10599   0.10981
 Alpha virt. eigenvalues --    0.11357   0.11659   0.12002   0.12681   0.13132

  Beta  occ. eigenvalues --  -88.74105 -88.73791 -14.19145 -10.11196 -10.10897
  Beta  occ. eigenvalues --  -10.10588 -10.10540 -10.10512 -10.07630 -10.06643
  Beta  occ. eigenvalues --  -10.06526 -10.06356 -10.05499  -7.82751  -7.82439
  Beta  occ. eigenvalues --   -5.79129  -5.78830  -5.78782  -5.78473  -5.78126
  Beta  occ. eigenvalues --   -5.77790  -0.79827  -0.74481  -0.70496  -0.68701
  Beta  occ. eigenvalues --   -0.66516  -0.62931  -0.60139  -0.56552  -0.53588
  Beta  occ. eigenvalues --   -0.51812  -0.51544  -0.46780  -0.43463  -0.39592
  Beta  occ. eigenvalues --   -0.37964  -0.36981  -0.36435  -0.35776  -0.34827
  Beta  occ. eigenvalues --   -0.33059  -0.32293  -0.32021  -0.30770  -0.29672
  Beta  occ. eigenvalues --   -0.29619  -0.28469  -0.27999  -0.26897  -0.26599
  Beta  occ. eigenvalues --   -0.25143  -0.23175  -0.22651  -0.22484  -0.22275
  Beta  occ. eigenvalues --   -0.21156  -0.20161  -0.15205  -0.13771  -0.11959
  Beta virt. eigenvalues --    0.06491   0.07064   0.07533   0.07983   0.08800
  Beta virt. eigenvalues --    0.08963   0.09427   0.09567   0.10199   0.10962
  Beta virt. eigenvalues --    0.11120   0.11603   0.11823   0.12166   0.12883

 Mulliken charges and spin densities:
               1          2
     1  C    0.419712  -1.165204
     2  C   -0.724752   0.500535
     3  C    0.628492   0.018262
     4  C   -0.137674  -0.607466
     5  C   -0.361085  -1.012093
     6  C    0.813804  -0.207013
     7  C   -1.091962   1.063508
     8  S    0.211072  -0.090383
     9  C    0.539808  -1.235565
    10  C   -0.429002   0.057316
    11  S   -0.061682  -0.011364
    12  C    0.538503  -1.211947
    13  N   -0.215298  -0.020618
    14  H    0.053218   0.088483
    15  H   -0.069377   0.204551
    16  H   -0.126737   0.275419
    17  H   -0.004796   0.141631
    18  H    0.161319  -0.042124
    19  H   -0.325921   0.498211
    20  H    0.054156   0.079122
    21  H    0.176653   0.005316
    22  H    0.028405   0.094074
    23  H    0.261405  -0.006098
    24  H    0.227011   0.082571
    25  H   -0.410837   0.664661
    26  H   -0.349854   0.579923
    27  H    0.084176   0.092224
    28  H    0.122247   0.004984
    29  H   -0.701843   0.950996
    30  H   -0.264631   0.403854
    31  H   -0.252980   0.403095
    32  H    0.026197   0.124317
    33  H    0.106258   0.117003
    34  H    0.075997   0.159820
 Sum of Mulliken charges =  -1.00000   1.00000

 Dipole moment (field-independent basis, Debye):
    X=              1.7335    Y=              0.1781    Z=             -1.6021  Tot=              2.3672
 Quadrupole moment (field-independent basis, Debye-Ang):
   XX=           -164.1522   YY=           -142.0621   ZZ=           -146.7984
   XY=             -4.3083   XZ=             -8.9953   YZ=             -8.0286

 Summary of Natural Population Analysis:

                                       Natural Population
                Natural  -----------------------------------------------
    Atom  No    Charge         Core      Valence    Rydberg      Total
 -----------------------------------------------------------------------
      C    1   -0.28374      0.99967     2.27993    0.00415     3.28374
      C    2   -0.19115      0.99961     2.18251    0.00903     3.19115
      C    3   -0.10806      0.99958     2.09662    0.01185     3.10806
      C    4   -0.28803      0.99965     2.28335    0.00503     3.28803
      C    5   -0.01403      0.99955     1.99999    0.01449     3.01403
      C    6   -0.17629      0.99950     2.16049    0.01630     3.17629
      C    7   -0.17246      0.99952     2.15662    0.01632     3.17246
      S    8    0.08350      4.99960     2.90074    0.01616     7.91650
      C    9   -0.25603      0.99957     2.24422    0.01225     3.25603
      C   10   -0.25884      0.99957     2.24683    0.01244     3.25884
      S   11    0.09391      4.99961     2.89081    0.01567     7.90609
      C   12   -0.29037      0.99962     2.28288    0.00787     3.29037
      N   13   -0.42551      0.99977     2.91611    0.00963     3.92551
      H   14    0.09454      0.00000     0.40446    0.00100     0.40546
      H   15    0.09746      0.00000     0.40173    0.00081     0.40254
      H   16    0.09656      0.00000     0.40234    0.00111     0.40344
      H   17    0.09808      0.00000     0.40068    0.00124     0.40192
      H   18    0.09756      0.00000     0.40091    0.00153     0.40244
      H   19    0.09146      0.00000     0.40646    0.00208     0.40854
      H   20    0.09292      0.00000     0.40622    0.00085     0.40708
      H   21    0.11276      0.00000     0.38615    0.00110     0.38724
      H   22    0.09618      0.00000     0.40301    0.00080     0.40382
      H   23    0.09225      0.00000     0.40553    0.00223     0.40775
      H   24    0.11182      0.00000     0.38613    0.00205     0.38818
      H   25    0.11130      0.00000     0.38637    0.00232     0.38870
      H   26    0.11079      0.00000     0.38725    0.00196     0.38921
      H   27    0.10336      0.00000     0.39505    0.00159     0.39664
      H   28    0.10086      0.00000     0.39747    0.00168     0.39914
      H   29    0.11249      0.00000     0.38533    0.00218     0.38751
      H   30    0.10331      0.00000     0.39507    0.00162     0.39669
      H   31    0.10343      0.00000     0.39536    0.00120     0.39657
      H   32    0.10408      0.00000     0.39455    0.00137     0.39592
      H   33    0.18228      0.00000     0.31544    0.00228     0.31772
      H   34    0.17361      0.00000     0.32413    0.00226     0.32639
 =======================================================================
   * Total *    0.00000     20.99482    38.82073    0.18446    60.00000

 Normal termination of Gaussian 16 at Wed Dec  9 23:10:27 2020.
